 argument  1 = carbon_fon_core.inp
 


============================== echo of input deck ==============================
# Taken from http://www.nwchem-sw.org/index.php/Release66:Density_Functional_Theory_for_Molecules
# Partial occ core example
echo
title "carbon atom"
print high    # MO viz
start carbon_fon
geometry units angstrom nocenter
symmetry c1
 C   0.0 0.0 0.0
end
basis
 * library 6-31G
end
dft
  odft
  direct
  fon alpha partial 2 electrons 1.0 filled 2
  fon beta partial 2 electrons 1.0 filled 2
  xc pbe0
  convergence energy 1d-8
end
set dft:core_fon .true.
task dft
================================================================================


                                         
                                         
 
 
              Northwest Computational Chemistry Package (NWChem) 6.6
              ------------------------------------------------------
 
 
                    Environmental Molecular Sciences Laboratory
                       Pacific Northwest National Laboratory
                                Richland, WA 99352
 
                              Copyright (c) 1994-2015
                       Pacific Northwest National Laboratory
                            Battelle Memorial Institute
 
             NWChem is an open-source computational chemistry package
                        distributed under the terms of the
                      Educational Community License (ECL) 2.0
             A copy of the license is included with this distribution
                              in the LICENSE.TXT file
 
                                  ACKNOWLEDGMENT
                                  --------------

            This software and its documentation were developed at the
            EMSL at Pacific Northwest National Laboratory, a multiprogram
            national laboratory, operated for the U.S. Department of Energy
            by Battelle under Contract Number DE-AC05-76RL01830. Support
            for this work was provided by the Department of Energy Office
            of Biological and Environmental Research, Office of Basic
            Energy Sciences, and the Office of Advanced Scientific Computing.


           Job information
           ---------------

    hostname        = hostname
    program         = nwchem
    date            = Tue Oct 24 14:42:32 2017

    compiled        = Wed_Sep_14_13:31:52_2016
    source          = source
    nwchem branch   = Development
    nwchem revision = 28323
    ga revision     = 10664
    input           = carbon_fon_core.inp
    prefix          = carbon_fon.
    data base       = ./carbon_fon.db
    status          = startup
    nproc           =       16
    time left       =     -1s



           Memory information
           ------------------

    heap     =   13107196 doubles =    100.0 Mbytes
    stack    =   13107201 doubles =    100.0 Mbytes
    global   =   26214400 doubles =    200.0 Mbytes (distinct from heap & stack)
    total    =   52428797 doubles =    400.0 Mbytes
    verify   = yes
    hardfail = no 


           Directory information
           ---------------------
 
  0 permanent = .
  0 scratch   = .
 
 
 
 
                                NWChem Input Module
                                -------------------
 
 
                                    carbon atom
                                    -----------

 Scaling coordinates for geometry "geometry" by  1.889725989
 (inverse scale =  0.529177249)

     MOLECULAR POINT GROUP NUMBER =  1     SCHOENFLIESSYMBOL = C1        

                --------------- GROUP GENERATORS ---------------

                      1 GENERATORS USED TO FORM THE GROUP

                         PT fold Rotoinversion Operator
                     1.000000  0.000000  0.000000  0.000000
                     0.000000  1.000000  0.000000  0.000000
                     0.000000  0.000000  1.000000  0.000000


                    ---------- FULL LISTING OF GROUP ----------

                  MATRIX REPRESENTATIONS OF THE GROUP OPERATORS

     EXCLUDING THE IDENTITY OPERATOR THERE ARE  1 OPERATORS IN THIS GROUP

                         pt fold Rotoinversion Operator
                     1.000000  0.000000  0.000000  0.000000
                     0.000000  1.000000  0.000000  0.000000
                     0.000000  0.000000  1.000000  0.000000


                  <<< SYMMETRY OPERATION/ATOM MAPPING BUILT >>>
      Symmetry information
      --------------------
 
 Group name             C1        
 Group number              1
 Group order               1
 No. of unique centers     1
 


                  Character table for group C1      

                  1e     
        a          1.000
 
      Symmetry unique atoms
 
     1
 
      Mapping of centers
 
 
      Group operations
 
 
 
 
                             Geometry "geometry" -> ""
                             -------------------------
 
 Output coordinates in angstroms (scale by  1.889725989 to convert to a.u.)
 
  No.       Tag          Charge          X              Y              Z
 ---- ---------------- ---------- -------------- -------------- --------------
    1 C                    6.0000     0.00000000     0.00000000     0.00000000
 
      Atomic Mass 
      ----------- 
 
      C                 12.000000
 

 Effective nuclear repulsion energy (a.u.)       0.0000000000

            Nuclear Dipole moment (a.u.) 
            ----------------------------
        X                 Y               Z
 ---------------- ---------------- ----------------
     0.0000000000     0.0000000000     0.0000000000
 
 
            XYZ format geometry
            -------------------
     1
 geometry
 C                     0.00000000     0.00000000     0.00000000
 
  library name resolved from: environment
  library file name is: <
 libraryfilename>
  


 Summary of "ao basis" -> "" (cartesian)
 ------------------------------------------------------------------------------
       Tag                 Description            Shells   Functions and Types
 ---------------- ------------------------------  ------  ---------------------
 *                           6-31G                    on all atoms 


 
                                 NWChem DFT Module
                                 -----------------
 
 
                                    carbon atom
 
 
                      Basis "ao basis" -> "ao basis" (cartesian)
                      -----
  C (Carbon)
  ----------
            Exponent  Coefficients 
       -------------- ---------------------------------------------------------
  1 S  3.04752490E+03  0.001835
  1 S  4.57369510E+02  0.014037
  1 S  1.03948690E+02  0.068843
  1 S  2.92101550E+01  0.232184
  1 S  9.28666300E+00  0.467941
  1 S  3.16392700E+00  0.362312
 
  2 S  7.86827240E+00 -0.119332
  2 S  1.88128850E+00 -0.160854
  2 S  5.44249300E-01  1.143456
 
  3 P  7.86827240E+00  0.068999
  3 P  1.88128850E+00  0.316424
  3 P  5.44249300E-01  0.744308
 
  4 S  1.68714400E-01  1.000000
 
  5 P  1.68714400E-01  1.000000
 


 Summary of "ao basis" -> "ao basis" (cartesian)
 ------------------------------------------------------------------------------
       Tag                 Description            Shells   Functions and Types
 ---------------- ------------------------------  ------  ---------------------
 C                           6-31G                   5        9   3s2p




 Summary of "ao basis" -> "ao basis" (cartesian)
 ------------------------------------------------------------------------------
       Tag                 Description            Shells   Functions and Types
 ---------------- ------------------------------  ------  ---------------------
 C                           6-31G                   5        9   3s2p


 
 
                         Geometry "geometry" -> "geometry"
                         ---------------------------------
 
 Output coordinates in angstroms (scale by  1.889725989 to convert to a.u.)
 
  No.       Tag          Charge          X              Y              Z
 ---- ---------------- ---------- -------------- -------------- --------------
    1 C                    6.0000     0.00000000     0.00000000     0.00000000
 
      Atomic Mass 
      ----------- 
 
      C                 12.000000
 

 Effective nuclear repulsion energy (a.u.)       0.0000000000

            Nuclear Dipole moment (a.u.) 
            ----------------------------
        X                 Y               Z
 ---------------- ---------------- ----------------
     0.0000000000     0.0000000000     0.0000000000
 
 
                      Basis "ao basis" -> "ao basis" (cartesian)
                      -----
  C (Carbon)
  ----------
            Exponent  Coefficients 
       -------------- ---------------------------------------------------------
  1 S  3.04752490E+03  0.536334
  1 S  4.57369510E+02  0.989451
  1 S  1.03948690E+02  1.597282
  1 S  2.92101550E+01  2.079187
  1 S  9.28666300E+00  1.774174
  1 S  3.16392700E+00  0.612580
 
  2 S  7.86827240E+00 -0.399556
  2 S  1.88128850E+00 -0.184155
  2 S  5.44249300E-01  0.516390
 
  3 P  7.86827240E+00  1.296083
  3 P  1.88128850E+00  0.993754
  3 P  5.44249300E-01  0.495953
 
  4 S  1.68714400E-01  0.187618
 
  5 P  1.68714400E-01  0.154128
 
 
 
    Basis function labels
    ---------------------
       No.  Atm El Type
       ---  --- -- ----
        1    1 C  s          
        2    1 C  s          
        3    1 C  px         
        4    1 C  py         
        5    1 C  pz         
        6    1 C  s          
        7    1 C  px         
        8    1 C  py         
        9    1 C  pz         

 Schwarz integral screening summary 
 ---------------------------------- 

        No. of atom pairs =       1
       No. of shell pairs =      15

 Atomic screening 

   value      no.     value      no.     value      no.     value      no.   
  -------- ------    -------- ------    -------- ------    -------- ------   
  0.00D+00      0    1.00D-13      0    1.00D-12      0    1.00D-11      0
  1.00D-10      0    1.00D-09      0    1.00D-08      0    1.00D-07      0
  1.00D-06      0    1.00D-05      0    1.00D-04      0    1.00D-03      0
  1.00D-02      0    1.00D-01      0    1.00D+00      1    1.00D+01      0


 Shell screening 

   value      no.     value      no.     value      no.     value      no.   
  -------- ------    -------- ------    -------- ------    -------- ------   
  0.00D+00      0    1.00D-13      0    1.00D-12      0    1.00D-11      0
  1.00D-10      0    1.00D-09      0    1.00D-08      0    1.00D-07      0
  1.00D-06      0    1.00D-05      0    1.00D-04      0    1.00D-03      0
  1.00D-02      0    1.00D-01      5    1.00D+00     10    1.00D+01      0

 
  Caching 1-el integrals 
  atom                      1  - neighbor  & S                      1
   10.0000000000000       exp AB   0.168714400000000     
  0.168714400000000     
 zmins =     0.168714400    0.168714400 lprod =   2 range =         7.76 acc   0.10D-05
 sh     0.000000000
  Center:                      1  Radial Pts. & Wghts. 
    1        0.000022434           3.3870001E-14
    2        0.000179473           8.6716915E-12
    3        0.000605768           2.2231355E-10
    4        0.001436107           2.2219435E-09
    5        0.002805582           1.3256757E-08
    6        0.004849812           5.7084786E-08
    7        0.007705243           1.9632653E-07
    8        0.011509503           5.7291817E-07
    9        0.016401844           1.4751206E-06
   10        0.022523645           3.4417758E-06
   11        0.030019001           7.4172672E-06
   12        0.039035405           1.4974156E-05
   13        0.049724515           2.8625018E-05
   14        0.062243037           5.2250972E-05
   15        0.076753726           9.1682308E-05
   16        0.093426526           1.5547717E-04
   17        0.112439873           2.5595845E-04
   18        0.133982185           4.1058815E-04
   19        0.158253574           6.4378455E-04
   20        0.185467823           9.8932325E-04
   21        0.215854685           1.4935121E-03
   22        0.249662552           2.2193988E-03
   23        0.287161602           3.2523645E-03
   24        0.328647514           4.7075948E-03
   25        0.374445883           6.7401104E-03
   26        0.424917521           9.5583205E-03
   27        0.480464854           1.3442475E-02
   28        0.541539727           1.8769991E-02
   29        0.608652986           2.6050555E-02
   30        0.682386388           3.5975272E-02
   31        0.763407532           4.9486325E-02
   32        0.852488811           6.7877000E-02
   33        0.950531751           9.2937450E-02
   34        1.058598724           1.2717067E-01
   35        1.177954869           1.7411851E-01
   36        1.310124476           2.3886434E-01
   37        1.456968276           3.2882674E-01
   38        1.620791699           4.5504787E-01
   39        1.804500323           6.3435201E-01
   40        2.011829590           8.9309872E-01
   41        2.247695938           1.2740002E+00
   42        2.518755584           1.8491724E+00
   43        2.834338368           2.7467723E+00
   44        3.208106296           4.2099037E+00
   45        3.661237908           6.7410657E+00
   46        4.229211259           1.1509233E+01
   47        4.978533345           2.1750090E+01
   48        6.058512507           4.9378481E+01
   49        7.945576831           1.7346966E+02
     irreducible set of Lebedev Angular points ;
  0.009523809523810  1.000000000000000  0.000000000000000  0.000000000000000
  0.032142857142857  0.577350269189626  0.577350269189626  0.577350269189626
  0.028571428571429  0.459700843380983  0.000000000000000  0.888073833977115
   total no. of   reducible points:  38; test:  1.00000000
  0.012698412698413  1.000000000000000  0.000000000000000  0.000000000000000
  0.022574955908289  0.707106781186547  0.707106781186547  0.000000000000000
  0.021093750000000  0.577350269189626  0.577350269189626  0.577350269189626
  0.020173335537919  0.301511344577764  0.301511344577764  0.904534033733291
   total no. of   reducible points:  50; test:  1.00000000
  0.000513067179734  1.000000000000000  0.000000000000000  0.000000000000000
  0.016604069565742  0.707106781186547  0.707106781186547  0.000000000000000
 -0.029586038961039  0.577350269189626  0.577350269189626  0.577350269189626
  0.026576207082159  0.480384461415261  0.480384461415261  0.733799385705343
  0.016522170993716  0.320772648980776  0.000000000000000  0.947156221362588
   total no. of   reducible points:  74; test:  1.00000000
  0.011544011544012  1.000000000000000  0.000000000000000  0.000000000000000
  0.011943909085856  0.577350269189626  0.577350269189626  0.577350269189626
  0.011110555710603  0.369602846454150  0.369602846454150  0.852518311701268
  0.011876501294537  0.694354006602666  0.694354006602666  0.189063552885395
  0.011812303746904  0.374243039090341  0.000000000000000  0.927330657151172
   total no. of   reducible points:  86; test:  1.00000000
  0.003828270494937  1.000000000000000  0.000000000000000  0.000000000000000
  0.009793737512488  0.577350269189626  0.577350269189626  0.577350269189626
  0.008211737283191  0.185115635344736  0.185115635344736  0.965124035086594
  0.009942814891178  0.690421048382292  0.690421048382292  0.215957291845848
  0.009595471336071  0.395689473055942  0.395689473055942  0.828769981252592
  0.009694996361663  0.478369028812150  0.000000000000000  0.878158910604066
   total no. of   reducible points: 110; test:  1.00000000
  0.000599631368862  1.000000000000000  0.000000000000000  0.000000000000000
  0.007372999718621  0.707106781186547  0.707106781186547  0.000000000000000
  0.007210515360144  0.577350269189626  0.577350269189626  0.577350269189626
  0.007116355493118  0.676441040011426  0.676441040011426  0.291298882209527
  0.006753829486314  0.417496122796545  0.417496122796545  0.807089818359583
  0.007574394159054  0.157467667203908  0.157467667203908  0.974888643677173
  0.006991087353303  0.140355381171318  0.449332832326956  0.882270011260323
   total no. of   reducible points: 146; test:  1.00000000
  0.005544842902037  1.000000000000000  0.000000000000000  0.000000000000000
  0.006071332770671  0.707106781186547  0.707106781186547  0.000000000000000
  0.006383674773515  0.577350269189626  0.577350269189626  0.577350269189626
  0.005183387587748  0.255125262111413  0.255125262111413  0.932642590312691
  0.006317929009814  0.674360146036277  0.674360146036277  0.300793595137701
  0.006201670006589  0.431891069671941  0.431891069671941  0.791795559393492
  0.005477143385137  0.261393136033599  0.000000000000000  0.965232421976448
  0.005968383987681  0.499045316179604  0.144663074432512  0.854415804684659
   total no. of   reducible points: 170; test:  1.00000000
  0.001782340447245  1.000000000000000  0.000000000000000  0.000000000000000
  0.005716905949977  0.707106781186547  0.707106781186547  0.000000000000000
  0.005573383178849  0.577350269189626  0.577350269189626  0.577350269189626
  0.005608704082588  0.671297344269523  0.671297344269523  0.314196994182586
  0.005158237711805  0.289246562757544  0.289246562757544  0.912509096867474
  0.005518771467274  0.444693317871744  0.444693317871744  0.777493219314767
  0.004106777028169  0.129933544765007  0.129933544765007  0.982972302707253
  0.005051846064615  0.345770219761128  0.000000000000000  0.938319218137592
  0.005530248916233  0.159041710538353  0.836036015482459  0.525118572443642
   total no. of   reducible points: 194; test:  1.00000000
 -0.055226399197273  1.000000000000000  0.000000000000000  0.000000000000000
  0.004450274607445  0.577350269189626  0.577350269189626  0.577350269189626
  0.004496841067921  0.449204468739761  0.449204468739761  0.772289253148364
  0.005049153450479  0.252041949021020  0.252041949021020  0.934317778845812
  0.003976408018052  0.698190665844724  0.698190665844724  0.158302205463478
  0.004401400650381  0.658740524346096  0.658740524346096  0.363485684956727
  0.017245443505444  0.040385440500977  0.040385440500977  0.998367683967727
  0.004231083095357  0.582384230971558  0.000000000000000  0.812913653173365
  0.005198069864064  0.354587739051869  0.000000000000000  0.935022745880593
  0.004695720972569  0.227218180899819  0.486466153588665  0.843636521068894
   total no. of   reducible points: 230; test:  1.00000000
 -0.001313769127327  1.000000000000000  0.000000000000000  0.000000000000000
 -0.002522728704859  0.707106781186547  0.707106781186547  0.000000000000000
  0.004186853881701  0.577350269189626  0.577350269189626  0.577350269189626
  0.005315167977811  0.703937339158548  0.703937339158548  0.094575076403713
  0.004047142377086  0.101252624857241  0.101252624857241  0.989694807462905
  0.004112482394407  0.464744872642054  0.464744872642054  0.753673939250816
  0.003595584899759  0.327742065497163  0.327742065497163  0.886098344997499
  0.004256131351428  0.662033866369997  0.662033866369997  0.351315128564633
  0.004229582700647  0.850650808352040  0.000000000000000  0.525731112119134
  0.004080914225781  0.323348454269290  0.115311201100970  0.939227929749916
  0.004071467593831  0.231479015871260  0.524493924092236  0.819343388819120
   total no. of   reducible points: 266; test:  1.00000000
  0.000854591172513  1.000000000000000  0.000000000000000  0.000000000000000
  0.003599119285026  0.577350269189626  0.577350269189626  0.577350269189626
  0.003449788424306  0.351564034557011  0.351564034557011  0.867643624544083
  0.003604822601420  0.656632941021961  0.656632941021961  0.371034178384821
  0.003576729661743  0.472905413258100  0.472905413258100  0.743452042987556
  0.002352101413689  0.096183085226148  0.096183085226148  0.990705621379408
  0.003108953122414  0.221964523629418  0.221964523629418  0.949454317226443
  0.003650045807677  0.701176641608955  0.701176641608955  0.129238672710514
  0.002982344963172  0.264415288706066  0.000000000000000  0.964408914879206
  0.003600820932216  0.571895589187896  0.000000000000000  0.820326419827759
  0.003571540554273  0.251003475177047  0.800072749407395  0.544867737258077
  0.003392312205006  0.123354853258333  0.412772408316853  0.902442529533000
   total no. of   reducible points: 302; test:  1.00000000
  0.003006796749454  1.000000000000000  0.000000000000000  0.000000000000000
  0.003050627745651  0.577350269189626  0.577350269189626  0.577350269189626
  0.001621104600289  0.706896546391232  0.706896546391232  0.024383301669356
  0.003005701484902  0.479468262571203  0.479468262571203  0.734996850587746
  0.002990992529654  0.192753315487802  0.192753315487802  0.962129055136014
  0.002982170644108  0.693035796132712  0.693035796132712  0.198501311223365
  0.002721564237311  0.360830211552009  0.360830211552009  0.860001812127547
  0.003033513795811  0.649848616149617  0.649848616149617  0.394199888605839
  0.003007949555219  0.193294501323034  0.000000000000000  0.981140782843257
  0.002881964603055  0.380049491989930  0.000000000000000  0.924966152698679
  0.002958357626536  0.289955882549957  0.793453785658232  0.535123047718276
  0.003036020026407  0.096841214551040  0.828080150668686  0.552182074349399
  0.002832187403926  0.183343464704166  0.907465826530513  0.378009189874487
   total no. of   reducible points: 350; test:  1.00000000
  0.000526589796822  1.000000000000000  0.000000000000000  0.000000000000000
  0.002548219972003  0.707106781186547  0.707106781186547  0.000000000000000
  0.002512317418927  0.577350269189626  0.577350269189626  0.577350269189626
  0.002530403801186  0.690934630750911  0.690934630750911  0.212646824707552
  0.002014279020919  0.177483605460916  0.177483605460916  0.967987158791473
  0.002501725168403  0.491434263778475  0.491434263778475  0.719016501040843
  0.002513267174598  0.645666470742426  0.645666470742426  0.407712664897770
  0.002302694782227  0.286128901030764  0.286128901030764  0.914472801120872
  0.001462495621595  0.075680843671780  0.075680843671780  0.994255912631278
  0.002445373437313  0.392725976336800  0.392725976336800  0.831584400419232
  0.002417442375639  0.881813287779429  0.000000000000000  0.471598691151316
  0.001910951282180  0.977642811118265  0.000000000000000  0.210272522857307
  0.002416930044325  0.205482369640304  0.868946032287241  0.450233038258263
  0.002512236854563  0.590515704892527  0.799927854385729  0.106801826075805
  0.002496644054553  0.555015236107681  0.771746262691590  0.310428403516654
  0.002236607760438  0.937180985855372  0.334436314534346  0.099217696364292
   total no. of   reducible points: 434; test:  1.00000000
  qrot: 

              1        2        3      
    1    1.0000   0.0000   0.0000
    2    0.0000   1.0000   0.0000
    3    0.0000   0.0000   1.0000
  me                      0   done genpts
  me                      1   done genpts
  me                      2   done genpts
  me                      4   done genpts
  me                      5   done genpts
  me                      6   done genpts
  me                      7   done genpts
  me                     10   done genpts
  me                     11   done genpts
  me                     14   done genpts
  me                     15   done genpts
  me                      9   done genpts
  me                     12   done genpts
  me                     13   done genpts
  me                      3   done genpts
  me                      8   done genpts
  me                      0   done uprt
  me                      1   done uprt
  me                      2   done uprt
  me                      3   done uprt
  me                      4   done uprt
  me                      5   done uprt
  me                      6   done uprt
  me                      7   done uprt
  me                      8   done uprt
  me                      9   done uprt
  me                     10   done uprt
  me                     11   done uprt
  me                     12   done uprt
  me                     13   done uprt
  me                     14   done uprt
  me                     15   done uprt
  me                      0  done mem
  me                      1  done mem
  me                      2  done mem
  me                      3  done mem
  me                      4  done mem
  me                      5  done mem
  me                      6  done mem
  me                      7  done mem
  me                      8  done mem
  me                      9  done mem
  me                     10  done mem
  me                     11  done mem
  me                     12  done mem
  me                     13  done mem
  me                     14  done mem
  me                     15  done mem
  itol2e modified to match energy
  convergence criterion.
  tol_rho modified to match energy
  convergence criterion.
  dftinpanae: itol2e                      9  iaoacc                     18 
  tol_rho   1.000000000000000E-011
 
            General Information
            -------------------
          SCF calculation type: DFT
          Wavefunction type:  spin polarized.
          No. of atoms     :     1
          No. of electrons :     6
           Alpha electrons :     3
            Beta electrons :     3
          Charge           :     0
          Spin multiplicity:     1
          Use of symmetry is: off; symmetry adaption is: off
          Maximum number of iterations:  30
          This is a Direct SCF calculation.
          AO basis - number of functions:     9
                     number of shells:     5
          Convergence on energy requested:  1.00D-08
          Convergence on density requested:  1.00D-05
          Convergence on gradient requested:  5.00D-04
 
              XC Information
              --------------
                         PBE0 Method XC Functional
                     Hartree-Fock (Exact) Exchange  0.250          
          PerdewBurkeErnzerhof Exchange Functional  0.750          
            Perdew 1991 LDA Correlation Functional  1.000 local    
           PerdewBurkeErnz. Correlation Functional  1.000 non-local
 
             Grid Information
             ----------------
          Grid used for XC integration:  medium    
          Radial quadrature: Mura-Knowles        
          Angular quadrature: Lebedev. 
          Tag              B.-S. Rad. Rad. Pts. Rad. Cut. Ang. Pts.
          ---              ---------- --------- --------- ---------
          C                   0.70       49           4.0       434
          Grid pruning is: on 
          Number of quadrature shells:    49
          Spatial weights used:  Erf1
 
          Convergence Information
          -----------------------
          Convergence aids based upon iterative change in 
          total energy or number of iterations. 
          Levelshifting, if invoked, occurs when the 
          HOMO/LUMO gap drops below (HL_TOL):  1.00D-02
          DIIS, if invoked, will attempt to extrapolate 
          using up to (NFOCK): 10 stored Fock matrices.

                    Damping( 0%)  Levelshifting(0.5)       DIIS
                  --------------- ------------------- ---------------
          dE  on:    start            ASAP                start   
          dE off:    2 iters         30 iters            30 iters 

 
      Screening Tolerance Information
      -------------------------------
          Density screening/tol_rho:  1.00D-11
          AO Gaussian exp screening on grid/accAOfunc:  18
          CD Gaussian exp screening on grid/accCDfunc:  20
          XC Gaussian exp screening on grid/accXCfunc:  20
          Schwarz screening/accCoul:  1.00D-09

 
 
                         Geometry "geometry" -> "geometry"
                         ---------------------------------
 
 Output coordinates in angstroms (scale by  1.889725989 to convert to a.u.)
 
  No.       Tag          Charge          X              Y              Z
 ---- ---------------- ---------- -------------- -------------- --------------
    1 C                    6.0000     0.00000000     0.00000000     0.00000000
 
      Atomic Mass 
      ----------- 
 
      C                 12.000000
 

 Effective nuclear repulsion energy (a.u.)       0.0000000000

            Nuclear Dipole moment (a.u.) 
            ----------------------------
        X                 Y               Z
 ---------------- ---------------- ----------------
     0.0000000000     0.0000000000     0.0000000000
 


     <<<<<<    Before call to DFT_SCF.    >>>>>>
     <<<<<< date:  Oct 24  time: 14:42:33 >>>>>>


 Setting tolerance for linear dependence to 1.00D-05

 Setting tolerance for linear dependence to 1.00D-05

 Setting tolerance for linear dependence to 1.00D-05

 Setting tolerance for linear dependence to 1.00D-05

 Setting tolerance for linear dependence to 1.00D-05

 Setting tolerance for linear dependence to 1.00D-05

 Setting tolerance for linear dependence to 1.00D-05

 Setting tolerance for linear dependence to 1.00D-05

 Setting tolerance for linear dependence to 1.00D-05

 Setting tolerance for linear dependence to 1.00D-05

 Setting tolerance for linear dependence to 1.00D-05

 Setting tolerance for linear dependence to 1.00D-05

 Setting tolerance for linear dependence to 1.00D-05

 Setting tolerance for linear dependence to 1.00D-05

 Setting tolerance for linear dependence to 1.00D-05

 Setting tolerance for linear dependence to 1.00D-05
  lindep tolerance =   1.000000000000000E-005
  lindep tolerance =   1.000000000000000E-005
  lindep tolerance =   1.000000000000000E-005
  lindep tolerance =   1.000000000000000E-005
  lindep tolerance =   1.000000000000000E-005
  lindep tolerance =   1.000000000000000E-005
  lindep tolerance =   1.000000000000000E-005
  lindep tolerance =   1.000000000000000E-005
  lindep tolerance =   1.000000000000000E-005
  lindep tolerance =   1.000000000000000E-005
  lindep tolerance =   1.000000000000000E-005
  lindep tolerance =   1.000000000000000E-005
  lindep tolerance =   1.000000000000000E-005
  lindep tolerance =   1.000000000000000E-005
  lindep tolerance =   1.000000000000000E-005
  lindep tolerance =   1.000000000000000E-005


     <<<<<<    Before 3c-2e initialize.   >>>>>>
     <<<<<< date:  Oct 24  time: 14:42:33 >>>>>>


 Setting fock-build task_bf   :      -1
                    maxquartet:   10000
                    maxeri    :  129600
                    maxscr    :       0
                    intacc    : 0.0D+00
                    denscreen : T
                    dentol    : 1.0D-06

 
      Superposition of Atomic Density Guess
      -------------------------------------
 
 Sum of atomic energies:         -37.66025415
 
      Non-variational initial energy
      ------------------------------

 Total energy =     -37.298070
 1-e energy   =     -50.455020
 2-e energy   =      13.156950
 HOMO         =      -0.057689
 LUMO         =      -0.057689
 

 Setting fock-build task_bf   :      -1
                    maxquartet:   10000
                    maxeri    :  129600
                    maxscr    :       0
                    intacc    : 0.0D+00
                    denscreen : T
                    dentol    : 1.0D-06


 Wrote molecular orbitals to ./carbon_fon.movecs

   Time after variat. SCF:      0.1
     FON applied
     tr(P*S):    30.000000E-01
             alpha eigenvalues
             -----------------
      (all occupied plus 10 virtual)
      ------------------------------

              1      
    1  -11.3231
    2   -0.6996
    3   -0.0577
    4   -0.0577
    5   -0.0577
    6    0.7816
    7    0.7816
    8    0.7816
    9    0.7948
                alpha foccs
                -----------

              1      
    1    0.5000
    2    0.5000
    3    1.0000
    4    1.0000
 
             beta eigenvalues
             ----------------

              1      
    1  -11.3231
    2   -0.6996
    3   -0.0577
    4   -0.0577
    5   -0.0577
    6    0.7816
    7    0.7816
    8    0.7816
    9    0.7948
                beta foccs
                ----------

              1      
    1    0.5000
    2    0.5000
    3    1.0000
    4    1.0000
 
                              Intermediate MO vectors
                              -----------------------
 

 global array: alpha evecs[1:9,1:9],  handle: -995 

            1           2           3           4           5           6  
       ----------- ----------- ----------- ----------- ----------- -----------
   1       0.99657    -0.22704    -0.00000    -0.00000    -0.00000     0.00000
   2       0.01951     0.46981     0.00000     0.00000    -0.00000    -0.00000
   3       0.00000    -0.00000     0.05325    -0.08409     0.52126    -0.09825
   4       0.00000    -0.00000     0.00529     0.52396     0.08399    -0.00124
   5       0.00000    -0.00000     0.52797     0.00323    -0.05341     1.09059
   6      -0.00519     0.60357     0.00000    -0.00000     0.00000     0.00000
   7       0.00000    -0.00000     0.05996    -0.09469     0.58693     0.09511
   8      -0.00000     0.00000     0.00596     0.58997     0.09457     0.00120
   9       0.00000    -0.00000     0.59449     0.00364    -0.06014    -1.05572

            7           8           9  
       ----------- ----------- -----------
   1      -0.00000     0.00000    -0.07644
   2       0.00000    -0.00000     1.66191
   3       0.81904    -0.72010    -0.00000
   4       0.72293     0.82243    -0.00000
   5       0.07461    -0.06394     0.00000
   6      -0.00000     0.00000    -1.60480
   7      -0.79286     0.69708     0.00000
   8      -0.69982    -0.79614     0.00000
   9      -0.07223     0.06189    -0.00000

 global array: beta evecs[1:9,1:9],  handle: -990 

            1           2           3           4           5           6  
       ----------- ----------- ----------- ----------- ----------- -----------
   1       0.99657    -0.22704    -0.00000    -0.00000    -0.00000     0.00000
   2       0.01951     0.46981     0.00000     0.00000    -0.00000    -0.00000
   3       0.00000    -0.00000     0.05325    -0.08409     0.52126    -0.09825
   4       0.00000    -0.00000     0.00529     0.52396     0.08399    -0.00124
   5       0.00000    -0.00000     0.52797     0.00323    -0.05341     1.09059
   6      -0.00519     0.60357     0.00000    -0.00000     0.00000     0.00000
   7       0.00000    -0.00000     0.05996    -0.09469     0.58693     0.09511
   8      -0.00000     0.00000     0.00596     0.58997     0.09457     0.00120
   9       0.00000    -0.00000     0.59449     0.00364    -0.06014    -1.05572

            7           8           9  
       ----------- ----------- -----------
   1      -0.00000     0.00000    -0.07644
   2       0.00000    -0.00000     1.66191
   3       0.81904    -0.72010    -0.00000
   4       0.72293     0.82243    -0.00000
   5       0.07461    -0.06394     0.00000
   6      -0.00000     0.00000    -1.60480
   7      -0.79286     0.69708     0.00000
   8      -0.69982    -0.79614     0.00000
   9      -0.07223     0.06189    -0.00000

 Setting fock-build task_bf   :      -1
                    maxquartet:   10000
                    maxeri    :  129600
                    maxscr    :       0
                    intacc    : 0.0D+00
                    denscreen : T
                    dentol    : 1.0D-06

   Time prior to 1st pass:      0.2


     <<<<<<      Before SCF iter loop.    >>>>>>
     <<<<<< date:  Oct 24  time: 14:42:33 >>>>>>

           DAMPING=T LEVELSHIFTING=T DIISING=T
          itol2e= 7 iAOacc=12 iXCacc=20
     FON applied
     tr(P*S):    0.6000000E+01


     <<<<<<            calling 1-e int    >>>>>>
     <<<<<< date:  Oct 24  time: 14:42:33 >>>>>>

    Kinetic Matrix Time:          0.0s

           Kinetic energy =     21.607911869289

    Potential Matrix Time:          0.0s


     <<<<<<    Before call to GETVCOUL.   >>>>>>
     <<<<<< date:  Oct 24  time: 14:42:33 >>>>>>



     <<<<<<    Before call to GETVXC.     >>>>>>
     <<<<<< date:  Oct 24  time: 14:42:33 >>>>>>



     <<<<<<    Before call to fock_2e.    >>>>>>
     <<<<<< date:  Oct 24  time: 14:42:33 >>>>>>



     <<<<<<     After call to fock_2e.    >>>>>>
     <<<<<< date:  Oct 24  time: 14:42:33 >>>>>>

    Fock_2e Build Time:          0.0s
  *** grid_quadv0:                    calc_type:                     1
  *** grid_quadv0:                    grid_written: F
  *** grid_quadv0:                    grad: T
  *** grid_quadv0:                    kske: F
  *** grid_quadv0:                    do_scf: T
  *** grid_quadv0:                    fde_option:                     0
  *** grid_quadv0:                    n_per_rec:                  3070
  *** grid_quadv0:                    calc_type:                     1
  *** grid_quadv0:                    grid_written: F
  *** grid_quadv0:                    grad: T
  *** grid_quadv0:                    kske: F
  *** grid_quadv0:                    do_scf: T
  *** grid_quadv0:                    fde_option:                     0
  *** grid_quadv0:                    n_per_rec:                  3070
  *** grid_quadv0:                    calc_type:                     1
  *** grid_quadv0:                    grid_written: F
  *** grid_quadv0:                    grad: T
  *** grid_quadv0:                    kske: F
  *** grid_quadv0:                    do_scf: T
  *** grid_quadv0:                    fde_option:                     0
  *** grid_quadv0:                    n_per_rec:                  3070
  *** grid_quadv0:                    calc_type:                     1
  *** grid_quadv0:                    grid_written: F
  *** grid_quadv0:                    grad: T
  *** grid_quadv0:                    kske: F
  *** grid_quadv0:                    do_scf: T
  *** grid_quadv0:                    fde_option:                     0
  *** grid_quadv0:                    n_per_rec:                  3070
  *** grid_quadv0:                    calc_type:                     1
  *** grid_quadv0:                    grid_written: F
  *** grid_quadv0:                    grad: T
  *** grid_quadv0:                    kske: F
  *** grid_quadv0:                    do_scf: T
  *** grid_quadv0:                    fde_option:                     0
  *** grid_quadv0:                    n_per_rec:                  3070
  *** grid_quadv0:                    calc_type:                     1
  *** grid_quadv0:                    grid_written: F
  *** grid_quadv0:                    grad: T
  *** grid_quadv0:                    kske: F
  *** grid_quadv0:                    do_scf: T
  *** grid_quadv0:                    fde_option:                     0
  *** grid_quadv0:                    n_per_rec:                  3070
  *** grid_quadv0:                    calc_type:                     1
  *** grid_quadv0:                    grid_written: F
  *** grid_quadv0:                    grad: T
  *** grid_quadv0:                    kske: F
  *** grid_quadv0:                    do_scf: T
  *** grid_quadv0:                    fde_option:                     0
  *** grid_quadv0:                    n_per_rec:                  3070
  *** grid_quadv0:                    calc_type:                     1
  *** grid_quadv0:                    calc_type:                     1
  *** grid_quadv0:                    grid_written: F
  *** grid_quadv0:                    grad: T
  *** grid_quadv0:                    kske: F
  *** grid_quadv0:                    do_scf: T
  *** grid_quadv0:                    fde_option:                     0
  *** grid_quadv0:                    n_per_rec:                  3070
  *** grid_quadv0:                    calc_type:                     1
  *** grid_quadv0:                    grid_written: F
  *** grid_quadv0:                    grad: T
  *** grid_quadv0:                    kske: F
  *** grid_quadv0:                    do_scf: T
  *** grid_quadv0:                    fde_option:                     0
  *** grid_quadv0:                    n_per_rec:                  3070
  *** grid_quadv0:                    calc_type:                     1
  *** grid_quadv0:                    grid_written: F
  *** grid_quadv0:                    grad: T
  *** grid_quadv0:                    kske: F
  *** grid_quadv0:                    do_scf: T
  *** grid_quadv0:                    fde_option:                     0
  *** grid_quadv0:                    n_per_rec:                  3070
  *** grid_quadv0:                    calc_type:                     1
  *** grid_quadv0:                    grid_written: F
  *** grid_quadv0:                    grad: T
  *** grid_quadv0:                    kske: F
  *** grid_quadv0:                    do_scf: T
  *** grid_quadv0:                    fde_option:                     0
  *** grid_quadv0:                    n_per_rec:                  3070
  *** grid_quadv0:                    calc_type:                     1
  *** grid_quadv0:                    grid_written: F
  *** grid_quadv0:                    grad: T
  *** grid_quadv0:                    kske: F
  *** grid_quadv0:                    do_scf: T
  *** grid_quadv0:                    fde_option:                     0
  *** grid_quadv0:                    n_per_rec:                  3070
  *** grid_quadv0:                    calc_type:                     1
  *** grid_quadv0:                    grid_written: F
  *** grid_quadv0:                    grad: T
  *** grid_quadv0:                    kske: F
  *** grid_quadv0:                    do_scf: T
  *** grid_quadv0:                    fde_option:                     0
  *** grid_quadv0:                    n_per_rec:                  3070
  *** grid_quadv0:                    calc_type:                     1
  *** grid_quadv0:                    grid_written: F
  *** grid_quadv0:                    grad: T
  *** grid_quadv0:                    kske: F
  *** grid_quadv0:                    do_scf: T
  *** grid_quadv0:                    fde_option:                     0
  *** grid_quadv0:                    n_per_rec:                  3070
  *** grid_quadv0:                    calc_type:                     1
  *** grid_quadv0:                    grid_written: F
  *** grid_quadv0:                    grad: T
  *** grid_quadv0:                    kske: F
  *** grid_quadv0:                    do_scf: T
  *** grid_quadv0:                    fde_option:                     0
  *** grid_quadv0:                    n_per_rec:                  3070
  *** grid_quadv0:                    grid_written: F
  *** grid_quadv0:                    grad: T
  *** grid_quadv0:                    kske: F
  *** grid_quadv0:                    do_scf: T
  *** grid_quadv0:                    fde_option:                     0
  *** grid_quadv0:                    n_per_rec:                  3070
  going xcreplicated 
   0: nuse=  19(  19.2) avail=117354470Mb (out of117354470Mb) on .
   1: nuse=  19(  19.2) avail=117354470Mb (out of117354470Mb) on .
   2: nuse=  19(  19.2) avail=117354470Mb (out of117354470Mb) on .
   3: nuse=  19(  19.2) avail=117354470Mb (out of117354470Mb) on .
   4: nuse=  19(  19.2) avail=117354470Mb (out of117354470Mb) on .
   6: nuse=  19(  19.2) avail=117354470Mb (out of117354470Mb) on .
   7: nuse=  19(  19.2) avail=117354470Mb (out of117354470Mb) on .
   8: nuse=  19(  19.2) avail=117354470Mb (out of117354470Mb) on .
   9: nuse=  19(  19.2) avail=117354470Mb (out of117354470Mb) on .
  10: nuse=  19(  19.2) avail=117354470Mb (out of117354470Mb) on .
  11: nuse=  19(  19.2) avail=117354470Mb (out of117354470Mb) on .
  12: nuse=  19(  19.2) avail=117354470Mb (out of117354470Mb) on .
  13: nuse=  19(  19.2) avail=117354470Mb (out of117354470Mb) on .
  14: nuse=  19(  19.2) avail=117354470Mb (out of117354470Mb) on .
  15: nuse=  19(  19.2) avail=117354470Mb (out of117354470Mb) on .
   5: nuse=  19(  19.2) avail=117354470Mb (out of117354470Mb) on .
 l_cube input   11.00

  atom type   l_cube   no. cubes   segmts   rad   sub
 ----------- -------- ----------- -------- ----- -----
        1      5.33        34         3       8     8
 me   0 NQTOTC NQ/cube    1186    1186
 me   1 NQTOTC NQ/cube    1001    1001
 me   2 NQTOTC NQ/cube    1048     524
 me   3 NQTOTC NQ/cube    1101     550
 me   4 NQTOTC NQ/cube    1048     524
 me   5 NQTOTC NQ/cube     873     436
 me   6 NQTOTC NQ/cube     905     452
 me   7 NQTOTC NQ/cube     772     386
 me   8 NQTOTC NQ/cube      77      25
 me   9 NQTOTC NQ/cube     109      36
 me  10 NQTOTC NQ/cube     258     129
 me  11 NQTOTC NQ/cube     141      47
 me  12 NQTOTC NQ/cube     486     243
 me  13 NQTOTC NQ/cube     290     145
 me  14 NQTOTC NQ/cube     258     129
 me  15 NQTOTC NQ/cube     109      36

 Grid_pts file          = ./carbon_fon.gridpts.00
 Record size in doubles =  12289        No. of grid_pts per rec  =   3070
 Max. records in memory =      2        Max. recs in file   = *********

 
 XC quadr. integrated density :       5.999999 npts:     9562 nctrs:        1
 
    Fock_xc Build Time:          0.2s


     <<<<<<    End of parallel region.    >>>>>>
     <<<<<< date:  Oct 24  time: 14:42:35 >>>>>>

    Total Fock Matrix Build Time:          0.2s
 Etnew, Ecore, Ecoul, Exc(1), Exc(2), Totsic:   -26.0211122212612     
  -34.6009938361493        11.7159204507144       -3.13603883582623     
  0.000000000000000E+000  0.000000000000000E+000
  delta =   -26.0211122212612     


         Total DFT energy =    -26.021112221261
      One electron energy =    -34.600993836149
           Coulomb energy =     11.715920450714
    Exchange-Corr. energy =     -3.136038835826
 Nuclear repulsion energy =      0.000000000000

 Numeric. integr. density =      5.999998667705

     Total iterative time =      0.4s


  delta =   -26.0211122212612     
  delta =   -26.0211122212612     
  delta =   -26.0211122212612     
  delta =   -26.0211122212612     


     <<<<<<        calling diis driver    >>>>>>
     <<<<<< date:  Oct 24  time: 14:42:35 >>>>>>

  delta =   -26.0211122212612     
  delta =   -26.0211122212612     
  delta =   -26.0211122212612     
  delta =   -26.0211122212612     
  delta =   -26.0211122212612     
  delta =   -26.0211122212612     
  delta =   -26.0211122212612     
  delta =   -26.0211122212612     
  delta =   -26.0211122212612     
  delta =   -26.0211122212612     
  delta =   -26.0211122212612     


     <<<<<<         called diis driver    >>>>>>
     <<<<<< date:  Oct 24  time: 14:42:35 >>>>>>


 global array: fock transf[1:9,1:9],  handle: -940 

            1           2           3           4           5           6  
       ----------- ----------- ----------- ----------- ----------- -----------
   1     -12.69672     0.21028     0.00000    -0.00000     0.00000    -0.00000
   2       0.21028    -0.88852    -0.00000    -0.00000    -0.00000     0.00000
   3       0.00000    -0.00000    -0.50821     0.00000     0.00000    -0.33441
   4      -0.00000    -0.00000     0.00000    -0.50821     0.00000    -0.00653
   5       0.00000    -0.00000     0.00000     0.00000    -0.42874     0.05998
   6      -0.00000     0.00000    -0.33441    -0.00653     0.05998     0.13462
   7       0.00000    -0.00000    -0.05089    -0.18178    -0.26478     0.00084
   8      -0.00000     0.00000     0.03971    -0.28794     0.16581    -0.00052
   9       0.17900    -0.24386    -0.00000     0.00000     0.00000    -0.00000

            7           8           9  
       ----------- ----------- -----------
   1       0.00000    -0.00000     0.17900
   2      -0.00000     0.00000    -0.24386
   3      -0.05089     0.03971    -0.00000
   4      -0.18178    -0.28794     0.00000
   5      -0.26478     0.16581     0.00000
   6       0.00084    -0.00052    -0.00000
   7       0.13111     0.00231     0.00000
   8       0.00231     0.13336    -0.00000
   9       0.00000    -0.00000     0.32266


     <<<<<<               calling diag    >>>>>>
     <<<<<< date:  Oct 24  time: 14:42:35 >>>>>>



     <<<<<<                called diag    >>>>>>
     <<<<<< date:  Oct 24  time: 14:42:35 >>>>>>

    Diagonalization Time:          0.0s
           HOMO =  -0.655 LUMO =  -0.655 RLSHIFT =   0.000 HL_GAP =   0.000

 global array: fock transf[1:9,1:9],  handle: -940 

            1           2           3           4           5           6  
       ----------- ----------- ----------- ----------- ----------- -----------
   1     -12.69672     0.21028     0.00000    -0.00000     0.00000    -0.00000
   2       0.21028    -0.88852    -0.00000    -0.00000    -0.00000     0.00000
   3       0.00000    -0.00000    -0.50821     0.00000     0.00000    -0.33441
   4      -0.00000    -0.00000     0.00000    -0.50821     0.00000    -0.00653
   5       0.00000    -0.00000     0.00000     0.00000    -0.42874     0.05998
   6      -0.00000     0.00000    -0.33441    -0.00653     0.05998     0.13462
   7       0.00000    -0.00000    -0.05089    -0.18178    -0.26478     0.00084
   8      -0.00000     0.00000     0.03971    -0.28794     0.16581    -0.00052
   9       0.17900    -0.24386    -0.00000     0.00000     0.00000    -0.00000

            7           8           9  
       ----------- ----------- -----------
   1       0.00000    -0.00000     0.17900
   2      -0.00000     0.00000    -0.24386
   3      -0.05089     0.03971    -0.00000
   4      -0.18178    -0.28794     0.00000
   5      -0.26478     0.16581     0.00000
   6       0.00084    -0.00052    -0.00000
   7       0.13111     0.00231     0.00000
   8       0.00231     0.13336    -0.00000
   9       0.00000    -0.00000     0.32266


     <<<<<<               calling diag    >>>>>>
     <<<<<< date:  Oct 24  time: 14:42:35 >>>>>>



     <<<<<<                called diag    >>>>>>
     <<<<<< date:  Oct 24  time: 14:42:35 >>>>>>

    Diagonalization Time:          0.0s
           HOMO =  -0.655 LUMO =  -0.655 RLSHIFT =   0.000 HL_GAP =   0.000


     <<<<<<              calling densm    >>>>>>
     <<<<<< date:  Oct 24  time: 14:42:35 >>>>>>



     <<<<<<               called densm    >>>>>>
     <<<<<< date:  Oct 24  time: 14:42:35 >>>>>>


           Memory utilization after 1st SCF pass: 
           Heap Space remaining (MW):       13.08            13081572
          Stack Space remaining (MW):       13.11            13107004

   convergence    iter        energy       DeltaE   RMS-Dens  Diis-err    time
 ---------------- ----- ----------------- --------- --------- ---------  ------
 d= 0,ls=0.0,diis     1    -26.0211122213 -2.60D+01  1.16D-01  5.10D-01     0.4
                                                     1.16D-01  5.10D-01

 Wrote molecular orbitals to ./carbon_fon.movecs

             alpha eigenvalues
             -----------------
      (all occupied plus 10 virtual)
      ------------------------------

              1      
    1  -12.7030
    2   -0.9309
    3   -0.6551
    4   -0.6551
    5   -0.5728
    6    0.2736
    7    0.2817
    8    0.2817
    9    0.3713
                alpha foccs
                -----------

              1      
    1    0.5000
    2    0.5000
    3    1.0000
    4    1.0000
 
             beta eigenvalues
             ----------------

              1      
    1  -12.7030
    2   -0.9309
    3   -0.6551
    4   -0.6551
    5   -0.5728
    6    0.2736
    7    0.2817
    8    0.2817
    9    0.3713
                beta foccs
                ----------

              1      
    1    0.5000
    2    0.5000
    3    1.0000
    4    1.0000
 
                              Intermediate MO vectors
                              -----------------------
 

 global array: alpha evecs[1:9,1:9],  handle: -995 

            1           2           3           4           5           6  
       ----------- ----------- ----------- ----------- ----------- -----------
   1      -1.00149    -0.21698    -0.00000     0.00000    -0.00000     0.00000
   2       0.01239     0.77435     0.00000    -0.00000    -0.00000     0.00000
   3      -0.00000     0.00000     0.14647    -0.09157     0.91860    -0.76468
   4      -0.00000     0.00000    -0.90914    -0.01434     0.14803    -0.12317
   5      -0.00000    -0.00000    -0.00041    -0.91619    -0.09413     0.07836
   6      -0.00649     0.29068     0.00000     0.00000     0.00000    -0.00000
   7       0.00000    -0.00000     0.02052    -0.01283     0.10504     1.19061
   8       0.00000    -0.00000    -0.12736    -0.00201     0.01693     0.19177
   9      -0.00000    -0.00000    -0.00006    -0.12835    -0.01076    -0.12201

            7           8           9  
       ----------- ----------- -----------
   1       0.00000    -0.00000     0.02192
   2      -0.00000    -0.00000    -1.54378
   3      -0.12698    -0.07825    -0.00000
   4       0.78518    -0.01766    -0.00000
   5      -0.00497    -0.79134     0.00000
   6       0.00000     0.00000     1.68972
   7       0.19316     0.11904     0.00000
   8      -1.19442     0.02687     0.00000
   9       0.00756     1.20379    -0.00000

 global array: beta evecs[1:9,1:9],  handle: -990 

            1           2           3           4           5           6  
       ----------- ----------- ----------- ----------- ----------- -----------
   1      -1.00149    -0.21698    -0.00000     0.00000    -0.00000     0.00000
   2       0.01239     0.77435     0.00000    -0.00000    -0.00000     0.00000
   3      -0.00000     0.00000     0.14647    -0.09157     0.91860    -0.76468
   4      -0.00000     0.00000    -0.90914    -0.01434     0.14803    -0.12317
   5      -0.00000    -0.00000    -0.00041    -0.91619    -0.09413     0.07836
   6      -0.00649     0.29068     0.00000     0.00000     0.00000    -0.00000
   7       0.00000    -0.00000     0.02052    -0.01283     0.10504     1.19061
   8       0.00000    -0.00000    -0.12736    -0.00201     0.01693     0.19177
   9      -0.00000    -0.00000    -0.00006    -0.12835    -0.01076    -0.12201

            7           8           9  
       ----------- ----------- -----------
   1       0.00000    -0.00000     0.02192
   2      -0.00000    -0.00000    -1.54378
   3      -0.12698    -0.07825    -0.00000
   4       0.78518    -0.01766    -0.00000
   5      -0.00497    -0.79134     0.00000
   6       0.00000     0.00000     1.68972
   7       0.19316     0.11904     0.00000
   8      -1.19442     0.02687     0.00000
   9       0.00756     1.20379    -0.00000

   alpha - beta orbital overlaps 
   ----------------------------- 


   alpha      1      2      3      4      5      6      7      8      9
    beta      1      2      3      4      5      6      7      8      9
 overlap   1.000  1.000  1.000  1.000  1.000  1.000  1.000  1.000  1.000
 
 ALPHA/BETA PARTNERS

   alpha      1      2      3
    beta      1      2      3
 

     --------------------------
     Expectation value of S2:  
     --------------------------
      <S2> =      0.5000 (Exact =     0.0000)
 


     <<<<<<             calling scfcvg    >>>>>>
     <<<<<< date:  Oct 24  time: 14:42:35 >>>>>>



     <<<<<<              called scfcvg    >>>>>>
     <<<<<< date:  Oct 24  time: 14:42:35 >>>>>>

           DAMPING=T LEVELSHIFTING=F DIISING=T
          itol2e= 7 iAOacc=12 iXCacc=20
     FON applied
     tr(P*S):    0.6000000E+01


     <<<<<<            calling 1-e int    >>>>>>
     <<<<<< date:  Oct 24  time: 14:42:35 >>>>>>

    Kinetic Matrix Time:          0.0s

           Kinetic energy =     25.952275773304

    Potential Matrix Time:          0.0s


     <<<<<<    Before call to GETVCOUL.   >>>>>>
     <<<<<< date:  Oct 24  time: 14:42:35 >>>>>>



     <<<<<<    Before call to GETVXC.     >>>>>>
     <<<<<< date:  Oct 24  time: 14:42:35 >>>>>>



     <<<<<<    Before call to fock_2e.    >>>>>>
     <<<<<< date:  Oct 24  time: 14:42:35 >>>>>>



     <<<<<<     After call to fock_2e.    >>>>>>
     <<<<<< date:  Oct 24  time: 14:42:35 >>>>>>

    Fock_2e Build Time:          0.0s
  *** grid_quadv0:                    calc_type:                     1
  *** grid_quadv0:                    grid_written: T
  *** grid_quadv0:                    grad: T
  *** grid_quadv0:                    kske: F
  *** grid_quadv0:                    calc_type:                     1
  *** grid_quadv0:                    grid_written: T
  *** grid_quadv0:                    grad: T
  *** grid_quadv0:                    kske: F
  *** grid_quadv0:                    do_scf: T
  *** grid_quadv0:                    fde_option:                     0
  *** grid_quadv0:                    n_per_rec:                  3070
  *** grid_quadv0:                    calc_type:                     1
  *** grid_quadv0:                    grid_written: T
  *** grid_quadv0:                    grad: T
  *** grid_quadv0:                    kske: F
  *** grid_quadv0:                    do_scf: T
  *** grid_quadv0:                    fde_option:                     0
  *** grid_quadv0:                    n_per_rec:                  3070
  *** grid_quadv0:                    calc_type:                     1
  *** grid_quadv0:                    grid_written: T
  *** grid_quadv0:                    grad: T
  *** grid_quadv0:                    kske: F
  *** grid_quadv0:                    do_scf: T
  *** grid_quadv0:                    fde_option:                     0
  *** grid_quadv0:                    n_per_rec:                  3070
  *** grid_quadv0:                    calc_type:                     1
  *** grid_quadv0:                    grid_written: T
  *** grid_quadv0:                    grad: T
  *** grid_quadv0:                    kske: F
  *** grid_quadv0:                    do_scf: T
  *** grid_quadv0:                    fde_option:                     0
  *** grid_quadv0:                    n_per_rec:                  3070
  *** grid_quadv0:                    do_scf: T
  *** grid_quadv0:                    fde_option:                     0
  *** grid_quadv0:                    n_per_rec:                  3070
  *** grid_quadv0:                    calc_type:                     1
  *** grid_quadv0:                    grid_written: T
  *** grid_quadv0:                    grad: T
  *** grid_quadv0:                    kske: F
  *** grid_quadv0:                    do_scf: T
  *** grid_quadv0:                    fde_option:                     0
  *** grid_quadv0:                    n_per_rec:                  3070
  *** grid_quadv0:                    calc_type:                     1
  *** grid_quadv0:                    grid_written: T
  *** grid_quadv0:                    grad: T
  *** grid_quadv0:                    kske: F
  *** grid_quadv0:                    do_scf: T
  *** grid_quadv0:                    fde_option:                     0
  *** grid_quadv0:                    n_per_rec:                  3070
  *** grid_quadv0:                    calc_type:                     1
  *** grid_quadv0:                    grid_written: T
  *** grid_quadv0:                    grad: T
  *** grid_quadv0:                    kske: F
  *** grid_quadv0:                    do_scf: T
  *** grid_quadv0:                    fde_option:                     0
  *** grid_quadv0:                    n_per_rec:                  3070
  *** grid_quadv0:                    calc_type:                     1
  *** grid_quadv0:                    grid_written: T
  *** grid_quadv0:                    grad: T
  *** grid_quadv0:                    kske: F
  *** grid_quadv0:                    do_scf: T
  *** grid_quadv0:                    fde_option:                     0
  *** grid_quadv0:                    n_per_rec:                  3070
  *** grid_quadv0:                    calc_type:                     1
  *** grid_quadv0:                    grid_written: T
  *** grid_quadv0:                    grad: T
  *** grid_quadv0:                    kske: F
  *** grid_quadv0:                    do_scf: T
  *** grid_quadv0:                    fde_option:                     0
  *** grid_quadv0:                    n_per_rec:                  3070
  *** grid_quadv0:                    calc_type:                     1
  *** grid_quadv0:                    grid_written: T
  *** grid_quadv0:                    grad: T
  *** grid_quadv0:                    kske: F
  *** grid_quadv0:                    do_scf: T
  *** grid_quadv0:                    fde_option:                     0
  *** grid_quadv0:                    n_per_rec:                  3070
  *** grid_quadv0:                    calc_type:                     1
  *** grid_quadv0:                    grid_written: T
  *** grid_quadv0:                    grad: T
  *** grid_quadv0:                    kske: F
  *** grid_quadv0:                    do_scf: T
  *** grid_quadv0:                    fde_option:                     0
  *** grid_quadv0:                    n_per_rec:                  3070
  *** grid_quadv0:                    calc_type:                     1
  *** grid_quadv0:                    grid_written: T
  *** grid_quadv0:                    grad: T
  *** grid_quadv0:                    kske: F
  *** grid_quadv0:                    do_scf: T
  *** grid_quadv0:                    fde_option:                     0
  *** grid_quadv0:                    n_per_rec:                  3070
  *** grid_quadv0:                    calc_type:                     1
  *** grid_quadv0:                    grid_written: T
  *** grid_quadv0:                    grad: T
  *** grid_quadv0:                    kske: F
  *** grid_quadv0:                    do_scf: T
  *** grid_quadv0:                    fde_option:                     0
  *** grid_quadv0:                    n_per_rec:                  3070
  *** grid_quadv0:                    calc_type:                     1
  *** grid_quadv0:                    grid_written: T
  *** grid_quadv0:                    grad: T
  *** grid_quadv0:                    kske: F
  *** grid_quadv0:                    do_scf: T
  *** grid_quadv0:                    fde_option:                     0
  *** grid_quadv0:                    n_per_rec:                  3070
  *** grid_quadv0:                    calc_type:                     1
  *** grid_quadv0:                    grid_written: T
  *** grid_quadv0:                    grad: T
  *** grid_quadv0:                    kske: F
  *** grid_quadv0:                    do_scf: T
  *** grid_quadv0:                    fde_option:                     0
  *** grid_quadv0:                    n_per_rec:                  3070
  going xcreplicated 

     ------------------------------------------
      Total Density - Becke Population Analysis
     ------------------------------------------

    Atom         Charge   
 -----------   -------- 
    1 C    6      6.000
 
 
 XC quadr. integrated density :       6.000000 npts:     9562 nctrs:        1
 
    Fock_xc Build Time:          0.0s


     <<<<<<    End of parallel region.    >>>>>>
     <<<<<< date:  Oct 24  time: 14:42:35 >>>>>>

    Total Fock Matrix Build Time:          0.0s
 Etnew, Ecore, Ecoul, Exc(1), Exc(2), Totsic:   -26.3327963393012     
  -37.9214662467823        15.4341725812304       -3.84550267374933     
  0.000000000000000E+000  0.000000000000000E+000
  delta =  -0.311684118040009     


         Total DFT energy =    -26.332796339301
      One electron energy =    -37.921466246782
           Coulomb energy =     15.434172581230
    Exchange-Corr. energy =     -3.845502673749
 Nuclear repulsion energy =      0.000000000000

 Numeric. integr. density =      5.999999929802

     Total iterative time =      0.4s




     <<<<<<        calling diis driver    >>>>>>
     <<<<<< date:  Oct 24  time: 14:42:35 >>>>>>

  delta =  -0.311684118040009     
  delta =  -0.311684118040009     
  delta =  -0.311684118040009     
  delta =  -0.311684118040009     
  delta =  -0.311684118040009     
  delta =  -0.311684118040009     
  delta =  -0.311684118040009     
  delta =  -0.311684118040009     
  delta =  -0.311684118040009     
  delta =  -0.311684118040009     
  delta =  -0.311684118040009     
  delta =  -0.311684118040009     
  delta =  -0.311684118040009     
  delta =  -0.311684118040009     
  delta =  -0.311684118040009     


     <<<<<<         called diis driver    >>>>>>
     <<<<<< date:  Oct 24  time: 14:42:35 >>>>>>


 global array: fock transf[1:9,1:9],  handle: -940 

            1           2           3           4           5           6  
       ----------- ----------- ----------- ----------- ----------- -----------
   1     -11.87048     0.03642    -0.00000     0.00000    -0.00000     0.00000
   2       0.03642    -0.58517    -0.00000    -0.00000     0.00000    -0.00000
   3      -0.00000    -0.00000    -0.29416     0.00000    -0.00000    -0.00001
   4       0.00000    -0.00000     0.00000     0.20585     0.00000    -0.00000
   5      -0.00000     0.00000    -0.00000     0.00000     0.31277    -0.12078
   6       0.00000    -0.00000    -0.00001    -0.00000    -0.12078     0.92191
   7      -0.00000     0.00000    -0.09829     0.00066     0.00001    -0.00000
   8      -0.00000    -0.00000     0.00066     0.09829    -0.00000    -0.00000
   9      -0.02160    -0.10693    -0.00000     0.00000    -0.00000    -0.00000

            7           8           9  
       ----------- ----------- -----------
   1      -0.00000    -0.00000    -0.02160
   2       0.00000    -0.00000    -0.10693
   3      -0.09829     0.00066    -0.00000
   4       0.00066     0.09829     0.00000
   5       0.00001    -0.00000    -0.00000
   6      -0.00000    -0.00000    -0.00000
   7       0.93943    -0.00000     0.00000
   8      -0.00000     0.93943     0.00000
   9       0.00000     0.00000     1.03943


     <<<<<<               calling diag    >>>>>>
     <<<<<< date:  Oct 24  time: 14:42:35 >>>>>>



     <<<<<<                called diag    >>>>>>
     <<<<<< date:  Oct 24  time: 14:42:35 >>>>>>

    Diagonalization Time:          0.0s
           HOMO =  -0.302 LUMO =   0.193 RLSHIFT =   0.500 HL_GAP =  -0.005

 global array: fock transf[1:9,1:9],  handle: -940 

            1           2           3           4           5           6  
       ----------- ----------- ----------- ----------- ----------- -----------
   1     -11.87048     0.03642    -0.00000     0.00000    -0.00000     0.00000
   2       0.03642    -0.58517    -0.00000    -0.00000     0.00000    -0.00000
   3      -0.00000    -0.00000    -0.29416     0.00000    -0.00000    -0.00001
   4       0.00000    -0.00000     0.00000     0.20585     0.00000    -0.00000
   5      -0.00000     0.00000    -0.00000     0.00000     0.31277    -0.12078
   6       0.00000    -0.00000    -0.00001    -0.00000    -0.12078     0.92191
   7      -0.00000     0.00000    -0.09829     0.00066     0.00001    -0.00000
   8      -0.00000    -0.00000     0.00066     0.09829    -0.00000    -0.00000
   9      -0.02160    -0.10693    -0.00000     0.00000    -0.00000    -0.00000

            7           8           9  
       ----------- ----------- -----------
   1      -0.00000    -0.00000    -0.02160
   2       0.00000    -0.00000    -0.10693
   3      -0.09829     0.00066    -0.00000
   4       0.00066     0.09829     0.00000
   5       0.00001    -0.00000    -0.00000
   6      -0.00000    -0.00000    -0.00000
   7       0.93943    -0.00000     0.00000
   8      -0.00000     0.93943     0.00000
   9       0.00000     0.00000     1.03943


     <<<<<<               calling diag    >>>>>>
     <<<<<< date:  Oct 24  time: 14:42:35 >>>>>>



     <<<<<<                called diag    >>>>>>
     <<<<<< date:  Oct 24  time: 14:42:35 >>>>>>

    Diagonalization Time:          0.0s
           HOMO =  -0.302 LUMO =   0.193 RLSHIFT =   0.500 HL_GAP =  -0.005


     <<<<<<              calling densm    >>>>>>
     <<<<<< date:  Oct 24  time: 14:42:35 >>>>>>



     <<<<<<               called densm    >>>>>>
     <<<<<< date:  Oct 24  time: 14:42:35 >>>>>>

 d= 0,ls=0.5,diis     2    -26.3327963393 -3.12D-01  3.53D-02  8.95D-02     0.5
                                                     3.53D-02  8.95D-02

 Wrote molecular orbitals to ./carbon_fon.movecs

             alpha eigenvalues
             -----------------
      (all occupied plus 10 virtual)
      ------------------------------

              1      
    1  -11.8706
    2   -0.5921
    3   -0.3019
    4    0.1929
    5    0.2897
    6    0.9450
    7    0.9472
    8    0.9524
    9    1.0465
                alpha foccs
                -----------

              1      
    1    0.5000
    2    0.5000
    3    1.0000
    4    1.0000
 
             beta eigenvalues
             ----------------

              1      
    1  -11.8706
    2   -0.5921
    3   -0.3019
    4    0.1929
    5    0.2897
    6    0.9450
    7    0.9472
    8    0.9524
    9    1.0465
                beta foccs
                ----------

              1      
    1    0.5000
    2    0.5000
    3    1.0000
    4    1.0000
 
                              Intermediate MO vectors
                              -----------------------
 

 global array: alpha evecs[1:9,1:9],  handle: -995 

            1           2           3           4           5           6  
       ----------- ----------- ----------- ----------- ----------- -----------
   1      -1.00075     0.21818    -0.00000     0.00000    -0.00000     0.00000
   2       0.00736    -0.67170     0.00000    -0.00000     0.00000    -0.00000
   3       0.00000    -0.00000     0.13603    -0.08047    -0.75879     0.92360
   4       0.00000    -0.00000    -0.84432    -0.01260    -0.12228     0.14799
   5      -0.00000     0.00000    -0.00038    -0.80504     0.07776    -0.09455
   6      -0.00464    -0.40061     0.00000     0.00000    -0.00000     0.00000
   7       0.00000     0.00000     0.03564    -0.02843    -0.32659    -1.14993
   8      -0.00000     0.00000    -0.22125    -0.00445    -0.05264    -0.18414
   9       0.00000    -0.00000    -0.00010    -0.28440     0.03347     0.11771

            7           8           9  
       ----------- ----------- -----------
   1      -0.00000    -0.00000    -0.03793
   2      -0.00000     0.00000     1.59117
   3       0.13678    -0.09029     0.00000
   4      -0.85473    -0.01414    -0.00000
   5      -0.00029    -0.90420    -0.00000
   6       0.00000    -0.00000    -1.66709
   7      -0.18912     0.11752    -0.00000
   8       1.18096     0.01841     0.00000
   9       0.00041     1.17677     0.00000

 global array: beta evecs[1:9,1:9],  handle: -990 

            1           2           3           4           5           6  
       ----------- ----------- ----------- ----------- ----------- -----------
   1      -1.00075     0.21818    -0.00000     0.00000    -0.00000     0.00000
   2       0.00736    -0.67170     0.00000    -0.00000     0.00000    -0.00000
   3       0.00000    -0.00000     0.13603    -0.08047    -0.75879     0.92360
   4       0.00000    -0.00000    -0.84432    -0.01260    -0.12228     0.14799
   5      -0.00000     0.00000    -0.00038    -0.80504     0.07776    -0.09455
   6      -0.00464    -0.40061     0.00000     0.00000    -0.00000     0.00000
   7       0.00000     0.00000     0.03564    -0.02843    -0.32659    -1.14993
   8      -0.00000     0.00000    -0.22125    -0.00445    -0.05264    -0.18414
   9       0.00000    -0.00000    -0.00010    -0.28440     0.03347     0.11771

            7           8           9  
       ----------- ----------- -----------
   1      -0.00000    -0.00000    -0.03793
   2      -0.00000     0.00000     1.59117
   3       0.13678    -0.09029     0.00000
   4      -0.85473    -0.01414    -0.00000
   5      -0.00029    -0.90420    -0.00000
   6       0.00000    -0.00000    -1.66709
   7      -0.18912     0.11752    -0.00000
   8       1.18096     0.01841     0.00000
   9       0.00041     1.17677     0.00000

   alpha - beta orbital overlaps 
   ----------------------------- 


   alpha      1      2      3      4      5      6      7      8      9
    beta      1      2      3      4      5      6      7      8      9
 overlap   1.000  1.000  1.000  1.000  1.000  1.000  1.000  1.000  1.000
 
 ALPHA/BETA PARTNERS

   alpha      1      2      3
    beta      1      2      3
 

     --------------------------
     Expectation value of S2:  
     --------------------------
      <S2> =      0.5000 (Exact =     0.0000)
 


     <<<<<<             calling scfcvg    >>>>>>
     <<<<<< date:  Oct 24  time: 14:42:35 >>>>>>



     <<<<<<              called scfcvg    >>>>>>
     <<<<<< date:  Oct 24  time: 14:42:35 >>>>>>

           DAMPING=T LEVELSHIFTING=T DIISING=T
          itol2e= 7 iAOacc=12 iXCacc=20
     FON applied
     tr(P*S):    0.6000000E+01


     <<<<<<            calling 1-e int    >>>>>>
     <<<<<< date:  Oct 24  time: 14:42:35 >>>>>>

    Kinetic Matrix Time:          0.0s

           Kinetic energy =     24.786118016897

    Potential Matrix Time:          0.0s


     <<<<<<    Before call to GETVCOUL.   >>>>>>
     <<<<<< date:  Oct 24  time: 14:42:35 >>>>>>



     <<<<<<    Before call to GETVXC.     >>>>>>
     <<<<<< date:  Oct 24  time: 14:42:35 >>>>>>



     <<<<<<    Before call to fock_2e.    >>>>>>
     <<<<<< date:  Oct 24  time: 14:42:35 >>>>>>



     <<<<<<     After call to fock_2e.    >>>>>>
     <<<<<< date:  Oct 24  time: 14:42:35 >>>>>>

    Fock_2e Build Time:          0.0s
  *** grid_quadv0:                    calc_type:                     1
  *** grid_quadv0:                    grid_written: T
  *** grid_quadv0:                    grad: T
  *** grid_quadv0:                    kske: F
  *** grid_quadv0:                    do_scf: T
  *** grid_quadv0:                    fde_option:                     0
  *** grid_quadv0:                    n_per_rec:                  3070
  *** grid_quadv0:                    calc_type:                     1
  *** grid_quadv0:                    grid_written: T
  *** grid_quadv0:                    grad: T
  *** grid_quadv0:                    kske: F
  *** grid_quadv0:                    do_scf: T
  *** grid_quadv0:                    fde_option:                     0
  *** grid_quadv0:                    n_per_rec:                  3070
  *** grid_quadv0:                    calc_type:                     1
  *** grid_quadv0:                    grid_written: T
  *** grid_quadv0:                    grad: T
  *** grid_quadv0:                    kske: F
  *** grid_quadv0:                    do_scf: T
  *** grid_quadv0:                    fde_option:                     0
  *** grid_quadv0:                    n_per_rec:                  3070
  *** grid_quadv0:                    calc_type:                     1
  *** grid_quadv0:                    grid_written: T
  *** grid_quadv0:                    grad: T
  *** grid_quadv0:                    kske: F
  *** grid_quadv0:                    do_scf: T
  *** grid_quadv0:                    fde_option:                     0
  *** grid_quadv0:                    n_per_rec:                  3070
  *** grid_quadv0:                    calc_type:                     1
  *** grid_quadv0:                    grid_written: T
  *** grid_quadv0:                    grad: T
  *** grid_quadv0:                    kske: F
  *** grid_quadv0:                    do_scf: T
  *** grid_quadv0:                    fde_option:                     0
  *** grid_quadv0:                    n_per_rec:                  3070
  *** grid_quadv0:                    calc_type:                     1
  *** grid_quadv0:                    grid_written: T
  *** grid_quadv0:                    grad: T
  *** grid_quadv0:                    kske: F
  *** grid_quadv0:                    do_scf: T
  *** grid_quadv0:                    fde_option:                     0
  *** grid_quadv0:                    n_per_rec:                  3070
  *** grid_quadv0:                    calc_type:                     1
  *** grid_quadv0:                    grid_written: T
  *** grid_quadv0:                    grad: T
  *** grid_quadv0:                    kske: F
  *** grid_quadv0:                    do_scf: T
  *** grid_quadv0:                    fde_option:                     0
  *** grid_quadv0:                    n_per_rec:                  3070
  *** grid_quadv0:                    calc_type:                     1
  *** grid_quadv0:                    grid_written: T
  *** grid_quadv0:                    grad: T
  *** grid_quadv0:                    kske: F
  *** grid_quadv0:                    do_scf: T
  *** grid_quadv0:                    fde_option:                     0
  *** grid_quadv0:                    n_per_rec:                  3070
  *** grid_quadv0:                    calc_type:                     1
  *** grid_quadv0:                    grid_written: T
  *** grid_quadv0:                    grad: T
  *** grid_quadv0:                    kske: F
  *** grid_quadv0:                    do_scf: T
  *** grid_quadv0:                    fde_option:                     0
  *** grid_quadv0:                    n_per_rec:                  3070
  *** grid_quadv0:                    calc_type:                     1
  *** grid_quadv0:                    grid_written: T
  *** grid_quadv0:                    grad: T
  *** grid_quadv0:                    kske: F
  *** grid_quadv0:                    do_scf: T
  *** grid_quadv0:                    fde_option:                     0
  *** grid_quadv0:                    n_per_rec:                  3070
  *** grid_quadv0:                    calc_type:                     1
  *** grid_quadv0:                    grid_written: T
  *** grid_quadv0:                    grad: T
  *** grid_quadv0:                    kske: F
  *** grid_quadv0:                    do_scf: T
  *** grid_quadv0:                    fde_option:                     0
  *** grid_quadv0:                    n_per_rec:                  3070
  *** grid_quadv0:                    calc_type:                     1
  *** grid_quadv0:                    grid_written: T
  *** grid_quadv0:                    grad: T
  *** grid_quadv0:                    kske: F
  *** grid_quadv0:                    do_scf: T
  *** grid_quadv0:                    fde_option:                     0
  *** grid_quadv0:                    n_per_rec:                  3070
  *** grid_quadv0:                    calc_type:                     1
  *** grid_quadv0:                    grid_written: T
  *** grid_quadv0:                    grad: T
  *** grid_quadv0:                    kske: F
  *** grid_quadv0:                    do_scf: T
  *** grid_quadv0:                    fde_option:                     0
  *** grid_quadv0:                    n_per_rec:                  3070
  *** grid_quadv0:                    calc_type:                     1
  *** grid_quadv0:                    grid_written: T
  *** grid_quadv0:                    grad: T
  *** grid_quadv0:                    kske: F
  *** grid_quadv0:                    do_scf: T
  *** grid_quadv0:                    fde_option:                     0
  *** grid_quadv0:                    n_per_rec:                  3070
  *** grid_quadv0:                    calc_type:                     1
  *** grid_quadv0:                    grid_written: T
  *** grid_quadv0:                    grad: T
  *** grid_quadv0:                    kske: F
  *** grid_quadv0:                    do_scf: T
  *** grid_quadv0:                    fde_option:                     0
  *** grid_quadv0:                    n_per_rec:                  3070
  *** grid_quadv0:                    calc_type:                     1
  *** grid_quadv0:                    grid_written: T
  *** grid_quadv0:                    grad: T
  *** grid_quadv0:                    kske: F
  *** grid_quadv0:                    do_scf: T
  *** grid_quadv0:                    fde_option:                     0
  *** grid_quadv0:                    n_per_rec:                  3070
  going xcreplicated 

     ------------------------------------------
      Total Density - Becke Population Analysis
     ------------------------------------------

[...]
 dft:iCDacc                               int[1]      Tue Oct 24 14:42:33 2017 
 basis:names                             char[9]      Tue Oct 24 14:42:33 2017 
 geometry:geometry:coords              double[3]      Tue Oct 24 14:42:32 2017 
 int2e:memsize                            int[1]      Tue Oct 24 14:42:33 2017 
 scf:nclosed                              int[1]      Tue Oct 24 14:42:33 2017 
 dft:nopen                                int[1]      Tue Oct 24 14:42:33 2017 
 dft:toll_s                            double[1]      Tue Oct 24 14:42:33 2017 
 geometry:geometry:atomct              double[1]      Tue Oct 24 14:42:32 2017 
 dft:nrad                                 int[200]    Tue Oct 24 14:42:33 2017 
 dft:nmo_fon                              int[4]      Tue Oct 24 14:42:33 2017 
 dft:ncore_fon                            int[2]      Tue Oct 24 14:42:33 2017 
 :print                                  char[5]      Tue Oct 24 14:42:32 2017 
 task:theory                             char[4]      Tue Oct 24 14:42:33 2017 
 dft:ssweights                           char[5]      Tue Oct 24 14:42:33 2017 
 prop:Nel                                 int[1]      Tue Oct 24 14:42:33 2017 
 dft:dampon                            double[1]      Tue Oct 24 14:42:33 2017 
 task:cputime                          double[1]      Tue Oct 24 14:42:36 2017 
 task:walltime                         double[1]      Tue Oct 24 14:42:36 2017 
 dft:cfac                              double[64]     Tue Oct 24 14:42:33 2017 
 dft:fon                              logical[1]      Tue Oct 24 14:42:33 2017 
 geometry:geometry:efield              double[3]      Tue Oct 24 14:42:32 2017 
 dft:d_conv                            double[1]      Tue Oct 24 14:42:33 2017 
 dft:input vectors                       char[20]     Tue Oct 24 14:42:33 2017 
 basis:ao basis:tags info                 int[280]    Tue Oct 24 14:42:33 2017 
 prop:Nocc_a                              int[1]      Tue Oct 24 14:42:33 2017 
 prop:Nocc_b                              int[1]      Tue Oct 24 14:42:33 2017 
 dft:nradpts                              int[1]      Tue Oct 24 14:42:33 2017 
 basis:ao basis:star segment          logical[1]      Tue Oct 24 14:42:33 2017 
 dft:nel_fon                           double[4]      Tue Oct 24 14:42:33 2017 
 dft:fractional_occup                 logical[1]      Tue Oct 24 14:42:36 2017 
 dft:diisoff                           double[1]      Tue Oct 24 14:42:33 2017 
 dft:noio                                 int[1]      Tue Oct 24 14:42:33 2017 
 dft:hl_tol                            double[1]      Tue Oct 24 14:42:33 2017 
 geometry:ngeom                           int[1]      Tue Oct 24 14:42:32 2017 
 dft:scftype                             char[4]      Tue Oct 24 14:42:33 2017 
 dft:imull                                int[1]      Tue Oct 24 14:42:33 2017 
 dft:ndamp                                int[1]      Tue Oct 24 14:42:33 2017 
 geometry:geometry:operators           double[2304]   Tue Oct 24 14:42:32 2017 
 dft:cs00                             logical[1]      Tue Oct 24 14:42:33 2017 
 basis:ao basis:star nr tags              int[1]      Tue Oct 24 14:42:33 2017 
 dft:beta irreps                          int[9]      Tue Oct 24 14:42:36 2017 
 dft:iAOacc                               int[1]      Tue Oct 24 14:42:33 2017 
 dft:noc                                  int[2]      Tue Oct 24 14:42:33 2017 
 dft:levelshift                       logical[1]      Tue Oct 24 14:42:33 2017 
 geometry:geometry:recip vectors         double[3]      Tue Oct 24 14:42:32 2017 
 dft:gridtype                            char[7]      Tue Oct 24 14:42:33 2017 
 dft:diison                            double[1]      Tue Oct 24 14:42:33 2017 
 dft:ssw                              logical[1]      Tue Oct 24 14:42:33 2017 
 dft:pstrace                           double[1]      Tue Oct 24 14:42:36 2017 
 geometry:geometry:no. unique centers            int[1]      Tue Oct 24 14:42:32 2017 
 basis:ao basis:contraction info            int[90000]  Tue Oct 24 14:42:33 2017 
 dft:itol2e                               int[1]      Tue Oct 24 14:42:33 2017 
 dft:nodiis                           logical[1]      Tue Oct 24 14:42:33 2017 
 dft:incore                           logical[1]      Tue Oct 24 14:42:33 2017 
 basis:ao basis:bs_nr_tags                int[1]      Tue Oct 24 14:42:33 2017 
 geometry:geometry:group number            int[1]      Tue Oct 24 14:42:32 2017 
 dft:mxnang                               int[1]      Tue Oct 24 14:42:33 2017 
 geometry:geometry:recip angles         double[3]      Tue Oct 24 14:42:32 2017 
 basis:ao basis:star tot except            int[1]      Tue Oct 24 14:42:33 2017 
 dft:lebedev                          logical[1]      Tue Oct 24 14:42:33 2017 
 dft:levloff                           double[1]      Tue Oct 24 14:42:33 2017 
 dft:ipol                                 int[1]      Tue Oct 24 14:42:33 2017 
 dft:iangquad                             int[1]      Tue Oct 24 14:42:33 2017 
 dft:lxfac                            logical[64]     Tue Oct 24 14:42:33 2017 
 geometry:geometry:system type            int[1]      Tue Oct 24 14:42:32 2017 
 grid:eaf_size_in_dbl                     int[1]      Tue Oct 24 14:42:33 2017 
 dft:nlxfac                           logical[64]     Tue Oct 24 14:42:33 2017 
 dft:mult                                 int[1]      Tue Oct 24 14:42:33 2017 
 geometry:geometry:charges             double[1]      Tue Oct 24 14:42:32 2017 
 basis:ao basis:star tag_in_lib           char[2]      Tue Oct 24 14:42:33 2017 
 dft:nquad_task                           int[1]      Tue Oct 24 14:42:33 2017 
 basis:ao basis:star filename            char[68]     Tue Oct 24 14:42:33 2017 
 dft:core_fon                         logical[1]      Tue Oct 24 14:42:33 2017 
 basis:ao basis:header                    int[7]      Tue Oct 24 14:42:33 2017 
 geometry:geometry:tags                  char[2]      Tue Oct 24 14:42:32 2017 
 dft:xcname                              char[2312]   Tue Oct 24 14:42:33 2017 
 dft:cname                               char[2156]   Tue Oct 24 14:42:33 2017 
 dft:g_conv                            double[1]      Tue Oct 24 14:42:33 2017 
 geometry:geometry:include_bqbq        logical[1]      Tue Oct 24 14:42:32 2017 
 geometry:geometry:group name            char[3]      Tue Oct 24 14:42:32 2017 
 dft:nang                                 int[200]    Tue Oct 24 14:42:33 2017 
 dft:energy                            double[1]      Tue Oct 24 14:42:36 2017 
 basisprint:ao basis                  logical[1]      Tue Oct 24 14:42:33 2017 
 dft:radgrid                             char[7]      Tue Oct 24 14:42:33 2017 
 dft:rlshift                           double[1]      Tue Oct 24 14:42:33 2017 
 dft:delta_ac                          double[1]      Tue Oct 24 14:42:33 2017 
 dft:nfock                                int[1]      Tue Oct 24 14:42:33 2017 
 basis:ao basis:star bas type            char[6]      Tue Oct 24 14:42:33 2017 
 dft:e_conv                            double[1]      Tue Oct 24 14:42:33 2017 
 dft:nolevelshifting                  logical[1]      Tue Oct 24 14:42:33 2017 
 dft:dampoff                           double[1]      Tue Oct 24 14:42:33 2017 
 dft:output vectors                      char[20]     Tue Oct 24 14:42:33 2017 
 dft:lb94                             logical[1]      Tue Oct 24 14:42:33 2017 
 dft:converged                        logical[1]      Tue Oct 24 14:42:36 2017 
 dft:job_grid_acc                      double[1]      Tue Oct 24 14:42:33 2017 
 dft:diis                             logical[1]      Tue Oct 24 14:42:33 2017 
 basis:ao basis:number of exps and coeffs            int[1]      Tue Oct 24 14:42:33 2017 
 geometry:names                          char[9]      Tue Oct 24 14:42:32 2017 
 dft:ltight                           logical[1]      Tue Oct 24 14:42:33 2017 
 geometry:geometry:masses              double[1]      Tue Oct 24 14:42:32 2017 
 dft:tol_rho                           double[1]      Tue Oct 24 14:42:33 2017 
 scf:scftype                             char[4]      Tue Oct 24 14:42:33 2017 
 dft:ncydp                                int[1]      Tue Oct 24 14:42:33 2017 
 geometry:geometry:unique centers            int[1]      Tue Oct 24 14:42:32 2017 
 dft:ncysh                                int[1]      Tue Oct 24 14:42:33 2017 
 dft:xfac                              double[64]     Tue Oct 24 14:42:33 2017 
 geometry:geometry:amatrix             double[9]      Tue Oct 24 14:42:32 2017 
 dft:ncyds                                int[1]      Tue Oct 24 14:42:33 2017 
 basis:ao basis:star rel              logical[1]      Tue Oct 24 14:42:33 2017 
 geometry:geometry:inv nuc expon         double[1]      Tue Oct 24 14:42:32 2017 
 basis:ao basis:star tag names           char[2]      Tue Oct 24 14:42:33 2017 
 geometry:geometry:vel                 double[3]      Tue Oct 24 14:42:32 2017 
 int2e:filesize                           int[1]      Tue Oct 24 14:42:33 2017 
 task:status                          logical[1]      Tue Oct 24 14:42:36 2017 
 dft:xname                               char[2351]   Tue Oct 24 14:42:33 2017 
 geometry:geometry:direct volume         double[1]      Tue Oct 24 14:42:32 2017 
 basis:ao basis:star nr except            int[1]      Tue Oct 24 14:42:33 2017 
 geometry:geometry:num_operators            int[1]      Tue Oct 24 14:42:32 2017 
 uhf:coulomb                           double[1]      Tue Oct 24 14:42:36 2017 
 basis:nbasis                             int[1]      Tue Oct 24 14:42:33 2017 
 file_prefix                             char[11]     Tue Oct 24 14:42:32 2017 
 task:energy                           double[1]      Tue Oct 24 14:42:36 2017 
 dft:xccomb                           logical[64]     Tue Oct 24 14:42:33 2017 
 geometry:geometry:ncenter                int[1]      Tue Oct 24 14:42:32 2017 
 dft:tol2e                             double[1]      Tue Oct 24 14:42:33 2017 
 dft:nagrid                               int[1]      Tue Oct 24 14:42:33 2017 
 dft:max_ovl                          logical[1]      Tue Oct 24 14:42:33 2017 
 dft:theory                              char[4]      Tue Oct 24 14:42:33 2017 
 dft:xc_spec                             char[5]      Tue Oct 24 14:42:33 2017 
 basis:ao basis:assoc ecp name           char[4]      Tue Oct 24 14:42:33 2017 
 dft:direct                           logical[1]      Tue Oct 24 14:42:33 2017 
 dft:iterations                           int[1]      Tue Oct 24 14:42:33 2017 
 dft:nlcfac                           logical[64]     Tue Oct 24 14:42:33 2017 
 dft:damp                             logical[1]      Tue Oct 24 14:42:33 2017 
 dft:radius                            double[1]      Tue Oct 24 14:42:33 2017 
 dft:idecomp                              int[1]      Tue Oct 24 14:42:33 2017 
 geometry:geometry:zmt_source            char[2]      Tue Oct 24 14:42:32 2017 
 geometry:geometry:setting number            int[1]      Tue Oct 24 14:42:32 2017 
 scf:tol2e                             double[1]      Tue Oct 24 14:42:33 2017 
 rtdb:stored:state                    logical[3]      Tue Oct 24 14:42:32 2017 
 dft:mxnrad                               int[1]      Tue Oct 24 14:42:33 2017 
 title                                   char[12]     Tue Oct 24 14:42:32 2017 
 dft:iqrot                                int[1]      Tue Oct 24 14:42:33 2017 


 HDBM usage statistics
 ---------------------
 Reads         = 1732
 Inserts       = 966
 Replaces      = 362
 Extracts      = 0
 Deletes       = 1874
 Reuses        = 60

 Memory allocs = 8482
 Memory frees  = 8482
 Memory max    = 1513269
 Memory in use = 0

 IO seeks      = 3439
 IO reads      = 2408
 IO writes     = 2961
 IO nread      = 2319642
 IO nwrite     = 2315454

 Summary of allocated global arrays
-----------------------------------
  No active global arrays



                         GA Statistics for process    0
                         ------------------------------

       create   destroy   get      put      acc     scatter   gather  read&inc
calls:  457      457     1460      495      300        0        0       32     
number of processes/call 1.45e+00 1.36e+00 2.17e+00 0.00e+00 0.00e+00
bytes total:             6.36e+05 2.20e+05 1.94e+05 0.00e+00 0.00e+00 2.56e+02
bytes remote:            3.85e+04 1.28e+04 2.53e+04 0.00e+00 0.00e+00 0.00e+00
Max memory consumed for GA by this process: 42120 bytes
 
MA_summarize_allocated_blocks: starting scan ...
MA_summarize_allocated_blocks: scan completed: 0 heap blocks, 0 stack blocks
MA usage statistics:

	allocation statistics:
					      heap	     stack
					      ----	     -----
	current number of blocks	         0	         0
	maximum number of blocks	        20	        52
	current total bytes		         0	         0
	maximum total bytes		    205016	  22510184
	maximum total K-bytes		       206	     22511
	maximum total M-bytes		         1	        23

	calls per routine:
		        45  MA_alloc_get
		        45  MA_allocate_heap
		       260  MA_chop_stack
		        45  MA_free_heap
		         0  MA_free_heap_piece
		      1540  MA_get_index
		         5  MA_get_mbase
		         0  MA_get_next_memhandle
		         0  MA_get_numalign
		        95  MA_get_pointer
		         1  MA_init
		         0  MA_initialized
		         0  MA_init_memhandle_iterator
		       292  MA_inquire_avail
		         2  MA_inquire_heap
		         0  MA_inquire_heap_check_stack
		         0  MA_inquire_heap_no_partition
		         2  MA_inquire_stack
		         0  MA_inquire_stack_check_heap
		         0  MA_inquire_stack_no_partition
		       677  MA_pop_stack
		         1  MA_print_stats
		      1495  MA_push_get
		      1590  MA_push_stack
		         3  MA_set_auto_verify
		         1  MA_set_error_print
		         3  MA_set_hard_fail
		         1  MA_set_numalign
		      1930  MA_sizeof
		        13  MA_sizeof_overhead
		         1  MA_summarize_allocated_blocks
		         0  MA_trace
		      6492  MA_verify_allocator_stuff
 
 
                                     CITATION
                                     --------
                Please cite the following reference when publishing
                           results obtained with NWChem:
 
                 M. Valiev, E.J. Bylaska, N. Govind, K. Kowalski,
              T.P. Straatsma, H.J.J. van Dam, D. Wang, J. Nieplocha,
                        E. Apra, T.L. Windus, W.A. de Jong
                 "NWChem: a comprehensive and scalable open-source
                  solution for large scale molecular simulations"
                      Comput. Phys. Commun. 181, 1477 (2010)
                           doi:10.1016/j.cpc.2010.04.018
 
                                      AUTHORS
                                      -------
          E. Apra, E. J. Bylaska, W. A. de Jong, N. Govind, K. Kowalski,
       T. P. Straatsma, M. Valiev, H. J. J. van Dam, D. Wang, T. L. Windus,
        J. Hammond, J. Autschbach, K. Bhaskaran-Nair, J. Brabec, K. Lopata,
       S. A. Fischer, S. Krishnamoorthy, W. Ma, M. Klemm, O. Villa, Y. Chen,
    V. Anisimov, F. Aquino, S. Hirata, M. T. Hackler, T. Risthaus, M. Malagoli,
       A. Marenich, A. Otero-de-la-Roza, J. Mullin, P. Nichols, R. Peverati,
     J. Pittner, Y. Zhao, P.-D. Fan, A. Fonari, M. Williamson, R. J. Harrison,
       J. R. Rehr, M. Dupuis, D. Silverstein, D. M. A. Smith, J. Nieplocha,
        V. Tipparaju, M. Krishnan, B. E. Van Kuiken, A. Vazquez-Mayagoitia,
        L. Jensen, M. Swart, Q. Wu, T. Van Voorhis, A. A. Auer, M. Nooijen,
      L. D. Crosby, E. Brown, G. Cisneros, G. I. Fann, H. Fruchtl, J. Garza,
        K. Hirao, R. A. Kendall, J. A. Nichols, K. Tsemekhman, K. Wolinski,
     J. Anchell, D. E. Bernholdt, P. Borowski, T. Clark, D. Clerc, H. Dachsel,
   M. J. O. Deegan, K. Dyall, D. Elwood, E. Glendening, M. Gutowski, A. C. Hess,
         J. Jaffe, B. G. Johnson, J. Ju, R. Kobayashi, R. Kutteh, Z. Lin,
   R. Littlefield, X. Long, B. Meng, T. Nakajima, S. Niu, L. Pollack, M. Rosing,
   K. Glaesemann, G. Sandrone, M. Stave, H. Taylor, G. Thomas, J. H. van Lenthe,
                               A. T. Wong, Z. Zhang.
 
                                    REFERENCES
                                    ----------

          Where appropriate, please cite the following reference(s) 
          when publishing results obtained with NWChem:


     1. D. E. Bernholdt, E. Apra, H. A. Fruchtl, M.F. Guest, R. J. Harrison, 
        R. A. Kendall, R. A. Kutteh, X. Long, J. B. Nicholas, J. A. Nichols, 
        H. L. Taylor, A. T. Wong, G. I. Fann, R. J. Littlefield and
        J. Nieplocha,
        "Parallel Computational Chemistry Made Easier: 
        The Development of NWChem,"
        Int. J. Quantum Chem. Symposium  29, 475-483 (1995).


     2. M. F. Guest, E. Apra, D. E. Bernholdt, H. A. Fruchtl, R. J. Harrison, 
        R. A. Kendall, R. A. Kutteh, X. Long, J. B. Nicholas, J. A. Nichols, 
        H. L. Taylor, A. T. Wong, G. I. Fann, R. J. Littlefield and
        J. Nieplocha,
        "High Performance Computational Chemistry: NWChem and Fully Distributed
        Parallel Applications", in Advances in Parallel Computing, 10, High
        Performance Computing: Technology, Methods, and Applications, Eds. 
        J. Dongarra, L. Gradinetti, G. Joubert, and J. Kowalik, 
        (Elsevier Science B. V. pp. 395-427, 1995).


     3. M. F. Guest, E. Apra, D. E. Bernholdt, H. A. Fruchtl, R. J. Harrison, 
        R. A. Kendall, R. A. Kutteh, J. B. Nicholas, J. A. Nichols, M. S. Stave,
        A. T. Wong, R. J. Littlefield and J. Nieplocha, "High Performance 
        Computational Chemistry: Towards Fully Distributed Parallel Algorithms",
        in High Performance Computing: Symposium 1995, Grand Challenges in 
        Computer Simulation, Adrian M. Tentner, Editor, Proceedings of the 1995 
        Simulation Multiconference, April 9-13, 1995, Phoenix, Arizona, 
        Simulation Councils, Inc., The Society for Computer Simulation, 
        San Diego, CA, 1995. pp. 511-521.


     4. M. F. Guest, E. Apra, D. E. Bernholdt, H. A. Fruchtl, R. J. Harrison,
        R. A. Kendall, R. A. Kutteh, X. Long, J. B. Nicholas, J. A. Nichols, 
        H. L. Taylor, A. T. Wong, G. I. Fann, R. J. Littlefield and
        J. Nieplocha,
        "Advances in Parallel Distributed Data Software; Computational Chemistry
        and NWChem", in Applied Parallel Computing.  Computations in Physics,
        Chemistry, and Engineering Science, Eds. J. Wasnieski, J. Dongarra, and 
        K. Madsen, Lecture Notes in Computer Science, 1041,
        (Springer-Verlag, Berlin, 278-294, 1996).


     5. M. F. Guest, E. Apra, D. E. Bernholdt, H. A. Fruchtl, R. J. Harrison,
        R. A. Kendall, R. A. Kutteh, X. Long, J. B. Nicholas, J. A. Nichols, 
        H. L. Taylor, A. T. Wong, G. I. Fann, R. J. Littlefield and
        J. Nieplocha, 
        "High-Performance Computing in Chemistry; NWChem", Future 
        Generations Computer Systems  12(4), 273, (1996).


     6. R. A. Kendall, E. Apra, D. E. Bernholdt, E. J. Bylaska, M. Dupuis,
        G. I. Fann, R. J. Harrison, J. Ju, J. A. Nichols, J. Nieplocha,
        T. P. Straatsma, T. L. Windus, A. T. Wong,
        Computer Phys. Comm. 128, 260 (2000).


     7. T. P. Straatsma and V. Helms, in Molecular Dynamics on Parallel
        Computers2000, R. Esser et al. editors, p 70.


     8.  T. P. Straatsma, M. Philippopoulos and J. A. McCammon,
         Computer Phys. Comm. 128, 377 (2000).


     9.  M. Valiev, E. J. Bylaska, A. Gramada, and J. H. Weare,
         Reviews in Modern Quantum Chemistry, pages 1684-1734
         (World Scientific, Singapore, 2002).


    10.  E. J. Bylaska, M. Valiev, R. Kawai, and J. H. Weare,
         Computer Phys. Comm. 143, 11 (2002).


    11.  M. Valiev and J. H. Weare,
         J. Phys. Chem. A, 103, 10588 (1999).



 Total times  cpu:        1.1s     wall:        3.7s
