 argument  1 = carbon_fon.inp
 


============================== echo of input deck ==============================
# Taken from http://www.nwchem-sw.org/index.php/Release66:Density_Functional_Theory_for_Molecules
echo
title "carbon atom"
start carbon_fon
print high    # For MO viz
geometry units angstrom nocenter
symmetry c1
  C   0.0 0.0 0.0
end
basis
 * library 6-31G
end
dft
 direct
 grid xfine
 convergence energy 1d-8
 xc pbe0
 fon partial 3 electrons 1.8 filled 2
end
task dft energy
================================================================================


                                         
                                         
 
 
              Northwest Computational Chemistry Package (NWChem) 6.6
              ------------------------------------------------------
 
 
                    Environmental Molecular Sciences Laboratory
                       Pacific Northwest National Laboratory
                                Richland, WA 99352
 
                              Copyright (c) 1994-2015
                       Pacific Northwest National Laboratory
                            Battelle Memorial Institute
 
             NWChem is an open-source computational chemistry package
                        distributed under the terms of the
                      Educational Community License (ECL) 2.0
             A copy of the license is included with this distribution
                              in the LICENSE.TXT file
 
                                  ACKNOWLEDGMENT
                                  --------------

            This software and its documentation were developed at the
            EMSL at Pacific Northwest National Laboratory, a multiprogram
            national laboratory, operated for the U.S. Department of Energy
            by Battelle under Contract Number DE-AC05-76RL01830. Support
            for this work was provided by the Department of Energy Office
            of Biological and Environmental Research, Office of Basic
            Energy Sciences, and the Office of Advanced Scientific Computing.


           Job information
           ---------------

    hostname        = hostname
    program         = nwchem
    date            = Tue Oct 24 14:36:28 2017

    compiled        = Wed_Sep_14_13:31:52_2016
    source          = source
    nwchem branch   = Development
    nwchem revision = 28323
    ga revision     = 10664
    input           = carbon_fon.inp
    prefix          = carbon_fon.
    data base       = ./carbon_fon.db
    status          = startup
    nproc           =       16
    time left       =     -1s



           Memory information
           ------------------

    heap     =   13107196 doubles =    100.0 Mbytes
    stack    =   13107201 doubles =    100.0 Mbytes
    global   =   26214400 doubles =    200.0 Mbytes (distinct from heap & stack)
    total    =   52428797 doubles =    400.0 Mbytes
    verify   = yes
    hardfail = no 


           Directory information
           ---------------------
 
  0 permanent = .
  0 scratch   = .
 
 
 
 
                                NWChem Input Module
                                -------------------
 
 
                                    carbon atom
                                    -----------

 Scaling coordinates for geometry "geometry" by  1.889725989
 (inverse scale =  0.529177249)

     MOLECULAR POINT GROUP NUMBER =  1     SCHOENFLIESSYMBOL = C1        

                --------------- GROUP GENERATORS ---------------

                      1 GENERATORS USED TO FORM THE GROUP

                         PT fold Rotoinversion Operator
                     1.000000  0.000000  0.000000  0.000000
                     0.000000  1.000000  0.000000  0.000000
                     0.000000  0.000000  1.000000  0.000000


                    ---------- FULL LISTING OF GROUP ----------

                  MATRIX REPRESENTATIONS OF THE GROUP OPERATORS

     EXCLUDING THE IDENTITY OPERATOR THERE ARE  1 OPERATORS IN THIS GROUP

                         pt fold Rotoinversion Operator
                     1.000000  0.000000  0.000000  0.000000
                     0.000000  1.000000  0.000000  0.000000
                     0.000000  0.000000  1.000000  0.000000


                  <<< SYMMETRY OPERATION/ATOM MAPPING BUILT >>>
      Symmetry information
      --------------------
 
 Group name             C1        
 Group number              1
 Group order               1
 No. of unique centers     1
 


                  Character table for group C1      

                  1e     
        a          1.000
 
      Symmetry unique atoms
 
     1
 
      Mapping of centers
 
 
      Group operations
 
 
 
 
                             Geometry "geometry" -> ""
                             -------------------------
 
 Output coordinates in angstroms (scale by  1.889725989 to convert to a.u.)
 
  No.       Tag          Charge          X              Y              Z
 ---- ---------------- ---------- -------------- -------------- --------------
    1 C                    6.0000     0.00000000     0.00000000     0.00000000
 
      Atomic Mass 
      ----------- 
 
      C                 12.000000
 

 Effective nuclear repulsion energy (a.u.)       0.0000000000

            Nuclear Dipole moment (a.u.) 
            ----------------------------
        X                 Y               Z
 ---------------- ---------------- ----------------
     0.0000000000     0.0000000000     0.0000000000
 
 
            XYZ format geometry
            -------------------
     1
 geometry
 C                     0.00000000     0.00000000     0.00000000
 
  library name resolved from: environment
  library file name is: <
 libraryfilename>
  


 Summary of "ao basis" -> "" (cartesian)
 ------------------------------------------------------------------------------
       Tag                 Description            Shells   Functions and Types
 ---------------- ------------------------------  ------  ---------------------
 *                           6-31G                    on all atoms 


 
                                 NWChem DFT Module
                                 -----------------
 
 
                                    carbon atom
 
 
                      Basis "ao basis" -> "ao basis" (cartesian)
                      -----
  C (Carbon)
  ----------
            Exponent  Coefficients 
       -------------- ---------------------------------------------------------
  1 S  3.04752490E+03  0.001835
  1 S  4.57369510E+02  0.014037
  1 S  1.03948690E+02  0.068843
  1 S  2.92101550E+01  0.232184
  1 S  9.28666300E+00  0.467941
  1 S  3.16392700E+00  0.362312
 
  2 S  7.86827240E+00 -0.119332
  2 S  1.88128850E+00 -0.160854
  2 S  5.44249300E-01  1.143456
 
  3 P  7.86827240E+00  0.068999
  3 P  1.88128850E+00  0.316424
  3 P  5.44249300E-01  0.744308
 
  4 S  1.68714400E-01  1.000000
 
  5 P  1.68714400E-01  1.000000
 


 Summary of "ao basis" -> "ao basis" (cartesian)
 ------------------------------------------------------------------------------
       Tag                 Description            Shells   Functions and Types
 ---------------- ------------------------------  ------  ---------------------
 C                           6-31G                   5        9   3s2p




 Summary of "ao basis" -> "ao basis" (cartesian)
 ------------------------------------------------------------------------------
       Tag                 Description            Shells   Functions and Types
 ---------------- ------------------------------  ------  ---------------------
 C                           6-31G                   5        9   3s2p


 
 
                         Geometry "geometry" -> "geometry"
                         ---------------------------------
 
 Output coordinates in angstroms (scale by  1.889725989 to convert to a.u.)
 
  No.       Tag          Charge          X              Y              Z
 ---- ---------------- ---------- -------------- -------------- --------------
    1 C                    6.0000     0.00000000     0.00000000     0.00000000
 
      Atomic Mass 
      ----------- 
 
      C                 12.000000
 

 Effective nuclear repulsion energy (a.u.)       0.0000000000

            Nuclear Dipole moment (a.u.) 
            ----------------------------
        X                 Y               Z
 ---------------- ---------------- ----------------
     0.0000000000     0.0000000000     0.0000000000
 
 
                      Basis "ao basis" -> "ao basis" (cartesian)
                      -----
  C (Carbon)
  ----------
            Exponent  Coefficients 
       -------------- ---------------------------------------------------------
  1 S  3.04752490E+03  0.536334
  1 S  4.57369510E+02  0.989451
  1 S  1.03948690E+02  1.597282
  1 S  2.92101550E+01  2.079187
  1 S  9.28666300E+00  1.774174
  1 S  3.16392700E+00  0.612580
 
  2 S  7.86827240E+00 -0.399556
  2 S  1.88128850E+00 -0.184155
  2 S  5.44249300E-01  0.516390
 
  3 P  7.86827240E+00  1.296083
  3 P  1.88128850E+00  0.993754
  3 P  5.44249300E-01  0.495953
 
  4 S  1.68714400E-01  0.187618
 
  5 P  1.68714400E-01  0.154128
 
 
 
    Basis function labels
    ---------------------
       No.  Atm El Type
       ---  --- -- ----
        1    1 C  s          
        2    1 C  s          
        3    1 C  px         
        4    1 C  py         
        5    1 C  pz         
        6    1 C  s          
        7    1 C  px         
        8    1 C  py         
        9    1 C  pz         

 Schwarz integral screening summary 
 ---------------------------------- 

        No. of atom pairs =       1
       No. of shell pairs =      15

 Atomic screening 

   value      no.     value      no.     value      no.     value      no.   
  -------- ------    -------- ------    -------- ------    -------- ------   
  0.00D+00      0    1.00D-13      0    1.00D-12      0    1.00D-11      0
  1.00D-10      0    1.00D-09      0    1.00D-08      0    1.00D-07      0
  1.00D-06      0    1.00D-05      0    1.00D-04      0    1.00D-03      0
  1.00D-02      0    1.00D-01      0    1.00D+00      1    1.00D+01      0


 Shell screening 

   value      no.     value      no.     value      no.     value      no.   
  -------- ------    -------- ------    -------- ------    -------- ------   
  0.00D+00      0    1.00D-13      0    1.00D-12      0    1.00D-11      0
  1.00D-10      0    1.00D-09      0    1.00D-08      0    1.00D-07      0
  1.00D-06      0    1.00D-05      0    1.00D-04      0    1.00D-03      0
  1.00D-02      0    1.00D-01      5    1.00D+00     10    1.00D+01      0

 
  Caching 1-el integrals 
  atom                      1  - neighbor  & S                      1
   10.0000000000000       exp AB   0.168714400000000     
  0.168714400000000     
 zmins =     0.168714400    0.168714400 lprod =   2 range =         8.68 acc   0.10D-07
 sh     0.000000000
  Center:                      1  Radial Pts. & Wghts. 
    1        0.000002470           4.5222441E-17
    2        0.000019762           1.1577102E-14
    3        0.000066698           2.9671941E-13
    4        0.000158102           2.9640604E-12
    5        0.000308802           1.7669269E-11
    6        0.000533634           7.5988046E-11
    7        0.000847443           2.6087153E-10
    8        0.001265091           7.5945980E-10
    9        0.001801462           1.9494316E-09
   10        0.002471467           4.5310262E-09
   11        0.003290052           9.7189063E-09
   12        0.004272206           1.9510169E-08
   13        0.005432972           3.7047078E-08
   14        0.006787456           6.7095529E-08
   15        0.008350838           1.1666290E-07
   16        0.010138381           1.9578185E-07
   17        0.012165452           3.1848977E-07
   18        0.014447528           5.0403725E-07
   19        0.017000215           7.7836289E-07
   20        0.019839262           1.1758762E-06
   21        0.022980584           1.7415955E-06
   22        0.026440272           2.5336939E-06
   23        0.030234620           3.6265118E-06
   24        0.034380143           5.1141047E-06
   25        0.038893599           7.1143994E-06
   26        0.043792017           9.7740466E-06
   27        0.049092718           1.3274067E-05
   28        0.054813343           1.7836397E-05
   29        0.060971888           2.3731470E-05
   30        0.067586726           3.1286964E-05
   31        0.074676648           4.0897892E-05
   32        0.082260894           5.3038212E-05
   33        0.090359193           6.8274184E-05
   34        0.098991803           8.7279712E-05
   35        0.108179555           1.1085397E-04
   36        0.117943898           1.3994162E-04
   37        0.128306951           1.7565605E-04
   38        0.139291555           2.1930597E-04
   39        0.150921333           2.7242606E-04
   40        0.163220749           3.3681206E-04
   41        0.176215179           4.1456115E-04
   42        0.189930980           5.0811837E-04
   43        0.204395569           6.2032999E-04
   44        0.219637512           7.5450505E-04
   45        0.235686611           9.1448631E-04
   46        0.252574005           1.1047321E-03
   47        0.270332284           1.3304108E-03
   48        0.288995602           1.5975110E-03
   49        0.308599811           1.9129676E-03
   50        0.329182600           2.2848100E-03
   51        0.350783655           2.7223337E-03
   52        0.373444829           3.2362999E-03
   53        0.397210330           3.8391694E-03
   54        0.422126932           4.5453762E-03
   55        0.448244202           5.3716479E-03
   56        0.475614760           6.3373831E-03
   57        0.504294561           7.4650962E-03
   58        0.534343211           8.7809430E-03
   59        0.565824323           1.0315344E-02
   60        0.598805908           1.2103724E-02
   61        0.633360827           1.4187401E-02
   62        0.669567281           1.6614635E-02
   63        0.707509387           1.9441907E-02
   64        0.747277809           2.2735446E-02
   65        0.788970488           2.6573083E-02
   66        0.832693474           3.1046505E-02
   67        0.878561872           3.6264002E-02
   68        0.926700934           4.2353842E-02
   69        0.977247316           4.9468425E-02
   70        1.030350538           5.7789436E-02
   71        1.086174678           6.7534260E-02
   72        1.144900358           7.8964032E-02
   73        1.206727071           9.2393787E-02
   74        1.271875943           1.0820536E-01
   75        1.340593004           1.2686388E-01
   76        1.413153106           1.4893910E-01
   77        1.489864642           1.7513304E-01
   78        1.571075265           2.0631644E-01
   79        1.657178886           2.4357695E-01
   80        1.748624289           2.8828383E-01
   81        1.845925866           3.4217574E-01
   82        1.949677087           4.0748128E-01
   83        2.060567634           4.8708715E-01
   84        2.179405423           5.8477613E-01
   85        2.307145321           7.0556993E-01
   86        2.444927129           8.5623286E-01
   87        2.594126705           1.0460277E+00
   88        2.756426054           1.2878782E+00
   89        2.933911533           1.6002086E+00
   90        3.129214888           2.0099468E+00
   91        3.345721703           2.5576170E+00
   92        3.587890051           3.3063603E+00
   93        3.861757608           4.3587750E+00
   94        4.175789191           5.8904320E+00
   95        4.542382038           8.2221155E+00
   96        4.980755964           1.1992380E+01
   97        5.523109670           1.8630711E+01
   98        6.229804617           3.1938078E+01
   99        7.236354490           6.5309096E+01
  100        8.975172596           2.0298222E+02
     irreducible set of Lebedev Angular points ;
  0.009523809523810  1.000000000000000  0.000000000000000  0.000000000000000
  0.032142857142857  0.577350269189626  0.577350269189626  0.577350269189626
  0.028571428571429  0.459700843380983  0.000000000000000  0.888073833977115
   total no. of   reducible points:  38; test:  1.00000000
  0.012698412698413  1.000000000000000  0.000000000000000  0.000000000000000
  0.022574955908289  0.707106781186547  0.707106781186547  0.000000000000000
  0.021093750000000  0.577350269189626  0.577350269189626  0.577350269189626
  0.020173335537919  0.301511344577764  0.301511344577764  0.904534033733291
   total no. of   reducible points:  50; test:  1.00000000
  0.000513067179734  1.000000000000000  0.000000000000000  0.000000000000000
  0.016604069565742  0.707106781186547  0.707106781186547  0.000000000000000
 -0.029586038961039  0.577350269189626  0.577350269189626  0.577350269189626
  0.026576207082159  0.480384461415261  0.480384461415261  0.733799385705343
  0.016522170993716  0.320772648980776  0.000000000000000  0.947156221362588
   total no. of   reducible points:  74; test:  1.00000000
  0.011544011544012  1.000000000000000  0.000000000000000  0.000000000000000
  0.011943909085856  0.577350269189626  0.577350269189626  0.577350269189626
  0.011110555710603  0.369602846454150  0.369602846454150  0.852518311701268
  0.011876501294537  0.694354006602666  0.694354006602666  0.189063552885395
  0.011812303746904  0.374243039090341  0.000000000000000  0.927330657151172
   total no. of   reducible points:  86; test:  1.00000000
  0.003828270494937  1.000000000000000  0.000000000000000  0.000000000000000
  0.009793737512488  0.577350269189626  0.577350269189626  0.577350269189626
  0.008211737283191  0.185115635344736  0.185115635344736  0.965124035086594
  0.009942814891178  0.690421048382292  0.690421048382292  0.215957291845848
  0.009595471336071  0.395689473055942  0.395689473055942  0.828769981252592
  0.009694996361663  0.478369028812150  0.000000000000000  0.878158910604066
   total no. of   reducible points: 110; test:  1.00000000
  0.000599631368862  1.000000000000000  0.000000000000000  0.000000000000000
  0.007372999718621  0.707106781186547  0.707106781186547  0.000000000000000
  0.007210515360144  0.577350269189626  0.577350269189626  0.577350269189626
  0.007116355493118  0.676441040011426  0.676441040011426  0.291298882209527
  0.006753829486314  0.417496122796545  0.417496122796545  0.807089818359583
  0.007574394159054  0.157467667203908  0.157467667203908  0.974888643677173
  0.006991087353303  0.140355381171318  0.449332832326956  0.882270011260323
   total no. of   reducible points: 146; test:  1.00000000
  0.005544842902037  1.000000000000000  0.000000000000000  0.000000000000000
  0.006071332770671  0.707106781186547  0.707106781186547  0.000000000000000
  0.006383674773515  0.577350269189626  0.577350269189626  0.577350269189626
  0.005183387587748  0.255125262111413  0.255125262111413  0.932642590312691
  0.006317929009814  0.674360146036277  0.674360146036277  0.300793595137701
  0.006201670006589  0.431891069671941  0.431891069671941  0.791795559393492
  0.005477143385137  0.261393136033599  0.000000000000000  0.965232421976448
  0.005968383987681  0.499045316179604  0.144663074432512  0.854415804684659
   total no. of   reducible points: 170; test:  1.00000000
  0.001782340447245  1.000000000000000  0.000000000000000  0.000000000000000
  0.005716905949977  0.707106781186547  0.707106781186547  0.000000000000000
  0.005573383178849  0.577350269189626  0.577350269189626  0.577350269189626
  0.005608704082588  0.671297344269523  0.671297344269523  0.314196994182586
  0.005158237711805  0.289246562757544  0.289246562757544  0.912509096867474
  0.005518771467274  0.444693317871744  0.444693317871744  0.777493219314767
  0.004106777028169  0.129933544765007  0.129933544765007  0.982972302707253
  0.005051846064615  0.345770219761128  0.000000000000000  0.938319218137592
  0.005530248916233  0.159041710538353  0.836036015482459  0.525118572443642
   total no. of   reducible points: 194; test:  1.00000000
 -0.055226399197273  1.000000000000000  0.000000000000000  0.000000000000000
  0.004450274607445  0.577350269189626  0.577350269189626  0.577350269189626
  0.004496841067921  0.449204468739761  0.449204468739761  0.772289253148364
  0.005049153450479  0.252041949021020  0.252041949021020  0.934317778845812
  0.003976408018052  0.698190665844724  0.698190665844724  0.158302205463478
  0.004401400650381  0.658740524346096  0.658740524346096  0.363485684956727
  0.017245443505444  0.040385440500977  0.040385440500977  0.998367683967727
  0.004231083095357  0.582384230971558  0.000000000000000  0.812913653173365
  0.005198069864064  0.354587739051869  0.000000000000000  0.935022745880593
  0.004695720972569  0.227218180899819  0.486466153588665  0.843636521068894
   total no. of   reducible points: 230; test:  1.00000000
 -0.001313769127327  1.000000000000000  0.000000000000000  0.000000000000000
 -0.002522728704859  0.707106781186547  0.707106781186547  0.000000000000000
  0.004186853881701  0.577350269189626  0.577350269189626  0.577350269189626
  0.005315167977811  0.703937339158548  0.703937339158548  0.094575076403713
  0.004047142377086  0.101252624857241  0.101252624857241  0.989694807462905
  0.004112482394407  0.464744872642054  0.464744872642054  0.753673939250816
  0.003595584899759  0.327742065497163  0.327742065497163  0.886098344997499
  0.004256131351428  0.662033866369997  0.662033866369997  0.351315128564633
  0.004229582700647  0.850650808352040  0.000000000000000  0.525731112119134
  0.004080914225781  0.323348454269290  0.115311201100970  0.939227929749916
  0.004071467593831  0.231479015871260  0.524493924092236  0.819343388819120
   total no. of   reducible points: 266; test:  1.00000000
  0.000854591172513  1.000000000000000  0.000000000000000  0.000000000000000
  0.003599119285026  0.577350269189626  0.577350269189626  0.577350269189626
  0.003449788424306  0.351564034557011  0.351564034557011  0.867643624544083
  0.003604822601420  0.656632941021961  0.656632941021961  0.371034178384821
  0.003576729661743  0.472905413258100  0.472905413258100  0.743452042987556
  0.002352101413689  0.096183085226148  0.096183085226148  0.990705621379408
  0.003108953122414  0.221964523629418  0.221964523629418  0.949454317226443
  0.003650045807677  0.701176641608955  0.701176641608955  0.129238672710514
  0.002982344963172  0.264415288706066  0.000000000000000  0.964408914879206
  0.003600820932216  0.571895589187896  0.000000000000000  0.820326419827759
  0.003571540554273  0.251003475177047  0.800072749407395  0.544867737258077
  0.003392312205006  0.123354853258333  0.412772408316853  0.902442529533000
   total no. of   reducible points: 302; test:  1.00000000
  0.003006796749454  1.000000000000000  0.000000000000000  0.000000000000000
  0.003050627745651  0.577350269189626  0.577350269189626  0.577350269189626
  0.001621104600289  0.706896546391232  0.706896546391232  0.024383301669356
  0.003005701484902  0.479468262571203  0.479468262571203  0.734996850587746
  0.002990992529654  0.192753315487802  0.192753315487802  0.962129055136014
  0.002982170644108  0.693035796132712  0.693035796132712  0.198501311223365
  0.002721564237311  0.360830211552009  0.360830211552009  0.860001812127547
  0.003033513795811  0.649848616149617  0.649848616149617  0.394199888605839
  0.003007949555219  0.193294501323034  0.000000000000000  0.981140782843257
  0.002881964603055  0.380049491989930  0.000000000000000  0.924966152698679
  0.002958357626536  0.289955882549957  0.793453785658232  0.535123047718276
  0.003036020026407  0.096841214551040  0.828080150668686  0.552182074349399
  0.002832187403926  0.183343464704166  0.907465826530513  0.378009189874487
   total no. of   reducible points: 350; test:  1.00000000
  0.000526589796822  1.000000000000000  0.000000000000000  0.000000000000000
  0.002548219972003  0.707106781186547  0.707106781186547  0.000000000000000
  0.002512317418927  0.577350269189626  0.577350269189626  0.577350269189626
  0.002530403801186  0.690934630750911  0.690934630750911  0.212646824707552
  0.002014279020919  0.177483605460916  0.177483605460916  0.967987158791473
  0.002501725168403  0.491434263778475  0.491434263778475  0.719016501040843
  0.002513267174598  0.645666470742426  0.645666470742426  0.407712664897770
  0.002302694782227  0.286128901030764  0.286128901030764  0.914472801120872
  0.001462495621595  0.075680843671780  0.075680843671780  0.994255912631278
  0.002445373437313  0.392725976336800  0.392725976336800  0.831584400419232
  0.002417442375639  0.881813287779429  0.000000000000000  0.471598691151316
  0.001910951282180  0.977642811118265  0.000000000000000  0.210272522857307
  0.002416930044325  0.205482369640304  0.868946032287241  0.450233038258263
  0.002512236854563  0.590515704892527  0.799927854385729  0.106801826075805
  0.002496644054553  0.555015236107681  0.771746262691590  0.310428403516654
  0.002236607760438  0.937180985855372  0.334436314534346  0.099217696364292
   total no. of   reducible points: 434; test:  1.00000000
  0.000309512129531  1.000000000000000  0.000000000000000  0.000000000000000
  0.001852379698597  0.577350269189626  0.577350269189626  0.577350269189626
  0.001871790639278  0.704095493822747  0.704095493822747  0.092190407076898
  0.001858812585438  0.680774406645524  0.680774406645524  0.270356088359165
  0.001852028828296  0.637254693925875  0.637254693925875  0.433373868777154
  0.001846715956151  0.504441970780036  0.504441970780036  0.700768575373573
  0.001818471778163  0.421576178401097  0.421576178401097  0.802836877335274
  0.001749564657281  0.331792073647212  0.331792073647212  0.883078727934133
  0.001617210647254  0.238473670142189  0.238473670142189  0.941414158220403
  0.001384737234852  0.145903644915776  0.145903644915776  0.978480583762694
  0.000976433116505  0.060950341155072  0.060950341155072  0.996278129754016
  0.001857161196774  0.611684344200988  0.000000000000000  0.791101929626902
  0.001705153996396  0.396475534819986  0.000000000000000  0.918045287711454
  0.001300321685886  0.172478200990772  0.000000000000000  0.985013335028002
  0.001842866472905  0.561026380862206  0.351828092773352  0.749310611904116
  0.001802658934377  0.474239284255198  0.263471665593795  0.840047488359050
  0.001849830560444  0.598412649788538  0.181664084036021  0.780320742479920
  0.001713904507107  0.379103540769556  0.172079522565688  0.909213475092374
  0.001555213603397  0.277867319058624  0.082130215819325  0.957102074310073
  0.001802239128009  0.503356427107512  0.089992058420749  0.859379855890721
   total no. of   reducible points: 590; test:  1.00000000
  0.000219294208818  1.000000000000000  0.000000000000000  0.000000000000000
  0.001436433617319  0.707106781186547  0.707106781186547  0.000000000000000
  0.001421940344336  0.577350269189626  0.577350269189626  0.577350269189626
  0.000679812351105  0.050872044105024  0.050872044105024  0.997408677652823
  0.000991318423529  0.122819879017883  0.122819879017883  0.984799753572301
  0.001180207833239  0.202689081440879  0.202689081440879  0.958036675983391
  0.001296599602081  0.284774515646429  0.284774515646429  0.915317950483155
  0.001365871427428  0.365671907897803  0.365671907897803  0.855901928697887
  0.001402988604775  0.442826488671347  0.442826488671347  0.779621319527635
  0.001418645563596  0.514061962724974  0.514061962724974  0.686644447264154
  0.001421376741852  0.630640121916680  0.630640121916680  0.452311920313658
  0.001423996475491  0.671688333202261  0.671688333202261  0.312521305001653
  0.001431554042179  0.697979268533688  0.697979268533688  0.160155803498829
  0.000925440149987  0.144686567419531  0.000000000000000  0.989477537495599
  0.001250239995054  0.339026347541122  0.000000000000000  0.940776878793759
  0.001394365843329  0.533580465126351  0.000000000000000  0.845749305193653
  0.001127089094672  0.069440243933494  0.235518789424233  0.969385863498432
  0.001345753760911  0.226900410952946  0.410218247404573  0.883310360522113
  0.001424957283317  0.080255746077753  0.621430241748161  0.779348105702661
  0.001261523341238  0.146799952789657  0.324528434571739  0.934414827052402
  0.001392547106053  0.157150776982473  0.522448218969663  0.838064133458312
  0.001418761677878  0.236570299315725  0.601754663408956  0.762840624604670
  0.001338366684480  0.077148158667657  0.434657551614116  0.897285336132833
  0.001393700862676  0.306293666621073  0.490882658903762  0.815609223203975
  0.001415914757467  0.382247737952479  0.564876814909950  0.731300793659766
   total no. of   reducible points: 770; test:  1.00000000
  0.000143829419053  1.000000000000000  0.000000000000000  0.000000000000000
  0.001125772288287  0.577350269189626  0.577350269189626  0.577350269189626
  0.000494802934195  0.042929635453413  0.042929635453413  0.998155345023847
  0.000735799010913  0.105142685408640  0.105142685408640  0.988883224354686
  0.000888913277130  0.175002486762309  0.175002486762309  0.968890220434707
  0.000988834783892  0.247765337965026  0.247765337965026  0.936602730407163
  0.001053299681709  0.320656712395596  0.320656712395596  0.891267942647606
  0.001092778807015  0.391652074984998  0.391652074984998  0.832596723702352
  0.001114389394063  0.459082587418762  0.459082587418762  0.760582905315251
  0.001123724788052  0.521456388841586  0.521456388841586  0.675400969108414
  0.001125239325244  0.625317024465420  0.625317024465420  0.466858905695743
  0.001126153271816  0.663792674452317  0.663792674452317  0.344613654237438
  0.001130286931124  0.691041039849830  0.691041039849830  0.211954151850184
  0.001134986534364  0.705290700745776  0.705290700745776  0.071624401449956
  0.000682336792711  0.123668676265799  0.000000000000000  0.992323565431490
  0.000945415816045  0.294077711446839  0.000000000000000  0.955781512496548
  0.001074429975386  0.469775384920765  0.000000000000000  0.882785980701182
  0.001129300086569  0.633456324113957  0.000000000000000  0.773778447257375
  0.000843688450090  0.059740486141813  0.202912875277752  0.977372722845310
  0.001075255720449  0.137576040847364  0.460262194248405  0.877058461865803
  0.001108577236864  0.339101652633629  0.503067399966204  0.794942299964208
  0.000956647532378  0.127167519143982  0.281760642244213  0.951020169374390
  0.001080663250717  0.269312074041351  0.433156129172016  0.860143461601762
  0.001126797131196  0.141978645260192  0.625616735858081  0.767102186220558
  0.001022568715358  0.067092846007383  0.379839521685916  0.922616110730809
  0.001108960267713  0.070577381832562  0.551750542142352  0.831017552413474
  0.001122790653436  0.278388847788215  0.602961915615919  0.747620610834086
  0.001032401847117  0.197957893891741  0.358960632958910  0.912118378409121
  0.001107249382284  0.208730706110327  0.534866643813548  0.818748536281022
  0.001121780048520  0.405512213787284  0.567499754607437  0.716591845467024
   total no. of   reducible points: 974; test:  1.00000000
  0.000110518923327  1.000000000000000  0.000000000000000  0.000000000000000
  0.000920523273809  0.707106781186547  0.707106781186547  0.000000000000000
  0.000913315978644  0.577350269189626  0.577350269189626  0.577350269189626
  0.000369042189802  0.037126364496571  0.037126364496571  0.998620681799919
  0.000560399092868  0.091400604122622  0.091400604122622  0.991610739722014
  0.000686529762928  0.153107785246991  0.153107785246991  0.976276606394685
  0.000772033855115  0.218092889166061  0.218092889166061  0.951247067480579
  0.000830154595889  0.283987453220018  0.283987453220018  0.915806886208668
  0.000868669255018  0.349117760096376  0.349117760096376  0.869616915181954
  0.000892707628585  0.412143146144431  0.412143146144431  0.812573722299916
  0.000906082023857  0.471899362714913  0.471899362714913  0.744729469632107
  0.000911977725494  0.527314545284234  0.527314545284234  0.666242253736104
  0.000912872013860  0.620947533244402  0.620947533244402  0.478380938076952
  0.000913071493569  0.656972271185729  0.656972271185729  0.369830866459426
  0.000915287378455  0.684178830907014  0.684178830907014  0.252583955700718
  0.000918743627432  0.701260433012363  0.701260433012363  0.128326186659723
  0.000517697731297  0.107238221547817  0.000000000000000  0.994233354821322
  0.000733114368210  0.258206895949697  0.000000000000000  0.966089643296119
  0.000846323283638  0.417275295530672  0.000000000000000  0.908780131681911
  0.000903112269425  0.570036691179250  0.000000000000000  0.821619237061433
  0.000648577845316  0.982798601826395  0.177177402261533  0.052106394770113
  0.000743503091098  0.962424923032623  0.247571646342629  0.111564095715648
  0.000799852789184  0.940200799412881  0.335461628906649  0.059058888532354
  0.000810173149747  0.932082204014320  0.317361524661198  0.174655167757863
  0.000848338957459  0.904367419939330  0.409026842708536  0.121723505109599
  0.000855629925731  0.891240756007475  0.385429115066922  0.239027847938172
  0.000880320867974  0.867643562846271  0.493222118485128  0.062662506241542
  0.000881104818243  0.858197998604162  0.478532067592243  0.185750519454734
  0.000885028234127  0.839675362404986  0.450742259315706  0.302946697352898
  0.000902134229904  0.816528856402219  0.563212302076210  0.126777480068428
  0.000901009167711  0.801546937078353  0.543430356969390  0.249411216236224
  0.000902269293843  0.777356306907035  0.512351848641987  0.364983226059765
  0.000915801617469  0.766162121390039  0.639427963474910  0.064245492242208
  0.000913157800319  0.755358414353351  0.626980550902439  0.190601822277923
  0.000910781357948  0.734430575755950  0.603116169309631  0.311227594714961
  0.000910576025897  0.704383718402177  0.569370249846844  0.423864478152234
   total no. of   reducible points:1202; test:  1.00000000
  0.000077771607433  1.000000000000000  0.000000000000000  0.000000000000000
  0.000755764641300  0.577350269189626  0.577350269189626  0.577350269189626
  0.000284163380609  0.032292906634139  0.032292906634139  0.998956623864238
  0.000437441912705  0.080367332714622  0.080367332714622  0.993520097262594
  0.000541717474087  0.135428996053165  0.135428996053165  0.981487633165117
  0.000614800089136  0.193896386111443  0.193896386111443  0.961669580940275
  0.000666439448580  0.253734371501127  0.253734371501127  0.933401166400522
  0.000702503935692  0.313525143475257  0.313525143475257  0.896328047546008
  0.000726851178925  0.372155833937534  0.372155833937534  0.850294108254619
  0.000742263753421  0.428680957519570  0.428680957519570  0.795276853253136
  0.000750954503584  0.482251012828299  0.482251012828299  0.731346649169981
  0.000754853505772  0.532067933356626  0.532067933356626  0.658640591360127
  0.000755408896977  0.617299819539427  0.617299819539427  0.487731345715221
  0.000755314717444  0.651067984912748  0.651067984912748  0.390155043595885
  0.000756476765329  0.677731525168736  0.677731525168736  0.285236672931301
  0.000758799180852  0.696310941064874  0.696310941064874  0.174075117999957
  0.000760826183203  0.705893500983175  0.705893500983175  0.058555363028785
  0.000402168044787  0.995554619409186  0.000000000000000  0.094185985013862
  0.000580487179395  0.973411590179421  0.000000000000000  0.229063039585986
  0.000679215195595  0.927569373238863  0.000000000000000  0.373650983980055
  0.000733674121129  0.856802242279510  0.000000000000000  0.515645147000147
  0.000758186630099  0.762349555371937  0.000000000000000  0.647165477620840
  0.000753825785980  0.570752290889222  0.438702803988950  0.694104943230444
  0.000748351724705  0.519646338840308  0.385890841476262  0.762270254565011
  0.000737176366111  0.464633753121535  0.330193737234385  0.821637128756598
  0.000718344889576  0.406390169755769  0.272542357356378  0.872105322408083
  0.000689581552982  0.345632946664309  0.213951023749525  0.913653558859526
  0.000648010580179  0.283139512105033  0.155592230978665  0.946373644151191
  0.000589755889659  0.219768202292533  0.098928789796861  0.970523071240677
  0.000509570884925  0.156469609865035  0.045986429106755  0.986611630545015
  0.000753690642891  0.602735667372129  0.337662514017343  0.722975616397235
  0.000747250596558  0.549603232025510  0.282230130972799  0.786309379645309
  0.000734301713228  0.492170775523457  0.224863234259254  0.840954489612314
  0.000713087158218  0.430942299859848  0.166622472345648  0.886862833757808
  0.000681702203211  0.366410818231367  0.108696490182217  0.924082347686118
  0.000638094114560  0.299018905775844  0.052519897841201  0.952800794667682
  0.000755038137792  0.626872401314500  0.229752365755002  0.744476220506856
  0.000747864664014  0.570732414483461  0.172308060709380  0.802853936449496
  0.000733591872060  0.509636090196037  0.114023846539051  0.852801042441985
  0.000711012052766  0.443872993831246  0.056115220958825  0.894330949550573
  0.000757136397869  0.641997847108239  0.116417442314087  0.757816431224233
  0.000748990832908  0.581721806180261  0.057975895314452  0.811319009870262
   total no. of   reducible points:1454; test:  1.00000000
  qrot: 

              1        2        3      
    1    1.0000   0.0000   0.0000
    2    0.0000   1.0000   0.0000
    3    0.0000   0.0000   1.0000
  me                      0   done genpts
  me                      2   done genpts
  me                      5   done genpts
  me                      6   done genpts
  me                      3   done genpts
  me                      4   done genpts
  me                      7   done genpts
  me                      8   done genpts
  me                      9   done genpts
  me                     10   done genpts
  me                     11   done genpts
  me                     12   done genpts
  me                     13   done genpts
  me                     14   done genpts
  me                     15   done genpts
  me                      1   done genpts
  me                      0   done uprt
  me                      1   done uprt
  me                      2   done uprt
  me                      3   done uprt
  me                      4   done uprt
  me                      5   done uprt
  me                      6   done uprt
  me                      7   done uprt
  me                      8   done uprt
  me                      9   done uprt
  me                     10   done uprt
  me                     11   done uprt
  me                     12   done uprt
  me                     13   done uprt
  me                     14   done uprt
  me                     15   done uprt
  me                      0  done mem
  me                      1  done mem
  me                      2  done mem
  me                      3  done mem
  me                      4  done mem
  me                      5  done mem
  me                      6  done mem
  me                      7  done mem
  me                      8  done mem
  me                      9  done mem
  me                     10  done mem
  me                     11  done mem
  me                     12  done mem
  me                     13  done mem
  me                     14  done mem
  me                     15  done mem
  itol2e modified to match energy
  convergence criterion.
  tol_rho modified to match energy
  convergence criterion.
  dftinpanae: itol2e                      9  iaoacc                     18 
  tol_rho   1.000000000000000E-011
 
            General Information
            -------------------
          SCF calculation type: DFT
          Wavefunction type:  closed shell.
          No. of atoms     :     1
          No. of electrons :     6
           Alpha electrons :     3
            Beta electrons :     3
          Charge           :     0
          Spin multiplicity:     1
          Use of symmetry is: off; symmetry adaption is: off
          Maximum number of iterations:  30
          This is a Direct SCF calculation.
          AO basis - number of functions:     9
                     number of shells:     5
          Convergence on energy requested:  1.00D-08
          Convergence on density requested:  1.00D-05
          Convergence on gradient requested:  5.00D-04
 
              XC Information
              --------------
                         PBE0 Method XC Functional
                     Hartree-Fock (Exact) Exchange  0.250          
          PerdewBurkeErnzerhof Exchange Functional  0.750          
            Perdew 1991 LDA Correlation Functional  1.000 local    
           PerdewBurkeErnz. Correlation Functional  1.000 non-local
 
             Grid Information
             ----------------
          Grid used for XC integration:  xfine     
          Radial quadrature: Mura-Knowles        
          Angular quadrature: Lebedev. 
          Tag              B.-S. Rad. Rad. Pts. Rad. Cut. Ang. Pts.
          ---              ---------- --------- --------- ---------
          C                   0.70      100           5.0      1454
          Grid pruning is: on 
          Number of quadrature shells:   100
          Spatial weights used:  Erf1
 
          Convergence Information
          -----------------------
          Convergence aids based upon iterative change in 
          total energy or number of iterations. 
          Levelshifting, if invoked, occurs when the 
          HOMO/LUMO gap drops below (HL_TOL):  1.00D-02
          DIIS, if invoked, will attempt to extrapolate 
          using up to (NFOCK): 10 stored Fock matrices.

                    Damping( 0%)  Levelshifting(0.5)       DIIS
                  --------------- ------------------- ---------------
          dE  on:    start            ASAP                start   
          dE off:    2 iters         30 iters            30 iters 

 
      Screening Tolerance Information
      -------------------------------
          Density screening/tol_rho:  1.00D-11
          AO Gaussian exp screening on grid/accAOfunc:  18
          CD Gaussian exp screening on grid/accCDfunc:  20
          XC Gaussian exp screening on grid/accXCfunc:  20
          Schwarz screening/accCoul:  1.00D-09

 
 
                         Geometry "geometry" -> "geometry"
                         ---------------------------------
 
 Output coordinates in angstroms (scale by  1.889725989 to convert to a.u.)
 
  No.       Tag          Charge          X              Y              Z
 ---- ---------------- ---------- -------------- -------------- --------------
    1 C                    6.0000     0.00000000     0.00000000     0.00000000
 
      Atomic Mass 
      ----------- 
 
      C                 12.000000
 

 Effective nuclear repulsion energy (a.u.)       0.0000000000

            Nuclear Dipole moment (a.u.) 
            ----------------------------
        X                 Y               Z
 ---------------- ---------------- ----------------
     0.0000000000     0.0000000000     0.0000000000
 


     <<<<<<    Before call to DFT_SCF.    >>>>>>
     <<<<<< date:  Oct 24  time: 14:36:28 >>>>>>


 Setting tolerance for linear dependence to 1.00D-05

 Setting tolerance for linear dependence to 1.00D-05

 Setting tolerance for linear dependence to 1.00D-05

 Setting tolerance for linear dependence to 1.00D-05

 Setting tolerance for linear dependence to 1.00D-05

 Setting tolerance for linear dependence to 1.00D-05

 Setting tolerance for linear dependence to 1.00D-05

 Setting tolerance for linear dependence to 1.00D-05

 Setting tolerance for linear dependence to 1.00D-05

 Setting tolerance for linear dependence to 1.00D-05

 Setting tolerance for linear dependence to 1.00D-05

 Setting tolerance for linear dependence to 1.00D-05

 Setting tolerance for linear dependence to 1.00D-05

 Setting tolerance for linear dependence to 1.00D-05

 Setting tolerance for linear dependence to 1.00D-05

 Setting tolerance for linear dependence to 1.00D-05
  lindep tolerance =   1.000000000000000E-005
  lindep tolerance =   1.000000000000000E-005
  lindep tolerance =   1.000000000000000E-005
  lindep tolerance =   1.000000000000000E-005
  lindep tolerance =   1.000000000000000E-005
  lindep tolerance =   1.000000000000000E-005
  lindep tolerance =   1.000000000000000E-005
  lindep tolerance =   1.000000000000000E-005
  lindep tolerance =   1.000000000000000E-005
  lindep tolerance =   1.000000000000000E-005
  lindep tolerance =   1.000000000000000E-005
  lindep tolerance =   1.000000000000000E-005
  lindep tolerance =   1.000000000000000E-005
  lindep tolerance =   1.000000000000000E-005
  lindep tolerance =   1.000000000000000E-005
  lindep tolerance =   1.000000000000000E-005


     <<<<<<    Before 3c-2e initialize.   >>>>>>
     <<<<<< date:  Oct 24  time: 14:36:28 >>>>>>


 Setting fock-build task_bf   :      -1
                    maxquartet:   10000
                    maxeri    :  129600
                    maxscr    :       0
                    intacc    : 0.0D+00
                    denscreen : T
                    dentol    : 1.0D-06

 
      Superposition of Atomic Density Guess
      -------------------------------------
 
 Sum of atomic energies:         -37.66025415
 
      Non-variational initial energy
      ------------------------------

 Total energy =     -37.298070
 1-e energy   =     -50.455020
 2-e energy   =      13.156950
 HOMO         =      -0.057689
 LUMO         =      -0.057689
 

 Setting fock-build task_bf   :      -1
                    maxquartet:   10000
                    maxeri    :  129600
                    maxscr    :       0
                    intacc    : 0.0D+00
                    denscreen : T
                    dentol    : 1.0D-06


 Wrote molecular orbitals to ./carbon_fon.movecs

   Time after variat. SCF:      0.3
     FON applied
     tr(P*S):    58.000000E-01
             alpha eigenvalues
             -----------------
      (all occupied plus 10 virtual)
      ------------------------------

              1      
    1  -11.3231
    2   -0.6996
    3   -0.0577
    4   -0.0577
    5   -0.0577
    6    0.7816
    7    0.7816
    8    0.7816
    9    0.7948
                alpha foccs
                -----------

              1      
    1    2.0000
    2    2.0000
    3    0.6000
    4    0.6000
    5    0.6000
 
                              Intermediate MO vectors
                              -----------------------
 

 global array: alpha evecs[1:9,1:9],  handle: -995 

            1           2           3           4           5           6  
       ----------- ----------- ----------- ----------- ----------- -----------
   1       0.99657    -0.22704    -0.00000    -0.00000    -0.00000     0.00000
   2       0.01951     0.46981     0.00000     0.00000    -0.00000    -0.00000
   3       0.00000    -0.00000     0.05325    -0.08409     0.52126    -0.09825
   4       0.00000    -0.00000     0.00529     0.52396     0.08399    -0.00124
   5       0.00000    -0.00000     0.52797     0.00323    -0.05341     1.09059
   6      -0.00519     0.60357     0.00000    -0.00000     0.00000     0.00000
   7       0.00000    -0.00000     0.05996    -0.09469     0.58693     0.09511
   8      -0.00000     0.00000     0.00596     0.58997     0.09457     0.00120
   9       0.00000    -0.00000     0.59449     0.00364    -0.06014    -1.05572

            7           8           9  
       ----------- ----------- -----------
   1      -0.00000     0.00000    -0.07644
   2       0.00000    -0.00000     1.66191
   3       0.81904    -0.72010    -0.00000
   4       0.72293     0.82243    -0.00000
   5       0.07461    -0.06394     0.00000
   6      -0.00000     0.00000    -1.60480
   7      -0.79286     0.69708     0.00000
   8      -0.69982    -0.79614     0.00000
   9      -0.07223     0.06189    -0.00000

 Setting fock-build task_bf   :      -1
                    maxquartet:   10000
                    maxeri    :  129600
                    maxscr    :       0
                    intacc    : 0.0D+00
                    denscreen : T
                    dentol    : 1.0D-06

   Time prior to 1st pass:      0.3


     <<<<<<      Before SCF iter loop.    >>>>>>
     <<<<<< date:  Oct 24  time: 14:36:28 >>>>>>

           DAMPING=T LEVELSHIFTING=T DIISING=T
          itol2e= 7 iAOacc=12 iXCacc=20
     FON applied
     tr(P*S):    0.5800000E+01


     <<<<<<            calling 1-e int    >>>>>>
     <<<<<< date:  Oct 24  time: 14:36:28 >>>>>>

    Kinetic Matrix Time:          0.0s

           Kinetic energy =     36.997622081103

    Potential Matrix Time:          0.0s


     <<<<<<    Before call to GETVCOUL.   >>>>>>
     <<<<<< date:  Oct 24  time: 14:36:28 >>>>>>



     <<<<<<    Before call to GETVXC.     >>>>>>
     <<<<<< date:  Oct 24  time: 14:36:28 >>>>>>



     <<<<<<    Before call to fock_2e.    >>>>>>
     <<<<<< date:  Oct 24  time: 14:36:28 >>>>>>



     <<<<<<     After call to fock_2e.    >>>>>>
     <<<<<< date:  Oct 24  time: 14:36:28 >>>>>>

    Fock_2e Build Time:          0.0s
  *** grid_quadv0:                    calc_type:                     1
  *** grid_quadv0:                    grid_written: F
  *** grid_quadv0:                    grad: T
  *** grid_quadv0:                    kske: F
  *** grid_quadv0:                    do_scf: T
  *** grid_quadv0:                    fde_option:                     0
  *** grid_quadv0:                    n_per_rec:                  3070
  *** grid_quadv0:                    calc_type:                     1
  *** grid_quadv0:                    grid_written: F
  *** grid_quadv0:                    grad: T
  *** grid_quadv0:                    kske: F
  *** grid_quadv0:                    do_scf: T
  *** grid_quadv0:                    fde_option:                     0
  *** grid_quadv0:                    n_per_rec:                  3070
  *** grid_quadv0:                    calc_type:                     1
  *** grid_quadv0:                    grid_written: F
  *** grid_quadv0:                    grad: T
  *** grid_quadv0:                    kske: F
  *** grid_quadv0:                    do_scf: T
  *** grid_quadv0:                    fde_option:                     0
  *** grid_quadv0:                    n_per_rec:                  3070
  *** grid_quadv0:                    calc_type:                     1
  *** grid_quadv0:                    calc_type:                     1
  *** grid_quadv0:                    grid_written: F
  *** grid_quadv0:                    grad: T
  *** grid_quadv0:                    kske: F
  *** grid_quadv0:                    do_scf: T
  *** grid_quadv0:                    fde_option:                     0
  *** grid_quadv0:                    n_per_rec:                  3070
  *** grid_quadv0:                    calc_type:                     1
  *** grid_quadv0:                    grid_written: F
  *** grid_quadv0:                    grad: T
  *** grid_quadv0:                    kske: F
  *** grid_quadv0:                    do_scf: T
  *** grid_quadv0:                    fde_option:                     0
  *** grid_quadv0:                    n_per_rec:                  3070
  *** grid_quadv0:                    calc_type:                     1
  *** grid_quadv0:                    grid_written: F
  *** grid_quadv0:                    grad: T
  *** grid_quadv0:                    kske: F
  *** grid_quadv0:                    do_scf: T
  *** grid_quadv0:                    fde_option:                     0
  *** grid_quadv0:                    n_per_rec:                  3070
  *** grid_quadv0:                    calc_type:                     1
  *** grid_quadv0:                    grid_written: F
  *** grid_quadv0:                    grad: T
  *** grid_quadv0:                    kske: F
  *** grid_quadv0:                    do_scf: T
  *** grid_quadv0:                    fde_option:                     0
  *** grid_quadv0:                    n_per_rec:                  3070
  *** grid_quadv0:                    calc_type:                     1
  *** grid_quadv0:                    grid_written: F
  *** grid_quadv0:                    grad: T
  *** grid_quadv0:                    kske: F
  *** grid_quadv0:                    do_scf: T
  *** grid_quadv0:                    fde_option:                     0
  *** grid_quadv0:                    n_per_rec:                  3070
  *** grid_quadv0:                    calc_type:                     1
  *** grid_quadv0:                    grid_written: F
  *** grid_quadv0:                    grad: T
  *** grid_quadv0:                    kske: F
  *** grid_quadv0:                    do_scf: T
  *** grid_quadv0:                    fde_option:                     0
  *** grid_quadv0:                    n_per_rec:                  3070
  *** grid_quadv0:                    calc_type:                     1
  *** grid_quadv0:                    grid_written: F
  *** grid_quadv0:                    grad: T
  *** grid_quadv0:                    kske: F
  *** grid_quadv0:                    do_scf: T
  *** grid_quadv0:                    fde_option:                     0
  *** grid_quadv0:                    n_per_rec:                  3070
  *** grid_quadv0:                    calc_type:                     1
  *** grid_quadv0:                    grid_written: F
  *** grid_quadv0:                    grad: T
  *** grid_quadv0:                    kske: F
  *** grid_quadv0:                    do_scf: T
  *** grid_quadv0:                    fde_option:                     0
  *** grid_quadv0:                    n_per_rec:                  3070
  *** grid_quadv0:                    calc_type:                     1
  *** grid_quadv0:                    grid_written: F
  *** grid_quadv0:                    grad: T
  *** grid_quadv0:                    kske: F
  *** grid_quadv0:                    do_scf: T
  *** grid_quadv0:                    fde_option:                     0
  *** grid_quadv0:                    n_per_rec:                  3070
  *** grid_quadv0:                    calc_type:                     1
  *** grid_quadv0:                    grid_written: F
  *** grid_quadv0:                    grad: T
  *** grid_quadv0:                    kske: F
  *** grid_quadv0:                    do_scf: T
  *** grid_quadv0:                    fde_option:                     0
  *** grid_quadv0:                    n_per_rec:                  3070
  *** grid_quadv0:                    calc_type:                     1
  *** grid_quadv0:                    grid_written: F
  *** grid_quadv0:                    grad: T
  *** grid_quadv0:                    kske: F
  *** grid_quadv0:                    do_scf: T
  *** grid_quadv0:                    fde_option:                     0
  *** grid_quadv0:                    n_per_rec:                  3070
  *** grid_quadv0:                    calc_type:                     1
  *** grid_quadv0:                    grid_written: F
  *** grid_quadv0:                    grad: T
  *** grid_quadv0:                    kske: F
  *** grid_quadv0:                    do_scf: T
  *** grid_quadv0:                    fde_option:                     0
  *** grid_quadv0:                    n_per_rec:                  3070
  *** grid_quadv0:                    grid_written: F
  *** grid_quadv0:                    grad: T
  *** grid_quadv0:                    kske: F
  *** grid_quadv0:                    do_scf: T
  *** grid_quadv0:                    fde_option:                     0
  *** grid_quadv0:                    n_per_rec:                  3070
  going xcreplicated 
   0: nuse=  19(  18.8) avail=117354922Mb (out of117354922Mb) on .
   2: nuse=  19(  18.8) avail=117354922Mb (out of117354922Mb) on .
   5: nuse=  19(  18.8) avail=117354922Mb (out of117354922Mb) on .
   6: nuse=  19(  18.8) avail=117354922Mb (out of117354922Mb) on .
   7: nuse=  19(  18.8) avail=117354922Mb (out of117354922Mb) on .
   8: nuse=  19(  18.8) avail=117354922Mb (out of117354922Mb) on .
   9: nuse=  19(  18.8) avail=117354922Mb (out of117354922Mb) on .
  10: nuse=  19(  18.8) avail=117354922Mb (out of117354922Mb) on .
  11: nuse=  19(  18.8) avail=117354922Mb (out of117354922Mb) on .
  12: nuse=  19(  18.8) avail=117354922Mb (out of117354922Mb) on .
  13: nuse=  19(  18.8) avail=117354922Mb (out of117354922Mb) on .
  14: nuse=  19(  18.8) avail=117354922Mb (out of117354922Mb) on .
   3: nuse=  19(  18.8) avail=117354922Mb (out of117354922Mb) on .
   4: nuse=  19(  18.8) avail=117354922Mb (out of117354922Mb) on .
  15: nuse=  19(  18.8) avail=117354922Mb (out of117354922Mb) on .
   1: nuse=  19(  18.8) avail=117354922Mb (out of117354922Mb) on .
 l_cube input   11.00

  atom type   l_cube   no. cubes   segmts   rad   sub
 ----------- -------- ----------- -------- ----- -----
        1      6.00        34         3       9     8

 Grid_pts file          = ./carbon_fon.gridpts.00
 Record size in doubles =  12289        No. of grid_pts per rec  =   3070
 Max. records in memory =      5        Max. recs in file   = *********

 me   0 NQTOTC NQ/cube    6387    6387
 me   1 NQTOTC NQ/cube    5848    5848
 me   2 NQTOTC NQ/cube    5848    5848
 me   3 NQTOTC NQ/cube    5398    5398
 me   4 NQTOTC NQ/cube    5848    5848
 me   5 NQTOTC NQ/cube    5398    5398
 me   6 NQTOTC NQ/cube    5398    5398
 me   7 NQTOTC NQ/cube    5037    5037
 me   8 NQTOTC NQ/cube    1539     384
 me   9 NQTOTC NQ/cube     820     205
 me  10 NQTOTC NQ/cube    1539     384
 me  11 NQTOTC NQ/cube     615     205
 me  12 NQTOTC NQ/cube    1435     717
 me  13 NQTOTC NQ/cube    1793     597
 me  14 NQTOTC NQ/cube    2818     939
 me  15 NQTOTC NQ/cube     615     205
 
 XC quadr. integrated density :       5.800000 npts:    56136 nctrs:        1
 
    Fock_xc Build Time:          0.5s


     <<<<<<    End of parallel region.    >>>>>>
     <<<<<< date:  Oct 24  time: 14:36:30 >>>>>>

    Total Fock Matrix Build Time:          0.5s
 Etnew, Ecore, Ecoul, Exc(1), Exc(2), Totsic:   -37.6025154469573     
  -49.3285572807459        16.6078589374493       -4.88181710366072     
  0.000000000000000E+000  0.000000000000000E+000
  delta =   -37.6025154469573     


         Total DFT energy =    -37.602515446957
      One electron energy =    -49.328557280746
           Coulomb energy =     16.607858937449
    Exchange-Corr. energy =     -4.881817103661
 Nuclear repulsion energy =      0.000000000000

 Numeric. integr. density =      5.799999996750

     Total iterative time =      0.8s




     <<<<<<        calling diis driver    >>>>>>
     <<<<<< date:  Oct 24  time: 14:36:30 >>>>>>

  delta =   -37.6025154469573     
  delta =   -37.6025154469573     
  delta =   -37.6025154469573     
  delta =   -37.6025154469573     
  delta =   -37.6025154469573     
  delta =   -37.6025154469573     
  delta =   -37.6025154469573     
  delta =   -37.6025154469573     
  delta =   -37.6025154469573     
  delta =   -37.6025154469573     
  delta =   -37.6025154469573     
  delta =   -37.6025154469573     
  delta =   -37.6025154469573     
  delta =   -37.6025154469573     
  delta =   -37.6025154469573     


     <<<<<<         called diis driver    >>>>>>
     <<<<<< date:  Oct 24  time: 14:36:30 >>>>>>


 global array: fock transf[1:9,1:9],  handle: -967 

            1           2           3           4           5           6  
       ----------- ----------- ----------- ----------- ----------- -----------
   1     -10.63820    -0.02946     0.00000    -0.00000     0.00000    -0.00000
   2      -0.02946    -0.70232    -0.00000     0.00000     0.00000     0.00000
   3       0.00000    -0.00000    -0.28152     0.00000    -0.00000    -0.09711
   4      -0.00000     0.00000     0.00000    -0.28152    -0.00000    -0.00189
   5       0.00000     0.00000    -0.00000    -0.00000    -0.28152     0.01865
   6      -0.00000     0.00000    -0.09711    -0.00189     0.01865     0.42031
   7       0.00000    -0.00000    -0.01478    -0.05279    -0.08232    -0.00000
   8      -0.00000     0.00000     0.01153    -0.08361     0.05155    -0.00000
   9      -0.03509    -0.04876    -0.00000    -0.00000     0.00000    -0.00000

            7           8           9  
       ----------- ----------- -----------
   1       0.00000    -0.00000    -0.03509
   2      -0.00000     0.00000    -0.04876
   3      -0.01478     0.01153    -0.00000
   4      -0.05279    -0.08361    -0.00000
   5      -0.08232     0.05155     0.00000
   6      -0.00000    -0.00000    -0.00000
   7       0.42031     0.00000    -0.00000
   8       0.00000     0.42031    -0.00000
   9      -0.00000    -0.00000     0.48894


     <<<<<<               calling diag    >>>>>>
     <<<<<< date:  Oct 24  time: 14:36:30 >>>>>>



     <<<<<<                called diag    >>>>>>
     <<<<<< date:  Oct 24  time: 14:36:30 >>>>>>

    Diagonalization Time:          0.0s
           HOMO =  -0.295 LUMO =  -0.295 RLSHIFT =   0.000 HL_GAP =   0.000


     <<<<<<              calling densm    >>>>>>
     <<<<<< date:  Oct 24  time: 14:36:30 >>>>>>



     <<<<<<               called densm    >>>>>>
     <<<<<< date:  Oct 24  time: 14:36:30 >>>>>>


           Memory utilization after 1st SCF pass: 
           Heap Space remaining (MW):       13.04            13044676
          Stack Space remaining (MW):       13.11            13107028

   convergence    iter        energy       DeltaE   RMS-Dens  Diis-err    time
 ---------------- ----- ----------------- --------- --------- ---------  ------
 d= 0,ls=0.0,diis     1    -37.6025154470 -3.76D+01  3.57D-02  5.00D-02     0.8

 Wrote molecular orbitals to ./carbon_fon.movecs

             alpha eigenvalues
             -----------------
      (all occupied plus 10 virtual)
      ------------------------------

              1      
    1  -10.6384
    2   -0.7042
    3   -0.2952
    4   -0.2952
    5   -0.2952
    6    0.4340
    7    0.4340
    8    0.4340
    9    0.4910
                alpha foccs
                -----------

              1      
    1    2.0000
    2    2.0000
    3    0.6000
    4    0.6000
    5    0.6000
 
                              Intermediate MO vectors
                              -----------------------
 

 global array: alpha evecs[1:9,1:9],  handle: -995 

            1           2           3           4           5           6  
       ----------- ----------- ----------- ----------- ----------- -----------
   1       0.99564    -0.23306     0.00000     0.00000    -0.00000    -0.00000
   2       0.02617     0.53707    -0.00000    -0.00000     0.00000     0.00000
   3       0.00000     0.00000     0.43226    -0.30437    -0.42066    -0.11152
   4      -0.00000    -0.00000     0.27943    -0.32497     0.52227     0.29181
   5       0.00000     0.00000     0.43762     0.50814     0.08203     0.96260
   6      -0.00847     0.53770    -0.00000    -0.00000    -0.00000    -0.00000
   7      -0.00000    -0.00000     0.28585    -0.20127    -0.27818     0.12472
   8       0.00000     0.00000     0.18478    -0.21489     0.34537    -0.32636
   9      -0.00000     0.00000     0.28939     0.33602     0.05425    -1.07656

            7           8           9  
       ----------- ----------- -----------
   1      -0.00000    -0.00000    -0.07016
   2      -0.00000     0.00000     1.64131
   3       0.78626     0.62734    -0.00000
   4      -0.57875     0.77723    -0.00000
   5       0.26654    -0.16294    -0.00000
   6       0.00000    -0.00000    -1.62804
   7      -0.87934    -0.70161     0.00000
   8       0.64726    -0.86924     0.00000
   9      -0.29809     0.18223     0.00000


     <<<<<<             calling scfcvg    >>>>>>
     <<<<<< date:  Oct 24  time: 14:36:30 >>>>>>



     <<<<<<              called scfcvg    >>>>>>
     <<<<<< date:  Oct 24  time: 14:36:30 >>>>>>

           DAMPING=T LEVELSHIFTING=F DIISING=T
          itol2e= 7 iAOacc=12 iXCacc=20
     FON applied
     tr(P*S):    0.5800000E+01


     <<<<<<            calling 1-e int    >>>>>>
     <<<<<< date:  Oct 24  time: 14:36:30 >>>>>>

    Kinetic Matrix Time:          0.0s

           Kinetic energy =     37.730188673508

    Potential Matrix Time:          0.0s


     <<<<<<    Before call to GETVCOUL.   >>>>>>
     <<<<<< date:  Oct 24  time: 14:36:30 >>>>>>



     <<<<<<    Before call to GETVXC.     >>>>>>
     <<<<<< date:  Oct 24  time: 14:36:30 >>>>>>



     <<<<<<    Before call to fock_2e.    >>>>>>
     <<<<<< date:  Oct 24  time: 14:36:30 >>>>>>



     <<<<<<     After call to fock_2e.    >>>>>>
     <<<<<< date:  Oct 24  time: 14:36:30 >>>>>>

    Fock_2e Build Time:          0.0s
  *** grid_quadv0:                    calc_type:                     1
  *** grid_quadv0:                    grid_written: T
  *** grid_quadv0:                    grad: T
  *** grid_quadv0:                    kske: F
  *** grid_quadv0:                    do_scf: T
  *** grid_quadv0:                    fde_option:                     0
  *** grid_quadv0:                    n_per_rec:                  3070
  *** grid_quadv0:                    calc_type:                     1
  *** grid_quadv0:                    grid_written: T
  *** grid_quadv0:                    grad: T
  *** grid_quadv0:                    kske: F
  *** grid_quadv0:                    do_scf: T
  *** grid_quadv0:                    fde_option:                     0
  *** grid_quadv0:                    n_per_rec:                  3070
  *** grid_quadv0:                    calc_type:                     1
  *** grid_quadv0:                    grid_written: T
  *** grid_quadv0:                    grad: T
  *** grid_quadv0:                    kske: F
  *** grid_quadv0:                    do_scf: T
  *** grid_quadv0:                    fde_option:                     0
  *** grid_quadv0:                    n_per_rec:                  3070
  *** grid_quadv0:                    calc_type:                     1
  *** grid_quadv0:                    grid_written: T
  *** grid_quadv0:                    grad: T
  *** grid_quadv0:                    kske: F
  *** grid_quadv0:                    do_scf: T
  *** grid_quadv0:                    fde_option:                     0
  *** grid_quadv0:                    n_per_rec:                  3070
  *** grid_quadv0:                    calc_type:                     1
  *** grid_quadv0:                    grid_written: T
  *** grid_quadv0:                    grad: T
  *** grid_quadv0:                    kske: F
  *** grid_quadv0:                    do_scf: T
  *** grid_quadv0:                    fde_option:                     0
  *** grid_quadv0:                    n_per_rec:                  3070
  *** grid_quadv0:                    calc_type:                     1
  *** grid_quadv0:                    grid_written: T
  *** grid_quadv0:                    grad: T
  *** grid_quadv0:                    kske: F
  *** grid_quadv0:                    do_scf: T
  *** grid_quadv0:                    fde_option:                     0
  *** grid_quadv0:                    n_per_rec:                  3070
  *** grid_quadv0:                    calc_type:                     1
  *** grid_quadv0:                    grid_written: T
  *** grid_quadv0:                    grad: T
  *** grid_quadv0:                    kske: F
  *** grid_quadv0:                    do_scf: T
  *** grid_quadv0:                    fde_option:                     0
  *** grid_quadv0:                    n_per_rec:                  3070
  *** grid_quadv0:                    calc_type:                     1
  *** grid_quadv0:                    grid_written: T
  *** grid_quadv0:                    grad: T
  *** grid_quadv0:                    kske: F
  *** grid_quadv0:                    do_scf: T
  *** grid_quadv0:                    fde_option:                     0
  *** grid_quadv0:                    n_per_rec:                  3070
  *** grid_quadv0:                    calc_type:                     1
  *** grid_quadv0:                    grid_written: T
  *** grid_quadv0:                    grad: T
  *** grid_quadv0:                    kske: F
  *** grid_quadv0:                    do_scf: T
  *** grid_quadv0:                    fde_option:                     0
  *** grid_quadv0:                    n_per_rec:                  3070
  *** grid_quadv0:                    calc_type:                     1
  *** grid_quadv0:                    grid_written: T
  *** grid_quadv0:                    grad: T
  *** grid_quadv0:                    kske: F
  *** grid_quadv0:                    do_scf: T
  *** grid_quadv0:                    fde_option:                     0
  *** grid_quadv0:                    n_per_rec:                  3070
  *** grid_quadv0:                    calc_type:                     1
  *** grid_quadv0:                    grid_written: T
  *** grid_quadv0:                    grad: T
  *** grid_quadv0:                    kske: F
  *** grid_quadv0:                    do_scf: T
  *** grid_quadv0:                    fde_option:                     0
  *** grid_quadv0:                    n_per_rec:                  3070
  *** grid_quadv0:                    calc_type:                     1
  *** grid_quadv0:                    grid_written: T
  *** grid_quadv0:                    grad: T
  *** grid_quadv0:                    kske: F
  *** grid_quadv0:                    do_scf: T
  *** grid_quadv0:                    fde_option:                     0
  *** grid_quadv0:                    n_per_rec:                  3070
  *** grid_quadv0:                    calc_type:                     1
  *** grid_quadv0:                    grid_written: T
  *** grid_quadv0:                    grad: T
  *** grid_quadv0:                    kske: F
  *** grid_quadv0:                    do_scf: T
  *** grid_quadv0:                    fde_option:                     0
  *** grid_quadv0:                    n_per_rec:                  3070
  *** grid_quadv0:                    calc_type:                     1
  *** grid_quadv0:                    grid_written: T
  *** grid_quadv0:                    grad: T
  *** grid_quadv0:                    kske: F
  *** grid_quadv0:                    do_scf: T
  *** grid_quadv0:                    fde_option:                     0
  *** grid_quadv0:                    n_per_rec:                  3070
  *** grid_quadv0:                    calc_type:                     1
  *** grid_quadv0:                    grid_written: T
  *** grid_quadv0:                    grad: T
  *** grid_quadv0:                    kske: F
  *** grid_quadv0:                    do_scf: T
  *** grid_quadv0:                    fde_option:                     0
  *** grid_quadv0:                    n_per_rec:                  3070
  *** grid_quadv0:                    calc_type:                     1
  *** grid_quadv0:                    grid_written: T
  *** grid_quadv0:                    grad: T
  *** grid_quadv0:                    kske: F
  *** grid_quadv0:                    do_scf: T
  *** grid_quadv0:                    fde_option:                     0
  *** grid_quadv0:                    n_per_rec:                  3070
  going xcreplicated 

     ------------------------------------------
      Total Density - Becke Population Analysis
     ------------------------------------------

    Atom         Charge   
 -----------   -------- 
    1 C    6      5.800
 
 
 XC quadr. integrated density :       5.800000 npts:    56136 nctrs:        1
 
    Fock_xc Build Time:          0.0s


     <<<<<<    End of parallel region.    >>>>>>
     <<<<<< date:  Oct 24  time: 14:36:30 >>>>>>

    Total Fock Matrix Build Time:          0.0s
 Etnew, Ecore, Ecoul, Exc(1), Exc(2), Totsic:   -37.6195750984541     
  -50.0170381821786        17.3932909416002       -4.99582785787574     
  0.000000000000000E+000  0.000000000000000E+000
  delta =  -1.705965149681532E-002


         Total DFT energy =    -37.619575098454
      One electron energy =    -50.017038182179
           Coulomb energy =     17.393290941600
    Exchange-Corr. energy =     -4.995827857876
 Nuclear repulsion energy =      0.000000000000

 Numeric. integr. density =      5.799999996061

     Total iterative time =      0.8s




     <<<<<<        calling diis driver    >>>>>>
     <<<<<< date:  Oct 24  time: 14:36:30 >>>>>>

  delta =  -1.705965149681532E-002
  delta =  -1.705965149681532E-002
  delta =  -1.705965149681532E-002
  delta =  -1.705965149681532E-002
  delta =  -1.705965149681532E-002
  delta =  -1.705965149681532E-002
  delta =  -1.705965149681532E-002
  delta =  -1.705965149681532E-002
  delta =  -1.705965149681532E-002
  delta =  -1.705965149681532E-002
  delta =  -1.705965149681532E-002
  delta =  -1.705965149681532E-002
  delta =  -1.705965149681532E-002
  delta =  -1.705965149681532E-002
  delta =  -1.705965149681532E-002


     <<<<<<         called diis driver    >>>>>>
     <<<<<< date:  Oct 24  time: 14:36:30 >>>>>>


 global array: fock transf[1:9,1:9],  handle: -967 

            1           2           3           4           5           6  
       ----------- ----------- ----------- ----------- ----------- -----------
   1     -10.48293    -0.00750    -0.00000     0.00000    -0.00000     0.00000
   2      -0.00750    -0.64534     0.00000     0.00000    -0.00000    -0.00000
   3      -0.00000     0.00000    -0.23798     0.00000     0.00000     0.01762
   4       0.00000     0.00000     0.00000     0.26202     0.00000     0.01660
   5      -0.00000    -0.00000     0.00000     0.00000     0.26202     0.01079
   6       0.00000    -0.00000     0.01762     0.01660     0.01079     0.97932
   7       0.00000     0.00000     0.01143     0.00326    -0.02369    -0.00000
   8       0.00000     0.00000     0.01617    -0.02040     0.00499     0.00000
   9      -0.00626     0.02077    -0.00000     0.00000    -0.00000     0.00000

            7           8           9  
       ----------- ----------- -----------
   1       0.00000     0.00000    -0.00626
   2       0.00000     0.00000     0.02077
   3       0.01143     0.01617    -0.00000
   4       0.00326    -0.02040     0.00000
   5      -0.02369     0.00499    -0.00000
   6      -0.00000     0.00000     0.00000
   7       0.97932     0.00000     0.00000
   8       0.00000     0.97932     0.00000
   9       0.00000     0.00000     1.03169


     <<<<<<               calling diag    >>>>>>
     <<<<<< date:  Oct 24  time: 14:36:30 >>>>>>



     <<<<<<                called diag    >>>>>>
     <<<<<< date:  Oct 24  time: 14:36:30 >>>>>>

    Diagonalization Time:          0.0s
           HOMO =  -0.239 LUMO =   0.261 RLSHIFT =   0.500 HL_GAP =  -0.000


     <<<<<<              calling densm    >>>>>>
     <<<<<< date:  Oct 24  time: 14:36:30 >>>>>>



     <<<<<<               called densm    >>>>>>
     <<<<<< date:  Oct 24  time: 14:36:30 >>>>>>

 d= 0,ls=0.5,diis     2    -37.6195750985 -1.71D-02  9.81D-03  1.05D-02     1.0

 Wrote molecular orbitals to ./carbon_fon.movecs

             alpha eigenvalues
             -----------------
      (all occupied plus 10 virtual)
      ------------------------------

              1      
    1  -10.4829
    2   -0.6456
    3   -0.2386
    4    0.2610
    5    0.2610
    6    0.9799
    7    0.9803
    8    0.9803
    9    1.0320
                alpha foccs
                -----------

              1      
    1    2.0000
    2    2.0000
    3    0.6000
    4    0.6000
    5    0.6000
 
                              Intermediate MO vectors
                              -----------------------
 

 global array: alpha evecs[1:9,1:9],  handle: -995 

            1           2           3           4           5           6  
       ----------- ----------- ----------- ----------- ----------- -----------
   1      -0.99542     0.23292     0.00000    -0.00000    -0.00000     0.00000
   2      -0.02747    -0.51668     0.00000     0.00000     0.00000     0.00000
   3      -0.00000    -0.00000    -0.41807    -0.31930     0.37194     0.65676
   4       0.00000     0.00000    -0.27026     0.55096     0.18353     0.42455
   5      -0.00000    -0.00000    -0.42326    -0.03640    -0.48457     0.66490
   6       0.00895    -0.55783    -0.00000    -0.00000    -0.00000    -0.00000
   7       0.00000     0.00000    -0.30154    -0.24439     0.28468    -0.71777
   8      -0.00000    -0.00000    -0.19492     0.42170     0.14048    -0.46399
   9      -0.00000     0.00000    -0.30527    -0.02786    -0.37089    -0.72667

            7           8           9  
       ----------- ----------- -----------
   1       0.00000    -0.00000     0.07359
   2      -0.00000     0.00000    -1.64783
   3       0.52248    -0.60104    -0.00000
   4       0.42507     0.84228     0.00000
   5      -0.78749     0.05587     0.00000
   6       0.00000    -0.00000     1.62125
   7      -0.56198     0.64648     0.00000
   8      -0.45720    -0.90596    -0.00000
   9       0.84703    -0.06009    -0.00000


     <<<<<<             calling scfcvg    >>>>>>
     <<<<<< date:  Oct 24  time: 14:36:30 >>>>>>



     <<<<<<              called scfcvg    >>>>>>
     <<<<<< date:  Oct 24  time: 14:36:30 >>>>>>

           DAMPING=T LEVELSHIFTING=T DIISING=T
          itol2e= 9 iAOacc=18 iXCacc=20
     FON applied
     tr(P*S):    0.5800000E+01


     <<<<<<            calling 1-e int    >>>>>>
     <<<<<< date:  Oct 24  time: 14:36:30 >>>>>>

    Kinetic Matrix Time:          0.0s

           Kinetic energy =     37.520881432631

    Potential Matrix Time:          0.0s


     <<<<<<    Before call to GETVCOUL.   >>>>>>
     <<<<<< date:  Oct 24  time: 14:36:30 >>>>>>



     <<<<<<    Before call to GETVXC.     >>>>>>
     <<<<<< date:  Oct 24  time: 14:36:30 >>>>>>



     <<<<<<    Before call to fock_2e.    >>>>>>
     <<<<<< date:  Oct 24  time: 14:36:30 >>>>>>



     <<<<<<     After call to fock_2e.    >>>>>>
     <<<<<< date:  Oct 24  time: 14:36:30 >>>>>>

    Fock_2e Build Time:          0.0s
  *** grid_quadv0:                    calc_type:                     1
  *** grid_quadv0:                    grid_written: T
  *** grid_quadv0:                    grad: T
  *** grid_quadv0:                    kske: F
  *** grid_quadv0:                    do_scf: T
  *** grid_quadv0:                    fde_option:                     0
  *** grid_quadv0:                    n_per_rec:                  3070
  *** grid_quadv0:                    calc_type:                     1
  *** grid_quadv0:                    grid_written: T
  *** grid_quadv0:                    grad: T
  *** grid_quadv0:                    kske: F
  *** grid_quadv0:                    do_scf: T
  *** grid_quadv0:                    fde_option:                     0
  *** grid_quadv0:                    n_per_rec:                  3070
  *** grid_quadv0:                    calc_type:                     1
  *** grid_quadv0:                    grid_written: T
  *** grid_quadv0:                    grad: T
  *** grid_quadv0:                    kske: F
  *** grid_quadv0:                    do_scf: T
  *** grid_quadv0:                    fde_option:                     0
  *** grid_quadv0:                    n_per_rec:                  3070
  *** grid_quadv0:                    calc_type:                     1
  *** grid_quadv0:                    grid_written: T
  *** grid_quadv0:                    grad: T
  *** grid_quadv0:                    kske: F
  *** grid_quadv0:                    do_scf: T
  *** grid_quadv0:                    fde_option:                     0
  *** grid_quadv0:                    n_per_rec:                  3070
  *** grid_quadv0:                    calc_type:                     1
  *** grid_quadv0:                    grid_written: T
  *** grid_quadv0:                    grad: T
  *** grid_quadv0:                    kske: F
  *** grid_quadv0:                    do_scf: T
  *** grid_quadv0:                    fde_option:                     0
  *** grid_quadv0:                    n_per_rec:                  3070
[...]
 geometry:geometry:user units            char[10]     Tue Oct 24 14:36:28 2017 
 dft:nodamping                        logical[1]      Tue Oct 24 14:36:28 2017 
 dft:iCDacc                               int[1]      Tue Oct 24 14:36:28 2017 
 basis:names                             char[9]      Tue Oct 24 14:36:28 2017 
 geometry:geometry:coords              double[3]      Tue Oct 24 14:36:28 2017 
 int2e:memsize                            int[1]      Tue Oct 24 14:36:28 2017 
 scf:nclosed                              int[1]      Tue Oct 24 14:36:28 2017 
 dft:nopen                                int[1]      Tue Oct 24 14:36:28 2017 
 dft:toll_s                            double[1]      Tue Oct 24 14:36:28 2017 
 geometry:geometry:atomct              double[1]      Tue Oct 24 14:36:28 2017 
 dft:nrad                                 int[200]    Tue Oct 24 14:36:28 2017 
 dft:nmo_fon                              int[4]      Tue Oct 24 14:36:28 2017 
 dft:ncore_fon                            int[2]      Tue Oct 24 14:36:28 2017 
 :print                                  char[5]      Tue Oct 24 14:36:28 2017 
 task:theory                             char[4]      Tue Oct 24 14:36:28 2017 
 dft:ssweights                           char[5]      Tue Oct 24 14:36:28 2017 
 prop:Nel                                 int[1]      Tue Oct 24 14:36:28 2017 
 dft:dampon                            double[1]      Tue Oct 24 14:36:28 2017 
 task:cputime                          double[1]      Tue Oct 24 14:36:31 2017 
 task:walltime                         double[1]      Tue Oct 24 14:36:31 2017 
 dft:cfac                              double[64]     Tue Oct 24 14:36:28 2017 
 dft:fon                              logical[1]      Tue Oct 24 14:36:28 2017 
 geometry:geometry:efield              double[3]      Tue Oct 24 14:36:28 2017 
 dft:d_conv                            double[1]      Tue Oct 24 14:36:28 2017 
 dft:input vectors                       char[20]     Tue Oct 24 14:36:28 2017 
 basis:ao basis:tags info                 int[280]    Tue Oct 24 14:36:28 2017 
 prop:Nocc_a                              int[1]      Tue Oct 24 14:36:28 2017 
 prop:Nocc_b                              int[1]      Tue Oct 24 14:36:28 2017 
 dft:nradpts                              int[1]      Tue Oct 24 14:36:28 2017 
 basis:ao basis:star segment          logical[1]      Tue Oct 24 14:36:28 2017 
 dft:nel_fon                           double[4]      Tue Oct 24 14:36:28 2017 
 dft:fractional_occup                 logical[1]      Tue Oct 24 14:36:31 2017 
 dft:diisoff                           double[1]      Tue Oct 24 14:36:28 2017 
 dft:noio                                 int[1]      Tue Oct 24 14:36:28 2017 
 dft:hl_tol                            double[1]      Tue Oct 24 14:36:28 2017 
 geometry:ngeom                           int[1]      Tue Oct 24 14:36:28 2017 
 dft:scftype                             char[4]      Tue Oct 24 14:36:28 2017 
 dft:imull                                int[1]      Tue Oct 24 14:36:28 2017 
 dft:ndamp                                int[1]      Tue Oct 24 14:36:28 2017 
 geometry:geometry:operators           double[2304]   Tue Oct 24 14:36:28 2017 
 dft:cs00                             logical[1]      Tue Oct 24 14:36:28 2017 
 basis:ao basis:star nr tags              int[1]      Tue Oct 24 14:36:28 2017 
 dft:iAOacc                               int[1]      Tue Oct 24 14:36:28 2017 
 dft:noc                                  int[2]      Tue Oct 24 14:36:28 2017 
 dft:levelshift                       logical[1]      Tue Oct 24 14:36:28 2017 
 geometry:geometry:recip vectors         double[3]      Tue Oct 24 14:36:28 2017 
 dft:gridtype                            char[6]      Tue Oct 24 14:36:28 2017 
 dft:diison                            double[1]      Tue Oct 24 14:36:28 2017 
 dft:ssw                              logical[1]      Tue Oct 24 14:36:28 2017 
 dft:pstrace                           double[1]      Tue Oct 24 14:36:31 2017 
 geometry:geometry:no. unique centers            int[1]      Tue Oct 24 14:36:28 2017 
 basis:ao basis:contraction info            int[90000]  Tue Oct 24 14:36:28 2017 
 dft:itol2e                               int[1]      Tue Oct 24 14:36:28 2017 
 dft:nodiis                           logical[1]      Tue Oct 24 14:36:28 2017 
 dft:incore                           logical[1]      Tue Oct 24 14:36:28 2017 
 basis:ao basis:bs_nr_tags                int[1]      Tue Oct 24 14:36:28 2017 
 geometry:geometry:group number            int[1]      Tue Oct 24 14:36:28 2017 
 dft:mxnang                               int[1]      Tue Oct 24 14:36:28 2017 
 geometry:geometry:recip angles         double[3]      Tue Oct 24 14:36:28 2017 
 basis:ao basis:star tot except            int[1]      Tue Oct 24 14:36:28 2017 
 dft:lebedev                          logical[1]      Tue Oct 24 14:36:28 2017 
 dft:levloff                           double[1]      Tue Oct 24 14:36:28 2017 
 dft:ipol                                 int[1]      Tue Oct 24 14:36:28 2017 
 dft:iangquad                             int[1]      Tue Oct 24 14:36:28 2017 
 dft:lxfac                            logical[64]     Tue Oct 24 14:36:28 2017 
 geometry:geometry:system type            int[1]      Tue Oct 24 14:36:28 2017 
 grid:eaf_size_in_dbl                     int[1]      Tue Oct 24 14:36:28 2017 
 dft:nlxfac                           logical[64]     Tue Oct 24 14:36:28 2017 
 dft:mult                                 int[1]      Tue Oct 24 14:36:28 2017 
 geometry:geometry:charges             double[1]      Tue Oct 24 14:36:28 2017 
 basis:ao basis:star tag_in_lib           char[2]      Tue Oct 24 14:36:28 2017 
 dft:nquad_task                           int[1]      Tue Oct 24 14:36:28 2017 
 basis:ao basis:star filename            char[68]     Tue Oct 24 14:36:28 2017 
 basis:ao basis:header                    int[7]      Tue Oct 24 14:36:28 2017 
 geometry:geometry:tags                  char[2]      Tue Oct 24 14:36:28 2017 
 dft:xcname                              char[2312]   Tue Oct 24 14:36:28 2017 
 dft:cname                               char[2156]   Tue Oct 24 14:36:28 2017 
 dft:g_conv                            double[1]      Tue Oct 24 14:36:28 2017 
 geometry:geometry:include_bqbq        logical[1]      Tue Oct 24 14:36:28 2017 
 geometry:geometry:group name            char[3]      Tue Oct 24 14:36:28 2017 
 dft:nang                                 int[200]    Tue Oct 24 14:36:28 2017 
 dft:energy                            double[1]      Tue Oct 24 14:36:31 2017 
 basisprint:ao basis                  logical[1]      Tue Oct 24 14:36:28 2017 
 dft:radgrid                             char[7]      Tue Oct 24 14:36:28 2017 
 dft:rlshift                           double[1]      Tue Oct 24 14:36:28 2017 
 dft:delta_ac                          double[1]      Tue Oct 24 14:36:28 2017 
 dft:nfock                                int[1]      Tue Oct 24 14:36:28 2017 
 basis:ao basis:star bas type            char[6]      Tue Oct 24 14:36:28 2017 
 dft:e_conv                            double[1]      Tue Oct 24 14:36:28 2017 
 dft:nolevelshifting                  logical[1]      Tue Oct 24 14:36:28 2017 
 dft:dampoff                           double[1]      Tue Oct 24 14:36:28 2017 
 dft:output vectors                      char[20]     Tue Oct 24 14:36:28 2017 
 dft:lb94                             logical[1]      Tue Oct 24 14:36:28 2017 
 dft:converged                        logical[1]      Tue Oct 24 14:36:31 2017 
 dft:job_grid_acc                      double[1]      Tue Oct 24 14:36:28 2017 
 dft:diis                             logical[1]      Tue Oct 24 14:36:28 2017 
 basis:ao basis:number of exps and coeffs            int[1]      Tue Oct 24 14:36:28 2017 
 geometry:names                          char[9]      Tue Oct 24 14:36:28 2017 
 dft:ltight                           logical[1]      Tue Oct 24 14:36:28 2017 
 geometry:geometry:masses              double[1]      Tue Oct 24 14:36:28 2017 
 dft:tol_rho                           double[1]      Tue Oct 24 14:36:28 2017 
 scf:scftype                             char[4]      Tue Oct 24 14:36:28 2017 
 dft:ncydp                                int[1]      Tue Oct 24 14:36:28 2017 
 geometry:geometry:unique centers            int[1]      Tue Oct 24 14:36:28 2017 
 dft:ncysh                                int[1]      Tue Oct 24 14:36:28 2017 
 dft:xfac                              double[64]     Tue Oct 24 14:36:28 2017 
 geometry:geometry:amatrix             double[9]      Tue Oct 24 14:36:28 2017 
 dft:ncyds                                int[1]      Tue Oct 24 14:36:28 2017 
 basis:ao basis:star rel              logical[1]      Tue Oct 24 14:36:28 2017 
 geometry:geometry:inv nuc expon         double[1]      Tue Oct 24 14:36:28 2017 
 basis:ao basis:star tag names           char[2]      Tue Oct 24 14:36:28 2017 
 geometry:geometry:vel                 double[3]      Tue Oct 24 14:36:28 2017 
 int2e:filesize                           int[1]      Tue Oct 24 14:36:28 2017 
 task:status                          logical[1]      Tue Oct 24 14:36:31 2017 
 dft:xname                               char[2351]   Tue Oct 24 14:36:28 2017 
 geometry:geometry:direct volume         double[1]      Tue Oct 24 14:36:28 2017 
 basis:ao basis:star nr except            int[1]      Tue Oct 24 14:36:28 2017 
 geometry:geometry:num_operators            int[1]      Tue Oct 24 14:36:28 2017 
 uhf:coulomb                           double[1]      Tue Oct 24 14:36:31 2017 
 basis:nbasis                             int[1]      Tue Oct 24 14:36:28 2017 
 file_prefix                             char[11]     Tue Oct 24 14:36:28 2017 
 task:energy                           double[1]      Tue Oct 24 14:36:31 2017 
 dft:xccomb                           logical[64]     Tue Oct 24 14:36:28 2017 
 geometry:geometry:ncenter                int[1]      Tue Oct 24 14:36:28 2017 
 dft:tol2e                             double[1]      Tue Oct 24 14:36:28 2017 
 dft:nagrid                               int[1]      Tue Oct 24 14:36:28 2017 
 dft:max_ovl                          logical[1]      Tue Oct 24 14:36:28 2017 
 dft:theory                              char[4]      Tue Oct 24 14:36:28 2017 
 dft:xc_spec                             char[5]      Tue Oct 24 14:36:28 2017 
 basis:ao basis:assoc ecp name           char[4]      Tue Oct 24 14:36:28 2017 
 dft:direct                           logical[1]      Tue Oct 24 14:36:28 2017 
 dft:iterations                           int[1]      Tue Oct 24 14:36:28 2017 
 dft:nlcfac                           logical[64]     Tue Oct 24 14:36:28 2017 
 dft:damp                             logical[1]      Tue Oct 24 14:36:28 2017 
 dft:radius                            double[1]      Tue Oct 24 14:36:28 2017 
 dft:idecomp                              int[1]      Tue Oct 24 14:36:28 2017 
 geometry:geometry:zmt_source            char[2]      Tue Oct 24 14:36:28 2017 
 geometry:geometry:setting number            int[1]      Tue Oct 24 14:36:28 2017 
 scf:tol2e                             double[1]      Tue Oct 24 14:36:28 2017 
 rtdb:stored:state                    logical[3]      Tue Oct 24 14:36:28 2017 
 dft:mxnrad                               int[1]      Tue Oct 24 14:36:28 2017 
 title                                   char[12]     Tue Oct 24 14:36:28 2017 
 dft:iqrot                                int[1]      Tue Oct 24 14:36:28 2017 


 HDBM usage statistics
 ---------------------
 Reads         = 1678
 Inserts       = 950
 Replaces      = 350
 Extracts      = 0
 Deletes       = 1852
 Reuses        = 50

 Memory allocs = 8361
 Memory frees  = 8361
 Memory max    = 1513044
 Memory in use = 0

 IO seeks      = 3362
 IO reads      = 2357
 IO writes     = 2903
 IO nread      = 2318439
 IO nwrite     = 2314372

 Summary of allocated global arrays
-----------------------------------
  No active global arrays



                         GA Statistics for process    0
                         ------------------------------

       create   destroy   get      put      acc     scatter   gather  read&inc
calls:  209      209      549      259      140        0        0       30     
number of processes/call 1.55e+00 1.31e+00 2.14e+00 0.00e+00 0.00e+00
bytes total:             2.74e+05 9.71e+04 9.07e+04 0.00e+00 0.00e+00 2.40e+02
bytes remote:            1.75e+04 5.83e+03 1.15e+04 0.00e+00 0.00e+00 0.00e+00
Max memory consumed for GA by this process: 23688 bytes
 
MA_summarize_allocated_blocks: starting scan ...
MA_summarize_allocated_blocks: scan completed: 0 heap blocks, 0 stack blocks
MA usage statistics:

	allocation statistics:
					      heap	     stack
					      ----	     -----
	current number of blocks	         0	         0
	maximum number of blocks	        20	        52
	current total bytes		         0	         0
	maximum total bytes		    499808	  22509992
	maximum total K-bytes		       500	     22510
	maximum total M-bytes		         1	        23

	calls per routine:
		        44  MA_alloc_get
		        44  MA_allocate_heap
		       263  MA_chop_stack
		        44  MA_free_heap
		         0  MA_free_heap_piece
		      1565  MA_get_index
		         5  MA_get_mbase
		         0  MA_get_next_memhandle
		         0  MA_get_numalign
		        44  MA_get_pointer
		         1  MA_init
		         0  MA_initialized
		         0  MA_init_memhandle_iterator
		       122  MA_inquire_avail
		         2  MA_inquire_heap
		         0  MA_inquire_heap_check_stack
		         0  MA_inquire_heap_no_partition
		         2  MA_inquire_stack
		         0  MA_inquire_stack_check_heap
		         0  MA_inquire_stack_no_partition
		       570  MA_pop_stack
		         1  MA_print_stats
		      1521  MA_push_get
		      1565  MA_push_stack
		         3  MA_set_auto_verify
		         1  MA_set_error_print
		         3  MA_set_hard_fail
		         1  MA_set_numalign
		      1816  MA_sizeof
		        12  MA_sizeof_overhead
		         1  MA_summarize_allocated_blocks
		         0  MA_trace
		      6050  MA_verify_allocator_stuff
 
 
                                     CITATION
                                     --------
                Please cite the following reference when publishing
                           results obtained with NWChem:
 
                 M. Valiev, E.J. Bylaska, N. Govind, K. Kowalski,
              T.P. Straatsma, H.J.J. van Dam, D. Wang, J. Nieplocha,
                        E. Apra, T.L. Windus, W.A. de Jong
                 "NWChem: a comprehensive and scalable open-source
                  solution for large scale molecular simulations"
                      Comput. Phys. Commun. 181, 1477 (2010)
                           doi:10.1016/j.cpc.2010.04.018
 
                                      AUTHORS
                                      -------
          E. Apra, E. J. Bylaska, W. A. de Jong, N. Govind, K. Kowalski,
       T. P. Straatsma, M. Valiev, H. J. J. van Dam, D. Wang, T. L. Windus,
        J. Hammond, J. Autschbach, K. Bhaskaran-Nair, J. Brabec, K. Lopata,
       S. A. Fischer, S. Krishnamoorthy, W. Ma, M. Klemm, O. Villa, Y. Chen,
    V. Anisimov, F. Aquino, S. Hirata, M. T. Hackler, T. Risthaus, M. Malagoli,
       A. Marenich, A. Otero-de-la-Roza, J. Mullin, P. Nichols, R. Peverati,
     J. Pittner, Y. Zhao, P.-D. Fan, A. Fonari, M. Williamson, R. J. Harrison,
       J. R. Rehr, M. Dupuis, D. Silverstein, D. M. A. Smith, J. Nieplocha,
        V. Tipparaju, M. Krishnan, B. E. Van Kuiken, A. Vazquez-Mayagoitia,
        L. Jensen, M. Swart, Q. Wu, T. Van Voorhis, A. A. Auer, M. Nooijen,
      L. D. Crosby, E. Brown, G. Cisneros, G. I. Fann, H. Fruchtl, J. Garza,
        K. Hirao, R. A. Kendall, J. A. Nichols, K. Tsemekhman, K. Wolinski,
     J. Anchell, D. E. Bernholdt, P. Borowski, T. Clark, D. Clerc, H. Dachsel,
   M. J. O. Deegan, K. Dyall, D. Elwood, E. Glendening, M. Gutowski, A. C. Hess,
         J. Jaffe, B. G. Johnson, J. Ju, R. Kobayashi, R. Kutteh, Z. Lin,
   R. Littlefield, X. Long, B. Meng, T. Nakajima, S. Niu, L. Pollack, M. Rosing,
   K. Glaesemann, G. Sandrone, M. Stave, H. Taylor, G. Thomas, J. H. van Lenthe,
                               A. T. Wong, Z. Zhang.
 
                                    REFERENCES
                                    ----------

          Where appropriate, please cite the following reference(s) 
          when publishing results obtained with NWChem:


     1. D. E. Bernholdt, E. Apra, H. A. Fruchtl, M.F. Guest, R. J. Harrison, 
        R. A. Kendall, R. A. Kutteh, X. Long, J. B. Nicholas, J. A. Nichols, 
        H. L. Taylor, A. T. Wong, G. I. Fann, R. J. Littlefield and
        J. Nieplocha,
        "Parallel Computational Chemistry Made Easier: 
        The Development of NWChem,"
        Int. J. Quantum Chem. Symposium  29, 475-483 (1995).


     2. M. F. Guest, E. Apra, D. E. Bernholdt, H. A. Fruchtl, R. J. Harrison, 
        R. A. Kendall, R. A. Kutteh, X. Long, J. B. Nicholas, J. A. Nichols, 
        H. L. Taylor, A. T. Wong, G. I. Fann, R. J. Littlefield and
        J. Nieplocha,
        "High Performance Computational Chemistry: NWChem and Fully Distributed
        Parallel Applications", in Advances in Parallel Computing, 10, High
        Performance Computing: Technology, Methods, and Applications, Eds. 
        J. Dongarra, L. Gradinetti, G. Joubert, and J. Kowalik, 
        (Elsevier Science B. V. pp. 395-427, 1995).


     3. M. F. Guest, E. Apra, D. E. Bernholdt, H. A. Fruchtl, R. J. Harrison, 
        R. A. Kendall, R. A. Kutteh, J. B. Nicholas, J. A. Nichols, M. S. Stave,
        A. T. Wong, R. J. Littlefield and J. Nieplocha, "High Performance 
        Computational Chemistry: Towards Fully Distributed Parallel Algorithms",
        in High Performance Computing: Symposium 1995, Grand Challenges in 
        Computer Simulation, Adrian M. Tentner, Editor, Proceedings of the 1995 
        Simulation Multiconference, April 9-13, 1995, Phoenix, Arizona, 
        Simulation Councils, Inc., The Society for Computer Simulation, 
        San Diego, CA, 1995. pp. 511-521.


     4. M. F. Guest, E. Apra, D. E. Bernholdt, H. A. Fruchtl, R. J. Harrison,
        R. A. Kendall, R. A. Kutteh, X. Long, J. B. Nicholas, J. A. Nichols, 
        H. L. Taylor, A. T. Wong, G. I. Fann, R. J. Littlefield and
        J. Nieplocha,
        "Advances in Parallel Distributed Data Software; Computational Chemistry
        and NWChem", in Applied Parallel Computing.  Computations in Physics,
        Chemistry, and Engineering Science, Eds. J. Wasnieski, J. Dongarra, and 
        K. Madsen, Lecture Notes in Computer Science, 1041,
        (Springer-Verlag, Berlin, 278-294, 1996).


     5. M. F. Guest, E. Apra, D. E. Bernholdt, H. A. Fruchtl, R. J. Harrison,
        R. A. Kendall, R. A. Kutteh, X. Long, J. B. Nicholas, J. A. Nichols, 
        H. L. Taylor, A. T. Wong, G. I. Fann, R. J. Littlefield and
        J. Nieplocha, 
        "High-Performance Computing in Chemistry; NWChem", Future 
        Generations Computer Systems  12(4), 273, (1996).


     6. R. A. Kendall, E. Apra, D. E. Bernholdt, E. J. Bylaska, M. Dupuis,
        G. I. Fann, R. J. Harrison, J. Ju, J. A. Nichols, J. Nieplocha,
        T. P. Straatsma, T. L. Windus, A. T. Wong,
        Computer Phys. Comm. 128, 260 (2000).


     7. T. P. Straatsma and V. Helms, in Molecular Dynamics on Parallel
        Computers2000, R. Esser et al. editors, p 70.


     8.  T. P. Straatsma, M. Philippopoulos and J. A. McCammon,
         Computer Phys. Comm. 128, 377 (2000).


     9.  M. Valiev, E. J. Bylaska, A. Gramada, and J. H. Weare,
         Reviews in Modern Quantum Chemistry, pages 1684-1734
         (World Scientific, Singapore, 2002).


    10.  E. J. Bylaska, M. Valiev, R. Kawai, and J. H. Weare,
         Computer Phys. Comm. 143, 11 (2002).


    11.  M. Valiev and J. H. Weare,
         J. Phys. Chem. A, 103, 10588 (1999).



 Total times  cpu:        1.7s     wall:        3.5s
