 argument  1 = h2o_core_hole.inp
 


============================== echo of input deck ==============================
# Taken from http://www.nwchem-sw.org/index.php/Release66:Density_Functional_Theory_for_Molecules
# Controlling occupations
echo
start h2o_core_hole
print high
memory 1000 mb
geometry units au
 O 0       0        0
 H 0       1.430   -1.107
 H 0      -1.430   -1.107
end
basis
 O library 6-31g*
 H library 6-31g*
end
occup
 6 6 # core-hole in beta
 1.0 0.0
 1.0 1.0
 1.0 1.0
 1.0 1.0
 1.0 1.0
 0.0 0.0
end
dft
 odft
 mult 1
 xc beckehandh
end
task dft
================================================================================


                                         
                                         
 
 
              Northwest Computational Chemistry Package (NWChem) 6.6
              ------------------------------------------------------
 
 
                    Environmental Molecular Sciences Laboratory
                       Pacific Northwest National Laboratory
                                Richland, WA 99352
 
                              Copyright (c) 1994-2015
                       Pacific Northwest National Laboratory
                            Battelle Memorial Institute
 
             NWChem is an open-source computational chemistry package
                        distributed under the terms of the
                      Educational Community License (ECL) 2.0
             A copy of the license is included with this distribution
                              in the LICENSE.TXT file
 
                                  ACKNOWLEDGMENT
                                  --------------

            This software and its documentation were developed at the
            EMSL at Pacific Northwest National Laboratory, a multiprogram
            national laboratory, operated for the U.S. Department of Energy
            by Battelle under Contract Number DE-AC05-76RL01830. Support
            for this work was provided by the Department of Energy Office
            of Biological and Environmental Research, Office of Basic
            Energy Sciences, and the Office of Advanced Scientific Computing.


           Job information
           ---------------

    hostname        = hostname
    program         = nwchem
    date            = Tue Oct 24 14:44:03 2017

    compiled        = Wed_Sep_14_13:31:52_2016
    source          = source
    nwchem branch   = Development
    nwchem revision = 28323
    ga revision     = 10664
    input           = h2o_core_hole.inp
    prefix          = h2o_core_hole.
    data base       = ./h2o_core_hole.db
    status          = startup
    nproc           =       16
    time left       =     -1s



           Memory information
           ------------------

    heap     =   32767996 doubles =    250.0 Mbytes
    stack    =   32768001 doubles =    250.0 Mbytes
    global   =   65536000 doubles =    500.0 Mbytes (distinct from heap & stack)
    total    =  131071997 doubles =   1000.0 Mbytes
    verify   = yes
    hardfail = no 


           Directory information
           ---------------------
 
  0 permanent = .
  0 scratch   = .
 
 
 
 
                                NWChem Input Module
                                -------------------
 
 
 MOMENTS OF INERTIA ARE NOT DEGENERATE
   PROPER PRINCIPAL AXIS 1 =    T
 IMPROPER PRINCIPAL AXIS 1 =    T
   PROPER PRINCIPAL AXIS 2 =    T
 IMPROPER PRINCIPAL AXIS 2 =    F
   PROPER PRINCIPAL AXIS 3 =    T
 IMPROPER PRINCIPAL AXIS 3 =    T
 HIGHEST ORDER OF PROPER/IMPROPER ROTATION =  2
           C2 -X- =    F
           C2 -Y- =    F
 INVERSION CENTER =    F
 MIRROR PLANE -YZ-=    T
 MIRROR PLANE -ZX-=    T
 MIRROR PLANE -XY-=    F
 C2V symmetry detected
 Molecular frame translation   0.00000   0.00000   0.00000
 Molecular frame rotation      0.00000   1.00000   0.00000
                              -1.00000   0.00000   0.00000
                               0.00000   0.00000   1.00000
     MOLECULAR POINT GROUP NUMBER = 16     SCHOENFLIESSYMBOL = C2v       

                --------------- GROUP GENERATORS ---------------

                      2 GENERATORS USED TO FORM THE GROUP

                         PT fold Rotoinversion Operator
                    -1.000000  0.000000  0.000000  0.000000
                     0.000000 -1.000000  0.000000  0.000000
                     0.000000  0.000000  1.000000  0.000000

                         PT fold Rotoinversion Operator
                     1.000000  0.000000  0.000000  0.000000
                     0.000000 -1.000000  0.000000  0.000000
                     0.000000  0.000000  1.000000  0.000000


                    ---------- FULL LISTING OF GROUP ----------

                  MATRIX REPRESENTATIONS OF THE GROUP OPERATORS

     EXCLUDING THE IDENTITY OPERATOR THERE ARE  3 OPERATORS IN THIS GROUP

                         pt fold Rotoinversion Operator
                    -1.000000  0.000000  0.000000  0.000000
                     0.000000 -1.000000  0.000000  0.000000
                     0.000000  0.000000  1.000000  0.000000

                         pt fold Rotoinversion Operator
                     1.000000  0.000000  0.000000  0.000000
                     0.000000 -1.000000  0.000000  0.000000
                     0.000000  0.000000  1.000000  0.000000

                         pt fold Rotoinversion Operator
                    -1.000000  0.000000  0.000000  0.000000
                     0.000000  1.000000  0.000000  0.000000
                     0.000000  0.000000  1.000000  0.000000


                  <<< SYMMETRY OPERATION/ATOM MAPPING BUILT >>>
      Symmetry information
      --------------------
 
 Group name             C2v       
 Group number             16
 Group order               4
 No. of unique centers     2
 


                  Character table for group C2v     

                  1e      1c2     1si.xz  1si.yz 
        a1         1.000   1.000   1.000   1.000
        a2         1.000   1.000  -1.000  -1.000
        b1         1.000  -1.000   1.000  -1.000
        b2         1.000  -1.000  -1.000   1.000
 
      Symmetry unique atoms
 
     1    2
 
      Mapping of centers
 
     op   1
          (   1->   1)  (   2->   3)  (   3->   2)
     op   2
          (   1->   1)  (   2->   2)  (   3->   3)
     op   3
          (   1->   1)  (   2->   3)  (   3->   2)
 
      Group operations
 
     op   1 = c2 = rotation about axis ( 0.00, 0.00, 1.00)
             -1.000000    0.000000    0.000000    0.000000
              0.000000   -1.000000    0.000000    0.000000
              0.000000    0.000000    1.000000    0.000000
     op   2 = si.xz = mirror normal to ( 0.00, 1.00, 0.00)
              1.000000    0.000000    0.000000    0.000000
              0.000000   -1.000000    0.000000    0.000000
              0.000000    0.000000    1.000000    0.000000
     op   3 = si.yz = mirror normal to ( 1.00, 0.00, 0.00)
             -1.000000    0.000000    0.000000    0.000000
              0.000000    1.000000    0.000000    0.000000
              0.000000    0.000000    1.000000    0.000000
 

          ------
          auto-z
          ------
 Imposing constraints:   iter = 1  dqmax = 0.0D+00
 
 
                             Geometry "geometry" -> ""
                             -------------------------
 
 Output coordinates in a.u. (scale by  1.000000000 to convert to a.u.)
 
  No.       Tag          Charge          X              Y              Z
 ---- ---------------- ---------- -------------- -------------- --------------
    1 O                    8.0000     0.00000000     0.00000000     0.22140000
    2 H                    1.0000    -1.43000000     0.00000000    -0.88560000
    3 H                    1.0000     1.43000000     0.00000000    -0.88560000
 
      Atomic Mass 
      ----------- 
 
      O                 15.994910
      H                  1.007825
 

 Effective nuclear repulsion energy (a.u.)       9.1971984402

            Nuclear Dipole moment (a.u.) 
            ----------------------------
        X                 Y               Z
 ---------------- ---------------- ----------------
     0.0000000000     0.0000000000     0.0000000000
 
      Symmetry information
      --------------------
 
 Group name             C2v       
 Group number             16
 Group order               4
 No. of unique centers     2
 
      Symmetry unique atoms
 
     1    2
 


                                Z-matrix (autoz)
                                -------- 

 Units are Angstrom for bonds and degrees for angles
 
      Type          Name      I     J     K     L     M      Value
      ----------- --------  ----- ----- ----- ----- ----- ----------
    1 Stretch                  1     2                       0.95697
    2 Stretch                  1     3                       0.95697
    3 Bend                     2     1     3               104.51124
 
 
            XYZ format geometry
            -------------------
     3
 geometry
 O                     0.00000000     0.00000000     0.11715984
 H                    -0.75672347     0.00000000    -0.46863937
 H                     0.75672347     0.00000000    -0.46863937
 
 ==============================================================================
                                internuclear distances
 ------------------------------------------------------------------------------
       center one      |      center two      | atomic units |       a.u.
 ------------------------------------------------------------------------------
    2 H                |   1 O                |     1.80841  |     1.80841
    3 H                |   1 O                |     1.80841  |     1.80841
 ------------------------------------------------------------------------------
                         number of included internuclear distances:          2
 ==============================================================================



 ==============================================================================
                                 internuclear angles
 ------------------------------------------------------------------------------
        center 1       |       center 2       |       center 3       |  degrees
 ------------------------------------------------------------------------------
    2 H                |   1 O                |   3 H                |   104.51
 ------------------------------------------------------------------------------
                            number of included internuclear angles:          1
 ==============================================================================



  library name resolved from: environment
  library file name is: <
 libraryfilename>
  
                      Basis "ao basis" -> "" (cartesian)
                      -----
  O (Oxygen)
  ----------
            Exponent  Coefficients 
       -------------- ---------------------------------------------------------
  1 S  5.48467170E+03  0.001831
  1 S  8.25234950E+02  0.013950
  1 S  1.88046960E+02  0.068445
  1 S  5.29645000E+01  0.232714
  1 S  1.68975700E+01  0.470193
  1 S  5.79963530E+00  0.358521
 
  2 S  1.55396160E+01 -0.110778
  2 S  3.59993360E+00 -0.148026
  2 S  1.01376180E+00  1.130767
 
  3 P  1.55396160E+01  0.070874
  3 P  3.59993360E+00  0.339753
  3 P  1.01376180E+00  0.727159
 
  4 S  2.70005800E-01  1.000000
 
  5 P  2.70005800E-01  1.000000
 
  6 D  8.00000000E-01  1.000000
 
  H (Hydrogen)
  ------------
            Exponent  Coefficients 
       -------------- ---------------------------------------------------------
  1 S  1.87311370E+01  0.033495
  1 S  2.82539370E+00  0.234727
  1 S  6.40121700E-01  0.813757
 
  2 S  1.61277800E-01  1.000000
 


 Summary of "ao basis" -> "" (cartesian)
 ------------------------------------------------------------------------------
       Tag                 Description            Shells   Functions and Types
 ---------------- ------------------------------  ------  ---------------------
 O                           6-31g*                  6       15   3s2p1d
 H                           6-31g*                  2        2   2s


 
                                 NWChem DFT Module
                                 -----------------
 
 


 Summary of "ao basis" -> "ao basis" (cartesian)
 ------------------------------------------------------------------------------
       Tag                 Description            Shells   Functions and Types
 ---------------- ------------------------------  ------  ---------------------
 O                           6-31g*                  6       15   3s2p1d
 H                           6-31g*                  2        2   2s




                  Character table for group C2v     

                  1e      1c2     1si.xz  1si.yz 
        a1         1.000   1.000   1.000   1.000
        a2         1.000   1.000  -1.000  -1.000
        b1         1.000  -1.000   1.000  -1.000
        b2         1.000  -1.000  -1.000   1.000
 
      Symmetry analysis of basis
      --------------------------
 
        a1         10
        a2          1
        b1          5
        b2          3
 
 
 
                         Geometry "geometry" -> "geometry"
                         ---------------------------------
 
 Output coordinates in a.u. (scale by  1.000000000 to convert to a.u.)
 
  No.       Tag          Charge          X              Y              Z
 ---- ---------------- ---------- -------------- -------------- --------------
    1 O                    8.0000     0.00000000     0.00000000     0.22140000
    2 H                    1.0000    -1.43000000     0.00000000    -0.88560000
    3 H                    1.0000     1.43000000     0.00000000    -0.88560000
 
      Atomic Mass 
      ----------- 
 
      O                 15.994910
      H                  1.007825
 

 Effective nuclear repulsion energy (a.u.)       9.1971984402

            Nuclear Dipole moment (a.u.) 
            ----------------------------
        X                 Y               Z
 ---------------- ---------------- ----------------
     0.0000000000     0.0000000000     0.0000000000
 
      Symmetry information
      --------------------
 
 Group name             C2v       
 Group number             16
 Group order               4
 No. of unique centers     2
 
      Symmetry unique atoms
 
     1    2
 


                                Z-matrix (autoz)
                                -------- 

 Units are Angstrom for bonds and degrees for angles
 
      Type          Name      I     J     K     L     M      Value
      ----------- --------  ----- ----- ----- ----- ----- ----------
    1 Stretch                  1     2                       0.95697
    2 Stretch                  1     3                       0.95697
    3 Bend                     2     1     3               104.51124
 
 
                      Basis "ao basis" -> "ao basis" (cartesian)
                      -----
  O (Oxygen)
  ----------
            Exponent  Coefficients 
       -------------- ---------------------------------------------------------
  1 S  5.48467170E+03  0.831735
  1 S  8.25234950E+02  1.530807
  1 S  1.88046960E+02  2.477149
  1 S  5.29645000E+01  3.256280
  1 S  1.68975700E+01  2.792894
  1 S  5.79963530E+00  0.954938
 
  2 S  1.55396160E+01 -0.617934
  2 S  3.59993360E+00 -0.275721
  2 S  1.01376180E+00  0.814208
 
  3 P  1.55396160E+01  3.116946
  3 P  3.59993360E+00  2.401437
  3 P  1.01376180E+00  1.054361
 
  4 S  2.70005800E-01  0.266956
 
  5 P  2.70005800E-01  0.277432
 
  6 D  8.00000000E-01  1.113825
 
  H (Hydrogen)
  ------------
            Exponent  Coefficients 
       -------------- ---------------------------------------------------------
  1 S  1.87311370E+01  0.214935
  1 S  2.82539370E+00  0.364571
  1 S  6.40121700E-01  0.415051
 
  2 S  1.61277800E-01  0.181381
 
 
 
    Basis function labels
    ---------------------
       No.  Atm El Type
       ---  --- -- ----
        1    1 O  s          
        2    1 O  s          
        3    1 O  px         
        4    1 O  py         
        5    1 O  pz         
        6    1 O  s          
        7    1 O  px         
        8    1 O  py         
        9    1 O  pz         
       10    1 O  dxx        
       11    1 O  dxy        
       12    1 O  dxz        
       13    1 O  dyy        
       14    1 O  dyz        
       15    1 O  dzz        
       16    2 H  s          
       17    2 H  s          
       18    3 H  s          
       19    3 H  s          

 Schwarz integral screening summary 
 ---------------------------------- 

        No. of atom pairs =       6
       No. of shell pairs =      55

 Atomic screening 

   value      no.     value      no.     value      no.     value      no.   
  -------- ------    -------- ------    -------- ------    -------- ------   
  0.00D+00      0    1.00D-13      0    1.00D-12      0    1.00D-11      0
  1.00D-10      0    1.00D-09      0    1.00D-08      0    1.00D-07      0
  1.00D-06      0    1.00D-05      0    1.00D-04      0    1.00D-03      0
  1.00D-02      0    1.00D-01      0    1.00D+00      6    1.00D+01      0


 Shell screening 

   value      no.     value      no.     value      no.     value      no.   
  -------- ------    -------- ------    -------- ------    -------- ------   
  0.00D+00      0    1.00D-13      0    1.00D-12      0    1.00D-11      0
  1.00D-10      0    1.00D-09      0    1.00D-08      0    1.00D-07      0
  1.00D-06      0    1.00D-05      0    1.00D-04      0    1.00D-03      0
  1.00D-02      1    1.00D-01     16    1.00D+00     38    1.00D+01      0

 
  Caching 1-el integrals 
  atom                      1  - neighbor  & S                      1
   10.0000000000000       exp AB   0.270005800000000     
  0.270005800000000     
  atom                      2  - neighbor  & S                      1
  0.684237255842050       exp AB   0.161277800000000     
  0.270005800000000     
  atom                      2  - neighbor  & S                      2
   10.0000000000000       exp AB   0.161277800000000     
  0.161277800000000     
  atom                      2  - neighbor  & S                      3
  0.517061246430921       exp AB   0.161277800000000     
  0.161277800000000     
 zmins =     0.161277800    0.161277800 lprod =   0 range =        11.75 acc   0.10D-05
 sh     1.430000000
  atom                      1  - neighbor  & S                      2
  0.684237255842050       exp AB   0.270005800000000     
  0.161277800000000     
  atom                      1  - neighbor  & S                      3
  0.684237255842050       exp AB   0.270005800000000     
  0.161277800000000     
 zmins =     0.270005800    0.161277800 lprod =   1 range =         9.60 acc   0.10D-05
 sh     1.132158418
  atom                      3  - neighbor  & S                      1
  0.684237255842050       exp AB   0.161277800000000     
  0.270005800000000     
  atom                      3  - neighbor  & S                      2
  0.517061246430921       exp AB   0.161277800000000     
  0.161277800000000     
  atom                      3  - neighbor  & S                      3
   10.0000000000000       exp AB   0.161277800000000     
  0.161277800000000     
 zmins =     0.161277800    0.161277800 lprod =   0 range =        11.75 acc   0.10D-05
 sh     1.430000000
  Center:                      1  Radial Pts. & Wghts. 
    1        0.000028042           6.6152346E-14
    2        0.000224341           1.6936897E-11
    3        0.000757210           4.3420615E-10
    4        0.001795134           4.3397334E-09
    5        0.003506977           2.5892103E-08
    6        0.006062265           1.1149372E-07
    7        0.009631553           3.8345025E-07
    8        0.014386879           1.1189808E-06
    9        0.020502306           2.8810950E-06
   10        0.028154556           6.7222184E-06
   11        0.037523751           1.4486850E-05
   12        0.048794256           2.9246399E-05
   13        0.062155643           5.5908239E-05
   14        0.077803796           1.0205268E-04
   15        0.095942158           1.7906701E-04
   16        0.116783158           3.0366635E-04
   17        0.140549842           4.9991886E-04
   18        0.167477731           8.0192997E-04
   19        0.197816967           1.2573917E-03
   20        0.231834779           1.9322720E-03
   21        0.269818357           2.9170159E-03
   22        0.312078190           4.3347633E-03
   23        0.358952003           6.3522744E-03
   24        0.410809393           9.1945212E-03
   25        0.468057354           1.3164278E-02
   26        0.531146901           1.8668595E-02
   27        0.600581068           2.6254834E-02
   28        0.676924659           3.6660140E-02
   29        0.760816233           5.0879990E-02
   30        0.852982985           7.0264202E-02
   31        0.954259415           9.6652978E-02
   32        1.065611013           1.3257227E-01
   33        1.188164689           1.8151846E-01
   34        1.323248405           2.4838021E-01
   35        1.472443586           3.4007522E-01
   36        1.637655595           4.6653191E-01
   37        1.821210345           6.4223973E-01
   38        2.025989624           8.8876537E-01
   39        2.255625404           1.2389688E+00
   40        2.514786988           1.7443334E+00
   41        2.809619922           2.4882817E+00
   42        3.148444480           3.6116649E+00
   43        3.542922960           5.3647897E+00
   44        4.010132869           8.2224681E+00
   45        4.576547385           1.3166144E+01
   46        5.286514074           2.2478971E+01
   47        6.223166682           4.2480644E+01
   48        7.573140634           9.6442346E+01
   49        9.931971039           3.3880794E+02
  Center:                      2  Radial Pts. & Wghts. 
    1        0.000044461           2.6366759E-13
    2        0.000355700           6.7508613E-11
    3        0.001200603           1.7308476E-09
    4        0.002846416           1.7302109E-08
    5        0.005561149           1.0325806E-07
    6        0.009614166           4.4482306E-07
    7        0.015276926           1.5307276E-06
    8        0.022823919           4.4704132E-06
    9        0.032533777           1.1521676E-05
   10        0.044690585           2.6916199E-05
   11        0.059585415           5.8095398E-05
   12        0.077518094           1.1750185E-04
   13        0.098799240           2.2511561E-04
   14        0.123752613           4.1198432E-04
   15        0.152717814           7.2507772E-04
   16        0.186053413           1.2339094E-03
   17        0.224140566           2.0395248E-03
   18        0.267387234           3.2866733E-03
   19        0.316233124           5.1802891E-03
   20        0.371155510           8.0078437E-03
   21        0.432676154           1.2169763E-02
   22        0.501369568           1.8221016E-02
   23        0.577872992           2.6928316E-02
   24        0.662898518           3.9349387E-02
   25        0.757247980           5.6943743E-02
   26        0.861831411           8.1729052E-02
   27        0.977690175           1.1650433E-01
   28        1.106026292           1.6517262E-01
   29        1.248240078           2.3321425E-01
   30        1.405979157           3.2839224E-01
   31        1.581203223           4.6182330E-01
   32        1.776271127           6.4963798E-01
   33        1.994060214           9.1561604E-01
   34        2.238133450           1.2954854E+00
   35        2.512979379           1.8441600E+00
   36        2.824366686           2.6483832E+00
   37        3.179886138           3.8497994E+00
   38        3.589812987           5.6893181E+00
   39        4.068548180           8.5980620E+00
   40        4.637177990           1.3399368E+01
   41        5.328388410           2.1806305E+01
   42        6.196933183           3.7830047E+01
   43        7.345451942           7.2646926E+01
   44        9.004369299           1.6770054E+02
   45       11.908945360           6.0031663E+02
     irreducible set of Lebedev Angular points ;
  0.009523809523810  1.000000000000000  0.000000000000000  0.000000000000000
  0.032142857142857  0.577350269189626  0.577350269189626  0.577350269189626
  0.028571428571429  0.459700843380983  0.000000000000000  0.888073833977115
   total no. of   reducible points:  38; test:  1.00000000
  0.012698412698413  1.000000000000000  0.000000000000000  0.000000000000000
  0.022574955908289  0.707106781186547  0.707106781186547  0.000000000000000
  0.021093750000000  0.577350269189626  0.577350269189626  0.577350269189626
  0.020173335537919  0.301511344577764  0.301511344577764  0.904534033733291
   total no. of   reducible points:  50; test:  1.00000000
  0.000513067179734  1.000000000000000  0.000000000000000  0.000000000000000
  0.016604069565742  0.707106781186547  0.707106781186547  0.000000000000000
 -0.029586038961039  0.577350269189626  0.577350269189626  0.577350269189626
  0.026576207082159  0.480384461415261  0.480384461415261  0.733799385705343
  0.016522170993716  0.320772648980776  0.000000000000000  0.947156221362588
   total no. of   reducible points:  74; test:  1.00000000
  0.011544011544012  1.000000000000000  0.000000000000000  0.000000000000000
  0.011943909085856  0.577350269189626  0.577350269189626  0.577350269189626
  0.011110555710603  0.369602846454150  0.369602846454150  0.852518311701268
  0.011876501294537  0.694354006602666  0.694354006602666  0.189063552885395
  0.011812303746904  0.374243039090341  0.000000000000000  0.927330657151172
   total no. of   reducible points:  86; test:  1.00000000
  0.003828270494937  1.000000000000000  0.000000000000000  0.000000000000000
  0.009793737512488  0.577350269189626  0.577350269189626  0.577350269189626
  0.008211737283191  0.185115635344736  0.185115635344736  0.965124035086594
  0.009942814891178  0.690421048382292  0.690421048382292  0.215957291845848
  0.009595471336071  0.395689473055942  0.395689473055942  0.828769981252592
  0.009694996361663  0.478369028812150  0.000000000000000  0.878158910604066
   total no. of   reducible points: 110; test:  1.00000000
  0.000599631368862  1.000000000000000  0.000000000000000  0.000000000000000
  0.007372999718621  0.707106781186547  0.707106781186547  0.000000000000000
  0.007210515360144  0.577350269189626  0.577350269189626  0.577350269189626
  0.007116355493118  0.676441040011426  0.676441040011426  0.291298882209527
  0.006753829486314  0.417496122796545  0.417496122796545  0.807089818359583
  0.007574394159054  0.157467667203908  0.157467667203908  0.974888643677173
  0.006991087353303  0.140355381171318  0.449332832326956  0.882270011260323
   total no. of   reducible points: 146; test:  1.00000000
  0.005544842902037  1.000000000000000  0.000000000000000  0.000000000000000
  0.006071332770671  0.707106781186547  0.707106781186547  0.000000000000000
  0.006383674773515  0.577350269189626  0.577350269189626  0.577350269189626
  0.005183387587748  0.255125262111413  0.255125262111413  0.932642590312691
  0.006317929009814  0.674360146036277  0.674360146036277  0.300793595137701
  0.006201670006589  0.431891069671941  0.431891069671941  0.791795559393492
  0.005477143385137  0.261393136033599  0.000000000000000  0.965232421976448
  0.005968383987681  0.499045316179604  0.144663074432512  0.854415804684659
   total no. of   reducible points: 170; test:  1.00000000
  0.001782340447245  1.000000000000000  0.000000000000000  0.000000000000000
  0.005716905949977  0.707106781186547  0.707106781186547  0.000000000000000
  0.005573383178849  0.577350269189626  0.577350269189626  0.577350269189626
  0.005608704082588  0.671297344269523  0.671297344269523  0.314196994182586
  0.005158237711805  0.289246562757544  0.289246562757544  0.912509096867474
  0.005518771467274  0.444693317871744  0.444693317871744  0.777493219314767
  0.004106777028169  0.129933544765007  0.129933544765007  0.982972302707253
  0.005051846064615  0.345770219761128  0.000000000000000  0.938319218137592
  0.005530248916233  0.159041710538353  0.836036015482459  0.525118572443642
   total no. of   reducible points: 194; test:  1.00000000
 -0.055226399197273  1.000000000000000  0.000000000000000  0.000000000000000
  0.004450274607445  0.577350269189626  0.577350269189626  0.577350269189626
  0.004496841067921  0.449204468739761  0.449204468739761  0.772289253148364
  0.005049153450479  0.252041949021020  0.252041949021020  0.934317778845812
  0.003976408018052  0.698190665844724  0.698190665844724  0.158302205463478
  0.004401400650381  0.658740524346096  0.658740524346096  0.363485684956727
  0.017245443505444  0.040385440500977  0.040385440500977  0.998367683967727
  0.004231083095357  0.582384230971558  0.000000000000000  0.812913653173365
  0.005198069864064  0.354587739051869  0.000000000000000  0.935022745880593
  0.004695720972569  0.227218180899819  0.486466153588665  0.843636521068894
   total no. of   reducible points: 230; test:  1.00000000
 -0.001313769127327  1.000000000000000  0.000000000000000  0.000000000000000
 -0.002522728704859  0.707106781186547  0.707106781186547  0.000000000000000
  0.004186853881701  0.577350269189626  0.577350269189626  0.577350269189626
  0.005315167977811  0.703937339158548  0.703937339158548  0.094575076403713
  0.004047142377086  0.101252624857241  0.101252624857241  0.989694807462905
  0.004112482394407  0.464744872642054  0.464744872642054  0.753673939250816
  0.003595584899759  0.327742065497163  0.327742065497163  0.886098344997499
  0.004256131351428  0.662033866369997  0.662033866369997  0.351315128564633
  0.004229582700647  0.850650808352040  0.000000000000000  0.525731112119134
  0.004080914225781  0.323348454269290  0.115311201100970  0.939227929749916
  0.004071467593831  0.231479015871260  0.524493924092236  0.819343388819120
   total no. of   reducible points: 266; test:  1.00000000
  0.000854591172513  1.000000000000000  0.000000000000000  0.000000000000000
  0.003599119285026  0.577350269189626  0.577350269189626  0.577350269189626
  0.003449788424306  0.351564034557011  0.351564034557011  0.867643624544083
  0.003604822601420  0.656632941021961  0.656632941021961  0.371034178384821
  0.003576729661743  0.472905413258100  0.472905413258100  0.743452042987556
  0.002352101413689  0.096183085226148  0.096183085226148  0.990705621379408
  0.003108953122414  0.221964523629418  0.221964523629418  0.949454317226443
  0.003650045807677  0.701176641608955  0.701176641608955  0.129238672710514
  0.002982344963172  0.264415288706066  0.000000000000000  0.964408914879206
  0.003600820932216  0.571895589187896  0.000000000000000  0.820326419827759
  0.003571540554273  0.251003475177047  0.800072749407395  0.544867737258077
  0.003392312205006  0.123354853258333  0.412772408316853  0.902442529533000
   total no. of   reducible points: 302; test:  1.00000000
  0.003006796749454  1.000000000000000  0.000000000000000  0.000000000000000
  0.003050627745651  0.577350269189626  0.577350269189626  0.577350269189626
  0.001621104600289  0.706896546391232  0.706896546391232  0.024383301669356
  0.003005701484902  0.479468262571203  0.479468262571203  0.734996850587746
  0.002990992529654  0.192753315487802  0.192753315487802  0.962129055136014
  0.002982170644108  0.693035796132712  0.693035796132712  0.198501311223365
  0.002721564237311  0.360830211552009  0.360830211552009  0.860001812127547
  0.003033513795811  0.649848616149617  0.649848616149617  0.394199888605839
  0.003007949555219  0.193294501323034  0.000000000000000  0.981140782843257
  0.002881964603055  0.380049491989930  0.000000000000000  0.924966152698679
  0.002958357626536  0.289955882549957  0.793453785658232  0.535123047718276
  0.003036020026407  0.096841214551040  0.828080150668686  0.552182074349399
  0.002832187403926  0.183343464704166  0.907465826530513  0.378009189874487
   total no. of   reducible points: 350; test:  1.00000000
  0.000526589796822  1.000000000000000  0.000000000000000  0.000000000000000
  0.002548219972003  0.707106781186547  0.707106781186547  0.000000000000000
  0.002512317418927  0.577350269189626  0.577350269189626  0.577350269189626
  0.002530403801186  0.690934630750911  0.690934630750911  0.212646824707552
  0.002014279020919  0.177483605460916  0.177483605460916  0.967987158791473
  0.002501725168403  0.491434263778475  0.491434263778475  0.719016501040843
  0.002513267174598  0.645666470742426  0.645666470742426  0.407712664897770
  0.002302694782227  0.286128901030764  0.286128901030764  0.914472801120872
  0.001462495621595  0.075680843671780  0.075680843671780  0.994255912631278
  0.002445373437313  0.392725976336800  0.392725976336800  0.831584400419232
  0.002417442375639  0.881813287779429  0.000000000000000  0.471598691151316
  0.001910951282180  0.977642811118265  0.000000000000000  0.210272522857307
  0.002416930044325  0.205482369640304  0.868946032287241  0.450233038258263
  0.002512236854563  0.590515704892527  0.799927854385729  0.106801826075805
  0.002496644054553  0.555015236107681  0.771746262691590  0.310428403516654
  0.002236607760438  0.937180985855372  0.334436314534346  0.099217696364292
   total no. of   reducible points: 434; test:  1.00000000
  ratio offdiag/diag   0.000000000000000E+000
 
  qrot: 

              1        2        3      
    1    1.0000   0.0000   0.0000
    2    0.0000   1.0000   0.0000
    3    0.0000   0.0000   1.0000
  me                      0   done genpts
  me                      1   done genpts
  me                      3   done genpts
  me                      4   done genpts
  me                      5   done genpts
  me                      6   done genpts
  me                      7   done genpts
  me                      8   done genpts
  me                      9   done genpts
  me                     10   done genpts
  me                     11   done genpts
  me                     12   done genpts
  me                     13   done genpts
  me                     14   done genpts
  me                     15   done genpts
  me                      2   done genpts
  me                      0   done uprt
  me                      1   done uprt
  me                      2   done uprt
  me                      3   done uprt
  me                      4   done uprt
  me                      5   done uprt
  me                      6   done uprt
  me                      7   done uprt
  me                      8   done uprt
  me                     10   done uprt
  me                      9   done uprt
  me                     11   done uprt
  me                     12   done uprt
  me                     13   done uprt
  me                     14   done uprt
  me                     15   done uprt
  me                      0  done mem
  me                      1  done mem
  me                      2  done mem
  me                      3  done mem
  me                      4  done mem
  me                      5  done mem
  me                      6  done mem
  me                      7  done mem
  me                      8  done mem
  me                      9  done mem
  me                     10  done mem
  me                     11  done mem
  me                     12  done mem
  me                     13  done mem
  me                     14  done mem
  me                     15  done mem
  dftinpanae: itol2e                      8  iaoacc                     14 
  tol_rho   1.000000000000000E-010
 
            General Information
            -------------------
          SCF calculation type: DFT
          Wavefunction type:  spin polarized.
          No. of atoms     :     3
          No. of electrons :    10
           Alpha electrons :     5
            Beta electrons :     5
          Charge           :     0
          Spin multiplicity:     1
          Use of symmetry is: on ; symmetry adaption is: on 
          Maximum number of iterations:  30
          AO basis - number of functions:    19
                     number of shells:    10
          Convergence on energy requested:  1.00D-06
          Convergence on density requested:  1.00D-05
          Convergence on gradient requested:  5.00D-04
 
              XC Information
              --------------
           Becke half-and-half Method XC Potential
                     Hartree-Fock (Exact) Exchange  0.500          
                        Slater Exchange Functional  0.500 local    
            Perdew 1991 LDA Correlation Functional  0.500 local    
 
             Grid Information
             ----------------
          Grid used for XC integration:  medium    
          Radial quadrature: Mura-Knowles        
          Angular quadrature: Lebedev. 
          Tag              B.-S. Rad. Rad. Pts. Rad. Cut. Ang. Pts.
          ---              ---------- --------- --------- ---------
          O                   0.60       49           5.0       434
          H                   0.35       45           6.0       434
          Grid pruning is: on 
          Number of quadrature shells:    94
          Spatial weights used:  Erf1
 
          Convergence Information
          -----------------------
          Convergence aids based upon iterative change in 
          total energy or number of iterations. 
          Levelshifting, if invoked, occurs when the 
          HOMO/LUMO gap drops below (HL_TOL):  1.00D-02
          DIIS, if invoked, will attempt to extrapolate 
          using up to (NFOCK): 10 stored Fock matrices.

                    Damping( 0%)  Levelshifting(0.5)       DIIS
                  --------------- ------------------- ---------------
          dE  on:    start            ASAP                start   
          dE off:    2 iters         30 iters            30 iters 

 
      Screening Tolerance Information
      -------------------------------
          Density screening/tol_rho:  1.00D-10
          AO Gaussian exp screening on grid/accAOfunc:  14
          CD Gaussian exp screening on grid/accCDfunc:  20
          XC Gaussian exp screening on grid/accXCfunc:  20
          Schwarz screening/accCoul:  1.00D-08

 
 
                         Geometry "geometry" -> "geometry"
                         ---------------------------------
 
 Output coordinates in a.u. (scale by  1.000000000 to convert to a.u.)
 
  No.       Tag          Charge          X              Y              Z
 ---- ---------------- ---------- -------------- -------------- --------------
    1 O                    8.0000     0.00000000     0.00000000     0.22140000
    2 H                    1.0000    -1.43000000     0.00000000    -0.88560000
    3 H                    1.0000     1.43000000     0.00000000    -0.88560000
 
      Atomic Mass 
      ----------- 
 
      O                 15.994910
      H                  1.007825
 

 Effective nuclear repulsion energy (a.u.)       9.1971984402

            Nuclear Dipole moment (a.u.) 
            ----------------------------
        X                 Y               Z
 ---------------- ---------------- ----------------
     0.0000000000     0.0000000000     0.0000000000
 
      Symmetry information
      --------------------
 
 Group name             C2v       
 Group number             16
 Group order               4
 No. of unique centers     2
 
      Symmetry unique atoms
 
     1    2
 


                                Z-matrix (autoz)
                                -------- 

 Units are Angstrom for bonds and degrees for angles
 
      Type          Name      I     J     K     L     M      Value
      ----------- --------  ----- ----- ----- ----- ----- ----------
    1 Stretch                  1     2                       0.95697
    2 Stretch                  1     3                       0.95697
    3 Bend                     2     1     3               104.51124
 


     <<<<<<    Before call to DFT_SCF.    >>>>>>
     <<<<<< date:  Oct 24  time: 14:44:03 >>>>>>


 Setting tolerance for linear dependence to 1.00D-05

 Setting tolerance for linear dependence to 1.00D-05



 Setting tolerance for linear dependence to 1.00D-05

 Setting tolerance for linear dependence to 1.00D-05
 Setting tolerance for linear dependence to 1.00D-05

 Setting tolerance for linear dependence to 1.00D-05

 Setting tolerance for linear dependence to 1.00D-05

 Setting tolerance for linear dependence to 1.00D-05

 Setting tolerance for linear dependence to 1.00D-05

 Setting tolerance for linear dependence to 1.00D-05

 Setting tolerance for linear dependence to 1.00D-05

 Setting tolerance for linear dependence to 1.00D-05

 Setting tolerance for linear dependence to 1.00D-05

 Setting tolerance for linear dependence to 1.00D-05

 Setting tolerance for linear dependence to 1.00D-05
 Setting tolerance for linear dependence to 1.00D-05
  lindep tolerance =   1.000000000000000E-005
  lindep tolerance =   1.000000000000000E-005
  lindep tolerance =   1.000000000000000E-005
  lindep tolerance =   1.000000000000000E-005
  lindep tolerance =   1.000000000000000E-005
  lindep tolerance =   1.000000000000000E-005
  lindep tolerance =   1.000000000000000E-005
  lindep tolerance =   1.000000000000000E-005
  lindep tolerance =   1.000000000000000E-005
  lindep tolerance =   1.000000000000000E-005
  lindep tolerance =   1.000000000000000E-005
  lindep tolerance =   1.000000000000000E-005
  lindep tolerance =   1.000000000000000E-005
  lindep tolerance =   1.000000000000000E-005
  lindep tolerance =   1.000000000000000E-005
  lindep tolerance =   1.000000000000000E-005


     <<<<<<    Before 3c-2e initialize.   >>>>>>
     <<<<<< date:  Oct 24  time: 14:44:03 >>>>>>


 Setting fock-build task_bf   :      -1
                    maxquartet:   10000
                    maxeri    :  129600
                    maxscr    :       0
                    intacc    : 0.0D+00
                    denscreen : T
                    dentol    : 1.0D-06

 
      Superposition of Atomic Density Guess
      -------------------------------------
 
 Sum of atomic energies:         -75.75081731
 
      Non-variational initial energy
      ------------------------------

 Total energy =     -75.919952
 1-e energy   =    -121.737767
 2-e energy   =      36.620616
 HOMO         =      -0.470482
 LUMO         =       0.114886
 

 Setting fock-build task_bf   :      -1
                    maxquartet:   10000
                    maxeri    :  129600
                    maxscr    :       0
                    intacc    : 0.0D+00
                    denscreen : T
                    dentol    : 1.0D-06

 
   Symmetry analysis of molecular orbitals - initial alpha
   -------------------------------------------------------
 
  Numbering of irreducible representations: 
 
     1 a1          2 a2          3 b1          4 b2      
 
  Orbital symmetries:
 
     1 a1          2 a1          3 b1          4 a1          5 b2      
     6 a1          7 b1          8 b1          9 a1         10 b2      
    11 a1         12 b1         13 a1         14 a1         15 a2      
    16 b2         17 a1         18 b1         19 a1      
 
 
   Symmetry analysis of molecular orbitals - initial beta
   ------------------------------------------------------
 
  Numbering of irreducible representations: 
 
     1 a1          2 a2          3 b1          4 b2      
 
  Orbital symmetries:
 
     1 a1          2 a1          3 b1          4 a1          5 b2      
     6 a1          7 b1          8 b1          9 a1         10 b2      
    11 a1         12 b1         13 a1         14 a1         15 a2      
    16 b2         17 a1         18 b1         19 a1      
 

 Wrote molecular orbitals to ./h2o_core_hole.movecs

   Time after variat. SCF:      0.2

 Setting fock-build task_bf   :      -1
                    maxquartet:   10000
                    maxeri    :  129600
                    maxscr    :       0
                    intacc    : 0.0D+00
                    denscreen : T
                    dentol    : 1.0D-06

   Time prior to 1st pass:      0.2


     <<<<<<      Before SCF iter loop.    >>>>>>
     <<<<<< date:  Oct 24  time: 14:44:04 >>>>>>

           DAMPING=T LEVELSHIFTING=F DIISING=T
          itol2e= 8 iAOacc=12 iXCacc=20


     <<<<<<            calling 1-e int    >>>>>>
     <<<<<< date:  Oct 24  time: 14:44:04 >>>>>>

    Kinetic Matrix Time:          0.0s

           Kinetic energy =     76.641987912202

    Potential Matrix Time:          0.0s


     <<<<<<    Before call to GETVCOUL.   >>>>>>
     <<<<<< date:  Oct 24  time: 14:44:04 >>>>>>



     <<<<<<    Before call to GETVXC.     >>>>>>
     <<<<<< date:  Oct 24  time: 14:44:04 >>>>>>



     <<<<<<    Before call to fock_2e.    >>>>>>
     <<<<<< date:  Oct 24  time: 14:44:04 >>>>>>

   0: nuse=  19(  19.0) avail=117354192Mb (out of117354192Mb) on .
   1: nuse=  19(  19.0) avail=117354192Mb (out of117354192Mb) on .
   2: nuse=  19(  19.0) avail=117354192Mb (out of117354192Mb) on .
   3: nuse=  19(  19.0) avail=117354192Mb (out of117354192Mb) on .
   4: nuse=  19(  19.0) avail=117354192Mb (out of117354192Mb) on .
   5: nuse=  19(  19.0) avail=117354192Mb (out of117354192Mb) on .
   6: nuse=  19(  19.0) avail=117354192Mb (out of117354192Mb) on .
   7: nuse=  19(  19.0) avail=117354192Mb (out of117354192Mb) on .
   8: nuse=  19(  19.0) avail=117354192Mb (out of117354192Mb) on .
   9: nuse=  19(  19.0) avail=117354192Mb (out of117354192Mb) on .
  10: nuse=  19(  19.0) avail=117354192Mb (out of117354192Mb) on .
  11: nuse=  19(  19.0) avail=117354192Mb (out of117354192Mb) on .
  12: nuse=  19(  19.0) avail=117354192Mb (out of117354192Mb) on .
  13: nuse=  19(  19.0) avail=117354192Mb (out of117354192Mb) on .
  14: nuse=  19(  19.0) avail=117354192Mb (out of117354192Mb) on .
  15: nuse=  19(  19.0) avail=117354192Mb (out of117354192Mb) on .

 #quartets = 1.009D+03 #integrals = 5.756D+03 #direct =  0.0% #cached =100.0%


 Integral file          = ./h2o_core_hole.aoints.00
 Record size in doubles =    65536    No. of integs per rec  =    43688
 Max. records in memory =        2    Max. records in file   = ********
 No. of bits per label  =        8    No. of bits per value  =       64


File balance: exchanges=     0  moved=     0  time=   0.0



     <<<<<<     After call to fock_2e.    >>>>>>
     <<<<<< date:  Oct 24  time: 14:44:04 >>>>>>

    Fock_2e Build Time:          0.0s
  *** grid_quadv0:                    calc_type:                     1
  *** grid_quadv0:                    grid_written: F
  *** grid_quadv0:                    grad: F
  *** grid_quadv0:                    kske: F
  *** grid_quadv0:                    do_scf: T
  *** grid_quadv0:                    fde_option:                     0
  *** grid_quadv0:                    n_per_rec:                  3070
  *** grid_quadv0:                    calc_type:                     1
  *** grid_quadv0:                    grid_written: F
  *** grid_quadv0:                    grad: F
  *** grid_quadv0:                    kske: F
  *** grid_quadv0:                    do_scf: T
  *** grid_quadv0:                    fde_option:                     0
  *** grid_quadv0:                    n_per_rec:                  3070
  *** grid_quadv0:                    calc_type:                     1
  *** grid_quadv0:                    grid_written: F
  *** grid_quadv0:                    grad: F
  *** grid_quadv0:                    kske: F
  *** grid_quadv0:                    do_scf: T
  *** grid_quadv0:                    fde_option:                     0
  *** grid_quadv0:                    n_per_rec:                  3070
  *** grid_quadv0:                    calc_type:                     1
  *** grid_quadv0:                    grid_written: F
  *** grid_quadv0:                    grad: F
  *** grid_quadv0:                    kske: F
  *** grid_quadv0:                    do_scf: T
  *** grid_quadv0:                    fde_option:                     0
  *** grid_quadv0:                    n_per_rec:                  3070
  *** grid_quadv0:                    calc_type:                     1
  *** grid_quadv0:                    grid_written: F
  *** grid_quadv0:                    grad: F
  *** grid_quadv0:                    kske: F
  *** grid_quadv0:                    do_scf: T
  *** grid_quadv0:                    fde_option:                     0
  *** grid_quadv0:                    n_per_rec:                  3070
  *** grid_quadv0:                    calc_type:                     1
  *** grid_quadv0:                    grid_written: F
  *** grid_quadv0:                    grad: F
  *** grid_quadv0:                    kske: F
  *** grid_quadv0:                    do_scf: T
  *** grid_quadv0:                    fde_option:                     0
  *** grid_quadv0:                    n_per_rec:                  3070
  *** grid_quadv0:                    calc_type:                     1
  *** grid_quadv0:                    grid_written: F
  *** grid_quadv0:                    grad: F
  *** grid_quadv0:                    kske: F
  *** grid_quadv0:                    do_scf: T
  *** grid_quadv0:                    fde_option:                     0
  *** grid_quadv0:                    n_per_rec:                  3070
  *** grid_quadv0:                    calc_type:                     1
  *** grid_quadv0:                    grid_written: F
  *** grid_quadv0:                    grad: F
  *** grid_quadv0:                    kske: F
  *** grid_quadv0:                    do_scf: T
  *** grid_quadv0:                    fde_option:                     0
  *** grid_quadv0:                    n_per_rec:                  3070
  *** grid_quadv0:                    calc_type:                     1
  *** grid_quadv0:                    grid_written: F
  *** grid_quadv0:                    grad: F
  *** grid_quadv0:                    kske: F
  *** grid_quadv0:                    do_scf: T
  *** grid_quadv0:                    fde_option:                     0
  *** grid_quadv0:                    n_per_rec:                  3070
  *** grid_quadv0:                    calc_type:                     1
  *** grid_quadv0:                    grid_written: F
  *** grid_quadv0:                    grad: F
  *** grid_quadv0:                    kske: F
  *** grid_quadv0:                    do_scf: T
  *** grid_quadv0:                    fde_option:                     0
  *** grid_quadv0:                    n_per_rec:                  3070
  *** grid_quadv0:                    calc_type:                     1
  *** grid_quadv0:                    grid_written: F
  *** grid_quadv0:                    grad: F
  *** grid_quadv0:                    kske: F
  *** grid_quadv0:                    do_scf: T
  *** grid_quadv0:                    fde_option:                     0
  *** grid_quadv0:                    n_per_rec:                  3070
  *** grid_quadv0:                    calc_type:                     1
  *** grid_quadv0:                    grid_written: F
  *** grid_quadv0:                    grad: F
  *** grid_quadv0:                    kske: F
  *** grid_quadv0:                    do_scf: T
  *** grid_quadv0:                    fde_option:                     0
  *** grid_quadv0:                    n_per_rec:                  3070
  *** grid_quadv0:                    calc_type:                     1
  *** grid_quadv0:                    grid_written: F
  *** grid_quadv0:                    grad: F
  *** grid_quadv0:                    kske: F
  *** grid_quadv0:                    do_scf: T
  *** grid_quadv0:                    fde_option:                     0
  *** grid_quadv0:                    n_per_rec:                  3070
  *** grid_quadv0:                    calc_type:                     1
  *** grid_quadv0:                    grid_written: F
  *** grid_quadv0:                    grad: F
  *** grid_quadv0:                    kske: F
  *** grid_quadv0:                    do_scf: T
  *** grid_quadv0:                    fde_option:                     0
  *** grid_quadv0:                    n_per_rec:                  3070
  *** grid_quadv0:                    calc_type:                     1
  *** grid_quadv0:                    grid_written: F
  *** grid_quadv0:                    grad: F
  *** grid_quadv0:                    kske: F
  *** grid_quadv0:                    do_scf: T
  *** grid_quadv0:                    fde_option:                     0
  *** grid_quadv0:                    n_per_rec:                  3070
  *** grid_quadv0:                    calc_type:                     1
  *** grid_quadv0:                    grid_written: F
  *** grid_quadv0:                    grad: F
  *** grid_quadv0:                    kske: F
  *** grid_quadv0:                    do_scf: T
  *** grid_quadv0:                    fde_option:                     0
  *** grid_quadv0:                    n_per_rec:                  3070
  going xcreplicated 
   0: nuse=  19(  18.8) avail=117354176Mb (out of117354176Mb) on .
   1: nuse=  19(  18.8) avail=117354176Mb (out of117354176Mb) on .
   2: nuse=  19(  18.8) avail=117354176Mb (out of117354176Mb) on .
   6: nuse=  19(  18.8) avail=117354176Mb (out of117354176Mb) on .
   3: nuse=  19(  18.8) avail=117354176Mb (out of117354176Mb) on .
   4: nuse=  19(  18.8) avail=117354176Mb (out of117354176Mb) on .
   7: nuse=  19(  18.8) avail=117354176Mb (out of117354176Mb) on .
   8: nuse=  19(  18.8) avail=117354176Mb (out of117354176Mb) on .
   9: nuse=  19(  18.8) avail=117354176Mb (out of117354176Mb) on .
  10: nuse=  19(  18.8) avail=117354176Mb (out of117354176Mb) on .
  11: nuse=  19(  18.8) avail=117354176Mb (out of117354176Mb) on .
  12: nuse=  19(  18.8) avail=117354176Mb (out of117354176Mb) on .
  13: nuse=  19(  18.8) avail=117354176Mb (out of117354176Mb) on .
  14: nuse=  19(  18.8) avail=117354176Mb (out of117354176Mb) on .
  15: nuse=  19(  18.8) avail=117354176Mb (out of117354176Mb) on .
   5: nuse=  19(  18.8) avail=117354176Mb (out of117354176Mb) on .
 l_cube input   11.00

  atom type   l_cube   no. cubes   segmts   rad   sub
 ----------- -------- ----------- -------- ----- -----
        1      6.67        34         3      10     8
        2      8.00        34         3      12     8

 Grid_pts file          = ./h2o_core_hole.gridpts.00
 Record size in doubles =  12289        No. of grid_pts per rec  =   3070
 Max. records in memory =      2        Max. recs in file   = *********

 me   0 NQTOTC NQ/cube    1125     225
 me   1 NQTOTC NQ/cube    1437     479
 me   2 NQTOTC NQ/cube     462      92
 me   3 NQTOTC NQ/cube    1920     960
 me   4 NQTOTC NQ/cube     205      51
 me   5 NQTOTC NQ/cube     498      99
 me   6 NQTOTC NQ/cube    1215     607
 me   7 NQTOTC NQ/cube     961     320
 me   8 NQTOTC NQ/cube      29      14
 me   9 NQTOTC NQ/cube      44      22
 me  10 NQTOTC NQ/cube      81      40
 me  11 NQTOTC NQ/cube     134      67
 me  12 NQTOTC NQ/cube      78      39
 me  13 NQTOTC NQ/cube      90      45
 me  14 NQTOTC NQ/cube     141      70
 me  15 NQTOTC NQ/cube     132      66
 
 XC quadr. integrated density :      10.000001 npts:     8234 nctrs:        3
 
    Fock_xc Build Time:          0.9s


     <<<<<<    End of parallel region.    >>>>>>
     <<<<<< date:  Oct 24  time: 14:44:07 >>>>>>

    Total Fock Matrix Build Time:          0.9s
 Etnew, Ecore, Ecoul, Exc(1), Exc(2), Totsic:   -85.0863619267371     
  -123.991592021238        47.8848142460162       -8.97958415151543     
  0.000000000000000E+000  0.000000000000000E+000
  delta =   -85.0863619267371     


         Total DFT energy =    -75.889163486539
      One electron energy =   -123.991592021238
           Coulomb energy =     47.884814246016
    Exchange-Corr. energy =     -8.979584151515
  delta =   -85.0863619267371     
  delta =   -85.0863619267371     
 Nuclear repulsion energy =      9.197198440198

 Numeric. integr. density =     10.000001137730

     Total iterative time =      1.1s




     <<<<<<        calling diis driver    >>>>>>
     <<<<<< date:  Oct 24  time: 14:44:07 >>>>>>

  delta =   -85.0863619267371     
  delta =   -85.0863619267371     
  delta =   -85.0863619267371     
  delta =   -85.0863619267371     
  delta =   -85.0863619267371     
  delta =   -85.0863619267371     
  delta =   -85.0863619267371     
  delta =   -85.0863619267371     
  delta =   -85.0863619267371     
  delta =   -85.0863619267371     
  delta =   -85.0863619267371     
  delta =   -85.0863619267371     
  delta =   -85.0863619267371     


     <<<<<<         called diis driver    >>>>>>
     <<<<<< date:  Oct 24  time: 14:44:07 >>>>>>


 global array: fock transf[1:19,1:19],  handle: -940 

            1           2           3           4           5           6  
       ----------- ----------- ----------- ----------- ----------- -----------
   1       2.34589    -0.00000    -0.00000    -0.75909    -0.90147    -0.00000
   2      -0.00000     1.55791     0.91433    -0.00000    -0.00000     0.00000
   3      -0.00000     0.91433     1.83201     0.00000    -0.00000    -0.00000
   4      -0.75909    -0.00000     0.00000     2.52425     0.24358    -0.00000
   5      -0.90147    -0.00000    -0.00000     0.24358     1.64840     0.00000
   6      -0.00000     0.00000    -0.00000    -0.00000     0.00000     1.94503
   7      -0.00000    -0.00000     0.00000    -0.00000    -0.00000     0.00714
   8      -0.11777    -0.00000    -0.00000     0.25266     0.10087     0.00000
   9      -0.00000     0.15166     0.51482    -0.00000     0.00000    -0.00000
  10      -0.00000    -0.00000    -0.00000     0.00000     0.00000    -0.01044
  11       0.02099     0.00000     0.00000     0.02009     0.00211    -0.00000
  12       0.12366    -0.00000    -0.00000    -0.42869     0.32130     0.00000
  13      -0.00000     0.46176    -0.13226    -0.00000     0.00000    -0.00000
  14      -0.46437    -0.00000    -0.00000    -0.03250     0.54795    -0.00000
  15      -0.21639     0.00000    -0.00000     0.93821     1.43229    -0.00000
  16       0.00000     0.00000     0.00000     0.00000    -0.00000     0.09586
  17       0.23357     0.00000    -0.00000    -0.05542     0.01700     0.00000
  18      -0.00000     0.09218    -0.08199     0.00000    -0.00000     0.00000
  19       0.21474     0.00000    -0.00000    -0.33786    -0.11598     0.00000

            7           8           9          10          11          12  
       ----------- ----------- ----------- ----------- ----------- -----------
   1      -0.00000    -0.11777    -0.00000    -0.00000     0.02099     0.12366
   2      -0.00000    -0.00000     0.15166    -0.00000     0.00000    -0.00000
   3       0.00000    -0.00000     0.51482    -0.00000     0.00000    -0.00000
   4      -0.00000     0.25266    -0.00000     0.00000     0.02009    -0.42869
   5      -0.00000     0.10087     0.00000     0.00000     0.00211     0.32130
   6       0.00714     0.00000    -0.00000    -0.01044    -0.00000     0.00000
   7       1.91330     0.00000     0.00000    -0.00224     0.00000     0.00000
   8       0.00000     0.89882     0.00000    -0.00000    -0.01777    -0.37896
   9       0.00000     0.00000     1.05878     0.00000    -0.00000    -0.00000
  10      -0.00224    -0.00000     0.00000     1.06726     0.00000    -0.00000
  11       0.00000    -0.01777    -0.00000     0.00000     1.88889     0.02420
  12       0.00000    -0.37896    -0.00000    -0.00000     0.02420     0.94088
  13       0.00000     0.00000     0.10275    -0.00000     0.00000     0.00000
  14       0.00000     0.50162    -0.00000     0.00000     0.06567     0.92723
  15       0.00000     1.23185    -0.00000     0.00000    -0.02259     1.36429
  16       0.02058    -0.00000    -0.00000    -0.04076     0.00000    -0.00000
  17       0.00000     0.02986    -0.00000     0.00000     0.09307     0.17666
  18      -0.00000     0.00000    -0.14321     0.00000    -0.00000    -0.00000
  19      -0.00000    -0.00558    -0.00000     0.00000    -0.01727     0.00773

           13          14          15          16          17          18  
       ----------- ----------- ----------- ----------- ----------- -----------
   1      -0.00000    -0.46437    -0.21639     0.00000     0.23357    -0.00000
   2       0.46176    -0.00000     0.00000     0.00000     0.00000     0.09218
   3      -0.13226    -0.00000    -0.00000     0.00000    -0.00000    -0.08199
   4      -0.00000    -0.03250     0.93821     0.00000    -0.05542     0.00000
   5       0.00000     0.54795     1.43229    -0.00000     0.01700    -0.00000
   6      -0.00000    -0.00000    -0.00000     0.09586     0.00000     0.00000
   7       0.00000     0.00000     0.00000     0.02058     0.00000    -0.00000
   8       0.00000     0.50162     1.23185    -0.00000     0.02986     0.00000
   9       0.10275    -0.00000    -0.00000    -0.00000    -0.00000    -0.14321
  10      -0.00000     0.00000     0.00000    -0.04076     0.00000     0.00000
  11       0.00000     0.06567    -0.02259     0.00000     0.09307    -0.00000
  12       0.00000     0.92723     1.36429    -0.00000     0.17666    -0.00000
  13       0.66773    -0.00000    -0.00000     0.00000    -0.00000     0.18975
  14      -0.00000    -0.06499    -4.12082    -0.00000    -0.65218    -0.00000
  15      -0.00000    -4.12082   -17.31133     0.00000    -2.16039     0.00000
  16       0.00000    -0.00000     0.00000    -0.27920     0.00000     0.00000
  17      -0.00000    -0.65218    -2.16039     0.00000    -0.58650     0.00000
  18       0.18975    -0.00000     0.00000     0.00000     0.00000    -0.49504
  19      -0.00000    -0.51896    -2.89880     0.00000    -0.31975     0.00000

           19  
       -----------
   1       0.21474
   2       0.00000
   3      -0.00000
   4      -0.33786
   5      -0.11598
   6       0.00000
   7      -0.00000
   8      -0.00558
   9      -0.00000
  10       0.00000
  11      -0.01727
  12       0.00773
  13      -0.00000
  14      -0.51896
  15      -2.89880
  16       0.00000
  17      -0.31975
  18       0.00000
  19      -1.37019


     <<<<<<               calling diag    >>>>>>
     <<<<<< date:  Oct 24  time: 14:44:07 >>>>>>



     <<<<<<                called diag    >>>>>>
     <<<<<< date:  Oct 24  time: 14:44:07 >>>>>>

    Diagonalization Time:          0.0s
           HOMO =  -0.285 LUMO =   0.135 RLSHIFT =   0.000 HL_GAP =   0.420
 
       Symmetry analysis of molecular orbitals - alpha
       -----------------------------------------------
 
  Numbering of irreducible representations: 
 
     1 a1          2 a2          3 b1          4 b2      
 
  Orbital symmetries:
 
     1 a1          2 a1          3 b1          4 a1          5 b2      
     6 a1          7 b1          8 b1          9 a1         10 a1      
    11 b2         12 b1         13 a1         14 a1         15 a2      
    16 b2         17 a1         18 b1         19 a1      
 

 global array: fock transf[1:19,1:19],  handle: -940 

            1           2           3           4           5           6  
       ----------- ----------- ----------- ----------- ----------- -----------
   1     -19.35457    -0.02982    -0.00000    -0.01285     0.00000    -0.03552
   2      -0.02982    -1.05136    -0.00000     0.05390     0.00000     0.01787
   3      -0.00000    -0.00000    -0.52814    -0.00000     0.00000     0.00000
   4      -0.01285     0.05390    -0.00000    -0.35791     0.00000    -0.03152
   5       0.00000     0.00000     0.00000     0.00000    -0.28042     0.00000
   6      -0.03552     0.01787     0.00000    -0.03152     0.00000     0.13828
   7      -0.00000    -0.00000     0.07594     0.00000    -0.00000     0.00000
   8       0.00000    -0.00000     0.08261    -0.00000     0.00000    -0.00000
   9       0.00650    -0.02831    -0.00000    -0.07128    -0.00000    -0.00911
  10      -0.00000     0.00000    -0.00000    -0.00000     0.06847     0.00000
  11       0.03076    -0.06887     0.00000     0.04054     0.00000    -0.05581
  12      -0.00000    -0.00000    -0.05863     0.00000     0.00000     0.00000
  13       0.03016    -0.02378    -0.00000     0.00231     0.00000    -0.03713
  14      -0.00104    -0.00869    -0.00000     0.04755     0.00000    -0.01061
  15       0.00000    -0.00000     0.00000     0.00000    -0.00000     0.00000
  16       0.00000    -0.00000     0.00000    -0.00000     0.04271    -0.00000
  17       0.00410    -0.00224     0.00000    -0.01053     0.00000    -0.01648
  18      -0.00000    -0.00000     0.01106     0.00000     0.00000     0.00000
  19      -0.08062     0.03616     0.00000     0.01157     0.00000     0.02928

            7           8           9          10          11          12  
       ----------- ----------- ----------- ----------- ----------- -----------
   1      -0.00000     0.00000     0.00650    -0.00000     0.03076    -0.00000
   2      -0.00000    -0.00000    -0.02831     0.00000    -0.06887    -0.00000
   3       0.07594     0.08261    -0.00000    -0.00000     0.00000    -0.05863
   4       0.00000     0.00000    -0.07128    -0.00000     0.04054     0.00000
   5      -0.00000     0.00000    -0.00000     0.06847     0.00000     0.00000
   6      -0.00000    -0.00000    -0.00911     0.00000    -0.05581     0.00000
   7       0.22933     0.03798     0.00000    -0.00000    -0.00000    -0.05689
   8       0.03798     0.89073     0.00000     0.00000     0.00000     0.00857
   9      -0.00000     0.00000     1.06168     0.00000    -0.00601    -0.00000
  10      -0.00000     0.00000     0.00000     1.06481     0.00000     0.00000
  11       0.00000     0.00000    -0.00601     0.00000     1.00195    -0.00000
  12      -0.05689     0.00857    -0.00000     0.00000    -0.00000     1.24827
  13      -0.00000     0.00000     0.00979    -0.00000     0.02452    -0.00000
  14      -0.00000     0.00000     0.00164    -0.00000     0.00579    -0.00000
  15       0.00000     0.00000     0.00000     0.00000    -0.00000     0.00000
  16       0.00000    -0.00000     0.00000    -0.00244    -0.00000     0.00000
  17      -0.00000     0.00000     0.00277    -0.00000     0.05804     0.00000
  18       0.03550     0.05822    -0.00000     0.00000    -0.00000    -0.00766
  19      -0.00000     0.00000    -0.02343     0.00000    -0.02219    -0.00000

           13          14          15          16          17          18  
       ----------- ----------- ----------- ----------- ----------- -----------
   1       0.03016    -0.00104     0.00000     0.00000     0.00410    -0.00000
   2      -0.02378    -0.00869    -0.00000    -0.00000    -0.00224    -0.00000
   3      -0.00000    -0.00000     0.00000     0.00000     0.00000     0.01106
   4       0.00231     0.04755     0.00000    -0.00000    -0.01053     0.00000
   5       0.00000     0.00000    -0.00000     0.04271     0.00000     0.00000
   6      -0.03713    -0.01061     0.00000    -0.00000    -0.01648    -0.00000
   7      -0.00000    -0.00000     0.00000     0.00000    -0.00000     0.03550
   8       0.00000    -0.00000     0.00000    -0.00000     0.00000     0.05822
   9       0.00979     0.00164     0.00000     0.00000     0.00277    -0.00000
  10      -0.00000    -0.00000     0.00000    -0.00244    -0.00000     0.00000
  11       0.02452     0.00579    -0.00000    -0.00000     0.05804    -0.00000
  12      -0.00000    -0.00000     0.00000     0.00000     0.00000    -0.00766
  13       1.30526    -0.00720     0.00000     0.00000    -0.03942    -0.00000
  14      -0.00720     1.89765    -0.00000    -0.00000     0.00397     0.00000
  15       0.00000    -0.00000     1.91177    -0.00000    -0.00000    -0.00000
  16       0.00000    -0.00000    -0.00000     1.95023    -0.00000     0.00000
  17      -0.03942     0.00397    -0.00000    -0.00000     2.46648    -0.00000
  18      -0.00000    -0.00000    -0.00000     0.00000     0.00000     2.78120
  19      -0.02498    -0.00187     0.00000    -0.00000     0.00900    -0.00000

           19  
       -----------
   1      -0.08062
   2       0.03616
   3       0.00000
   4       0.01157
   5       0.00000
   6       0.02928
   7       0.00000
   8       0.00000
   9      -0.02343
  10       0.00000
  11      -0.02219
  12      -0.00000
  13      -0.02498
  14      -0.00187
  15       0.00000
  16      -0.00000
  17       0.00900
  18      -0.00000
  19       3.80664


     <<<<<<               calling diag    >>>>>>
     <<<<<< date:  Oct 24  time: 14:44:07 >>>>>>



     <<<<<<                called diag    >>>>>>
     <<<<<< date:  Oct 24  time: 14:44:07 >>>>>>

    Diagonalization Time:          0.0s
           HOMO =  -0.285 LUMO =   0.135 RLSHIFT =   0.000 HL_GAP =   0.420
 
       Symmetry analysis of molecular orbitals - beta
       ----------------------------------------------
 
  Numbering of irreducible representations: 
 
     1 a1          2 a2          3 b1          4 b2      
 
  Orbital symmetries:
 
     1 a1          2 a1          3 b1          4 a1          5 b2      
     6 a1          7 b1          8 b1          9 a1         10 a1      
    11 b2         12 b1         13 a1         14 a1         15 a2      
    16 b2         17 a1         18 b1         19 a1      
 


     <<<<<<              calling densm    >>>>>>
     <<<<<< date:  Oct 24  time: 14:44:07 >>>>>>



     <<<<<<               called densm    >>>>>>
     <<<<<< date:  Oct 24  time: 14:44:07 >>>>>>


           Memory utilization after 1st SCF pass: 
           Heap Space remaining (MW):       32.61            32610692
          Stack Space remaining (MW):       32.77            32767684

   convergence    iter        energy       DeltaE   RMS-Dens  Diis-err    time
 ---------------- ----- ----------------- --------- --------- ---------  ------
 d= 0,ls=0.0,diis     1    -75.8891634865 -8.51D+01  1.46D-02  1.01D-01     1.2
                                                     5.41D-02  1.01D-01

 Wrote molecular orbitals to ./h2o_core_hole.movecs

             alpha eigenvalues
             -----------------
      (all occupied plus 10 virtual)
      ------------------------------

              1      
    1  -19.3551
    2   -1.0590
    3   -0.5416
    4   -0.3611
    5   -0.2847
    6    0.1350
    7    0.2295
    8    0.8962
    9    1.0027
   10    1.0662
   11    1.0683
   12    1.2536
   13    1.3082
   14    1.8988
   15    1.9118
                alpha foccs
                -----------

              1      
    1    1.0000
    2    1.0000
    3    1.0000
    4    1.0000
    5    1.0000
 
             beta eigenvalues
             ----------------

              1      
    1  -19.3551
    2   -1.0590
    3   -0.5416
    4   -0.3611
    5   -0.2847
    6    0.1350
    7    0.2295
    8    0.8962
    9    1.0027
   10    1.0662
   11    1.0683
   12    1.2536
   13    1.3082
   14    1.8988
   15    1.9118
                beta foccs
                ----------

              1      
    2    1.0000
    3    1.0000
    4    1.0000
    5    1.0000
 
                              Intermediate MO vectors
                              -----------------------
 

 global array: alpha evecs[1:19,1:19],  handle: -995 

            1           2           3           4           5           6  
       ----------- ----------- ----------- ----------- ----------- -----------
   1      -0.99241     0.20336     0.00000    -0.09286    -0.00000     0.10147
   2      -0.02654    -0.43641     0.00000     0.18335     0.00000    -0.07337
   3      -0.00000     0.00000     0.48317     0.00000    -0.00000    -0.00000
   4       0.00000    -0.00000    -0.00000     0.00000    -0.60605    -0.00000
   5       0.00142     0.13305    -0.00000     0.51464     0.00000     0.25294
   6      -0.01320    -0.42914    -0.00000     0.42821     0.00000    -1.36950
   7       0.00000    -0.00000     0.28604     0.00000    -0.00000     0.00000
   8      -0.00000     0.00000    -0.00000     0.00000    -0.54645    -0.00000
   9       0.00025     0.07418     0.00000     0.40495     0.00000     0.50842
  10       0.00855    -0.02404     0.00000     0.00864    -0.00000     0.04815
  11      -0.00000     0.00000     0.00000    -0.00000     0.00000     0.00000
  12       0.00000     0.00000    -0.08094    -0.00000     0.00000    -0.00000
  13       0.00858     0.00575     0.00000     0.00633     0.00000     0.06745
  14      -0.00000     0.00000     0.00000    -0.00000     0.07576     0.00000
  15       0.00855    -0.02443     0.00000    -0.05790    -0.00000     0.02789
  16      -0.00035    -0.14558    -0.24231    -0.13675     0.00000     0.06504
  17       0.00156    -0.01535    -0.14825    -0.11586     0.00000     1.01928
  18      -0.00035    -0.14558     0.24231    -0.13675    -0.00000     0.06504
  19       0.00156    -0.01535     0.14825    -0.11586    -0.00000     1.01928

            7           8           9          10          11          12  
       ----------- ----------- ----------- ----------- ----------- -----------
   1       0.00000     0.00000    -0.04208    -0.02220     0.00000     0.00000
   2      -0.00000    -0.00000     0.54655    -0.63609     0.00000     0.00000
   3       0.36312     0.14226    -0.00000     0.00000    -0.00000    -1.03219
   4       0.00000     0.00000    -0.00000    -0.00000    -0.98418    -0.00000
   5      -0.00000     0.00000    -0.22442    -0.87721     0.00000    -0.00000
   6      -0.00000    -0.00000    -0.74148     1.22694    -0.00000    -0.00000
   7       0.83986     0.59099     0.00000    -0.00000    -0.00000     1.56954
   8       0.00000     0.00000     0.00000     0.00000     1.01778    -0.00000
   9      -0.00000     0.00000    -0.27215     0.82953    -0.00000     0.00000
  10      -0.00000    -0.00000    -0.04421    -0.26435     0.00000     0.00000
  11      -0.00000    -0.00000     0.00000    -0.00000    -0.00000     0.00000
  12      -0.05612     0.31099    -0.00000    -0.00000     0.00000    -0.00236
  13      -0.00000     0.00000     0.28140    -0.21631     0.00000     0.00000
  14      -0.00000    -0.00000    -0.00000    -0.00000    -0.02667     0.00000
  15       0.00000    -0.00000     0.16457    -0.25911     0.00000     0.00000
  16       0.06300     0.85461    -0.87905    -0.05892     0.00000    -0.06124
  17       1.37017    -0.52439     0.58632    -0.01758    -0.00000     0.91234
  18      -0.06300    -0.85461    -0.87905    -0.05892     0.00000     0.06124
  19      -1.37017     0.52439     0.58632    -0.01758    -0.00000    -0.91234

           13          14          15          16          17          18  
       ----------- ----------- ----------- ----------- ----------- -----------
   1      -0.08372    -0.00788     0.00000    -0.00000    -0.05258     0.00000
   2      -1.48116    -0.09097     0.00000     0.00000    -0.49131    -0.00000
   3      -0.00000    -0.00000    -0.00000     0.00000    -0.00000    -0.02710
   4      -0.00000     0.00000     0.00000     0.01136    -0.00000    -0.00000
   5       0.45648     0.00201    -0.00000     0.00000     0.04789     0.00000
   6       3.68689     0.26261    -0.00000     0.00000     1.52983    -0.00000
   7       0.00000     0.00000     0.00000     0.00000     0.00000     0.86115
   8       0.00000    -0.00000     0.00000     0.03962    -0.00000     0.00000
   9      -1.12463    -0.15224     0.00000    -0.00000    -0.72366    -0.00000
  10      -0.65601     0.57930     0.00000     0.00000     0.76384     0.00000
  11      -0.00000     0.00000    -1.73205     0.00000     0.00000    -0.00000
  12       0.00000    -0.00000     0.00000    -0.00000    -0.00000    -2.23013
  13      -0.30572     0.36177    -0.00000    -0.00000    -1.13311     0.00000
  14       0.00000     0.00000     0.00000     1.73019    -0.00000    -0.00000
  15      -0.40834    -1.00926     0.00000    -0.00000     0.05144     0.00000
  16      -0.31848    -0.08846    -0.00000    -0.00000    -0.81849     0.93924
  17      -0.80956    -0.04397     0.00000     0.00000    -0.14194    -0.03674
  18      -0.31848    -0.08846    -0.00000    -0.00000    -0.81849    -0.93924
  19      -0.80956    -0.04397     0.00000     0.00000    -0.14194     0.03674

           19  
       -----------
   1      -0.47094
   2       0.32119
   3      -0.00000
   4       0.00000
   5       0.11971
   6       3.64994
   7       0.00000
   8      -0.00000
   9      -0.32703
  10      -1.52489
  11       0.00000
  12      -0.00000
  13      -1.56703
  14      -0.00000
  15      -1.54580
  16       0.12412
  17      -0.55314
  18       0.12412
  19      -0.55314

 global array: beta evecs[1:19,1:19],  handle: -990 

            1           2           3           4           5           6  
       ----------- ----------- ----------- ----------- ----------- -----------
   1      -0.99241    -0.20336    -0.00000    -0.09286     0.00000     0.10147
   2      -0.02654     0.43641    -0.00000     0.18335    -0.00000    -0.07337
   3      -0.00000     0.00000    -0.48317     0.00000     0.00000     0.00000
   4      -0.00000     0.00000     0.00000     0.00000     0.60605     0.00000
   5       0.00142    -0.13305    -0.00000     0.51464    -0.00000     0.25294
   6      -0.01320     0.42914     0.00000     0.42821     0.00000    -1.36950
   7       0.00000     0.00000    -0.28604    -0.00000     0.00000     0.00000
   8      -0.00000     0.00000     0.00000     0.00000     0.54645     0.00000
   9       0.00025    -0.07418     0.00000     0.40495    -0.00000     0.50842
  10       0.00855     0.02404     0.00000     0.00864    -0.00000     0.04815
  11       0.00000     0.00000     0.00000    -0.00000    -0.00000     0.00000
  12      -0.00000    -0.00000     0.08094    -0.00000    -0.00000     0.00000
  13       0.00858    -0.00575    -0.00000     0.00633    -0.00000     0.06745
  14      -0.00000    -0.00000    -0.00000    -0.00000    -0.07576    -0.00000
  15       0.00855     0.02443    -0.00000    -0.05790     0.00000     0.02789
  16      -0.00035     0.14558     0.24231    -0.13675     0.00000     0.06504
  17       0.00156     0.01535     0.14825    -0.11586    -0.00000     1.01928
  18      -0.00035     0.14558    -0.24231    -0.13675     0.00000     0.06504
  19       0.00156     0.01535    -0.14825    -0.11586     0.00000     1.01928

            7           8           9          10          11          12  
       ----------- ----------- ----------- ----------- ----------- -----------
   1       0.00000    -0.00000     0.04208    -0.02220    -0.00000     0.00000
   2      -0.00000    -0.00000    -0.54655    -0.63609    -0.00000     0.00000
   3      -0.36312    -0.14226     0.00000     0.00000    -0.00000     1.03219
   4       0.00000     0.00000     0.00000    -0.00000     0.98418     0.00000
   5       0.00000     0.00000     0.22442    -0.87721    -0.00000    -0.00000
   6      -0.00000     0.00000     0.74148     1.22694     0.00000    -0.00000
   7      -0.83986    -0.59099    -0.00000    -0.00000     0.00000    -1.56954
   8       0.00000     0.00000    -0.00000     0.00000    -1.01778    -0.00000
   9       0.00000    -0.00000     0.27215     0.82953     0.00000     0.00000
  10       0.00000    -0.00000     0.04421    -0.26435    -0.00000     0.00000
  11       0.00000     0.00000     0.00000    -0.00000     0.00000    -0.00000
  12       0.05612    -0.31099     0.00000     0.00000     0.00000     0.00236
  13       0.00000    -0.00000    -0.28140    -0.21631    -0.00000     0.00000
  14      -0.00000    -0.00000     0.00000    -0.00000     0.02667     0.00000
  15       0.00000    -0.00000    -0.16457    -0.25911    -0.00000     0.00000
  16      -0.06300    -0.85461     0.87905    -0.05892    -0.00000     0.06124
  17      -1.37017     0.52439    -0.58632    -0.01758     0.00000    -0.91234
  18       0.06300     0.85461     0.87905    -0.05892    -0.00000    -0.06124
  19       1.37017    -0.52439    -0.58632    -0.01758    -0.00000     0.91234

           13          14          15          16          17          18  
[...]
 geometry:geometry:zmt_ijklop_nam           char[160]    Tue Oct 24 14:44:03 2017 
 task:walltime                         double[1]      Tue Oct 24 14:44:09 2017 
 dft:cfac                              double[64]     Tue Oct 24 14:44:03 2017 
 geometry:geometry:efield              double[3]      Tue Oct 24 14:44:03 2017 
 dft:d_conv                            double[1]      Tue Oct 24 14:44:03 2017 
 dft:input vectors                       char[23]     Tue Oct 24 14:44:04 2017 
 basis:ao basis:tags info                 int[280]    Tue Oct 24 14:44:03 2017 
 focc:occup_switch                        int[1]      Tue Oct 24 14:44:03 2017 
 geometry:geometry:zmt_ijkang_frz        logical[160]    Tue Oct 24 14:44:03 2017 
 prop:Nocc_a                              int[1]      Tue Oct 24 14:44:03 2017 
 prop:Nocc_b                              int[1]      Tue Oct 24 14:44:03 2017 
 dft:nradpts                              int[1]      Tue Oct 24 14:44:03 2017 
 task:dipole                           double[3]      Tue Oct 24 14:44:09 2017 
 dft:diisoff                           double[1]      Tue Oct 24 14:44:03 2017 
 dft:noio                                 int[1]      Tue Oct 24 14:44:03 2017 
 dft:hl_tol                            double[1]      Tue Oct 24 14:44:03 2017 
 geometry:ngeom                           int[1]      Tue Oct 24 14:44:03 2017 
 geometry:geometry:zmt_ijklto             int[640]    Tue Oct 24 14:44:03 2017 
 geometry:geometry:zmt_ijklnb             int[640]    Tue Oct 24 14:44:03 2017 
 dft:scftype                             char[4]      Tue Oct 24 14:44:03 2017 
 dft:imull                                int[1]      Tue Oct 24 14:44:03 2017 
 dft:ndamp                                int[1]      Tue Oct 24 14:44:03 2017 
 geometry:geometry:operators           double[2304]   Tue Oct 24 14:44:03 2017 
 dft:cs00                             logical[1]      Tue Oct 24 14:44:03 2017 
 basis:ao basis:star nr tags              int[1]      Tue Oct 24 14:44:03 2017 
 geometry:geometry:zmt_ijkang_val         double[160]    Tue Oct 24 14:44:03 2017 
 dft:beta irreps                          int[19]     Tue Oct 24 14:44:09 2017 
 dft:iAOacc                               int[1]      Tue Oct 24 14:44:03 2017 
 dft:noc                                  int[2]      Tue Oct 24 14:44:03 2017 
 dft:levelshift                       logical[1]      Tue Oct 24 14:44:03 2017 
 geometry:geometry:zmt_ijklto_nam           char[160]    Tue Oct 24 14:44:03 2017 
 geometry:geometry:zmt_ijklop_frz        logical[160]    Tue Oct 24 14:44:03 2017 
 geometry:geometry:zmt_varsign         double[3]      Tue Oct 24 14:44:03 2017 
 geometry:geometry:recip vectors         double[3]      Tue Oct 24 14:44:03 2017 
 dft:gridtype                            char[7]      Tue Oct 24 14:44:03 2017 
 dft:diison                            double[1]      Tue Oct 24 14:44:03 2017 
 dft:ssw                              logical[1]      Tue Oct 24 14:44:03 2017 
 geometry:geometry:no. unique centers            int[1]      Tue Oct 24 14:44:03 2017 
 basis:ao basis:contraction info            int[90000]  Tue Oct 24 14:44:03 2017 
 dft:itol2e                               int[1]      Tue Oct 24 14:44:03 2017 
 focc:occup                               int[2]      Tue Oct 24 14:44:03 2017 
 geometry:geometry:zmt_izmat              int[10]     Tue Oct 24 14:44:03 2017 
 dft:nodiis                           logical[1]      Tue Oct 24 14:44:03 2017 
 dft:incore                           logical[1]      Tue Oct 24 14:44:03 2017 
 basis:ao basis:bs_nr_tags                int[1]      Tue Oct 24 14:44:03 2017 
 geometry:geometry:zmt_ijklop_val         double[160]    Tue Oct 24 14:44:03 2017 
 geometry:geometry:group number            int[1]      Tue Oct 24 14:44:03 2017 
 dft:mxnang                               int[1]      Tue Oct 24 14:44:03 2017 
 geometry:geometry:recip angles         double[3]      Tue Oct 24 14:44:03 2017 
 dft:lebedev                          logical[1]      Tue Oct 24 14:44:03 2017 
 dft:levloff                           double[1]      Tue Oct 24 14:44:03 2017 
 geometry:geometry:zmt_varname           char[6]      Tue Oct 24 14:44:03 2017 
 dft:ipol                                 int[1]      Tue Oct 24 14:44:03 2017 
 dft:iangquad                             int[1]      Tue Oct 24 14:44:03 2017 
 dft:lxfac                            logical[64]     Tue Oct 24 14:44:03 2017 
 geometry:geometry:system type            int[1]      Tue Oct 24 14:44:03 2017 
 grid:eaf_size_in_dbl                     int[1]      Tue Oct 24 14:44:04 2017 
 dft:nlxfac                           logical[64]     Tue Oct 24 14:44:03 2017 
 dft:mult                                 int[1]      Tue Oct 24 14:44:03 2017 
 basis:ao basis:bs_stdname               char[14]     Tue Oct 24 14:44:03 2017 
 geometry:geometry:charges             double[3]      Tue Oct 24 14:44:03 2017 
 dft:nquad_task                           int[1]      Tue Oct 24 14:44:03 2017 
 geometry:geometry:zmt_nizmat             int[1]      Tue Oct 24 14:44:03 2017 
 basis:ao basis:header                    int[7]      Tue Oct 24 14:44:03 2017 
 geometry:geometry:zmt_cvr_scaling         double[1]      Tue Oct 24 14:44:03 2017 
 geometry:geometry:tags                  char[6]      Tue Oct 24 14:44:03 2017 
 dft:xcname                              char[2312]   Tue Oct 24 14:44:03 2017 
 dft:cname                               char[2156]   Tue Oct 24 14:44:03 2017 
 geometry:geometry:zmt_ijklnb_nam           char[160]    Tue Oct 24 14:44:03 2017 
 geometry:geometry:zmt_ijklto_frz        logical[160]    Tue Oct 24 14:44:03 2017 
 dft:g_conv                            double[1]      Tue Oct 24 14:44:03 2017 
 geometry:geometry:include_bqbq        logical[1]      Tue Oct 24 14:44:03 2017 
 geometry:geometry:zmt_ijklop             int[640]    Tue Oct 24 14:44:03 2017 
 geometry:geometry:group name            char[4]      Tue Oct 24 14:44:03 2017 
 dft:nang                                 int[200]    Tue Oct 24 14:44:03 2017 
 dft:energy                            double[1]      Tue Oct 24 14:44:09 2017 
 basisprint:ao basis                  logical[1]      Tue Oct 24 14:44:03 2017 
 dft:radgrid                             char[7]      Tue Oct 24 14:44:03 2017 
 dft:rlshift                           double[1]      Tue Oct 24 14:44:03 2017 
 dft:delta_ac                          double[1]      Tue Oct 24 14:44:03 2017 
 dft:nfock                                int[1]      Tue Oct 24 14:44:03 2017 
 dft:e_conv                            double[1]      Tue Oct 24 14:44:03 2017 
 dft:nolevelshifting                  logical[1]      Tue Oct 24 14:44:03 2017 
 geometry:geometry:zmt_ijklto_val         double[160]    Tue Oct 24 14:44:03 2017 
 geometry:geometry:zmt_maxtor             int[1]      Tue Oct 24 14:44:03 2017 
 dft:dampoff                           double[1]      Tue Oct 24 14:44:03 2017 
 dft:output vectors                      char[23]     Tue Oct 24 14:44:04 2017 
 dft:lb94                             logical[1]      Tue Oct 24 14:44:03 2017 
 geometry:geometry:map_atoms              int[9]      Tue Oct 24 14:44:03 2017 
 dft:converged                        logical[1]      Tue Oct 24 14:44:09 2017 
 dft:job_grid_acc                      double[1]      Tue Oct 24 14:44:03 2017 
 dft:diis                             logical[1]      Tue Oct 24 14:44:03 2017 
 basis:ao basis:number of exps and coeffs            int[1]      Tue Oct 24 14:44:03 2017 
 geometry:names                          char[9]      Tue Oct 24 14:44:03 2017 
 dft:ltight                           logical[1]      Tue Oct 24 14:44:03 2017 
 geometry:geometry:masses              double[3]      Tue Oct 24 14:44:03 2017 
 dft:tol_rho                           double[1]      Tue Oct 24 14:44:03 2017 
 scf:scftype                             char[4]      Tue Oct 24 14:44:03 2017 
 dft:ncydp                                int[1]      Tue Oct 24 14:44:03 2017 
 basis:ao basis:exps and coeffs         double[38]     Tue Oct 24 14:44:03 2017 
 geometry:geometry:unique centers            int[2]      Tue Oct 24 14:44:03 2017 
 geometry:geometry:zmt_ijbond_nam           char[160]    Tue Oct 24 14:44:03 2017 
 dft:ncysh                                int[1]      Tue Oct 24 14:44:03 2017 
 dft:xfac                              double[64]     Tue Oct 24 14:44:03 2017 
 geometry:geometry:amatrix             double[9]      Tue Oct 24 14:44:03 2017 
 dft:ncyds                                int[1]      Tue Oct 24 14:44:03 2017 
 geometry:geometry:inv nuc expon         double[3]      Tue Oct 24 14:44:03 2017 
 geometry:geometry:zmt_ijklnb_val         double[160]    Tue Oct 24 14:44:03 2017 
 geometry:geometry:vel                 double[9]      Tue Oct 24 14:44:03 2017 
 geometry:geometry:zmt_ijklnb_frz        logical[160]    Tue Oct 24 14:44:03 2017 
 task:status                          logical[1]      Tue Oct 24 14:44:09 2017 
 dft:xname                               char[2351]   Tue Oct 24 14:44:03 2017 
 geometry:geometry:direct volume         double[1]      Tue Oct 24 14:44:03 2017 
 geometry:geometry:num_operators            int[1]      Tue Oct 24 14:44:03 2017 
 uhf:coulomb                           double[1]      Tue Oct 24 14:44:09 2017 
 basis:nbasis                             int[1]      Tue Oct 24 14:44:03 2017 
 file_prefix                             char[14]     Tue Oct 24 14:44:03 2017 
 task:energy                           double[1]      Tue Oct 24 14:44:09 2017 
 dft:xccomb                           logical[64]     Tue Oct 24 14:44:03 2017 
 geometry:geometry:ncenter                int[1]      Tue Oct 24 14:44:03 2017 
 dft:tol2e                             double[1]      Tue Oct 24 14:44:03 2017 
 dft:nagrid                               int[1]      Tue Oct 24 14:44:03 2017 
 geometry:geometry:zmt_nzvar              int[1]      Tue Oct 24 14:44:03 2017 
 dft:max_ovl                          logical[1]      Tue Oct 24 14:44:03 2017 
 dft:theory                              char[4]      Tue Oct 24 14:44:03 2017 
 dft:xc_spec                             char[11]     Tue Oct 24 14:44:03 2017 
 basis:ao basis:assoc ecp name           char[4]      Tue Oct 24 14:44:03 2017 
 dft:direct                           logical[1]      Tue Oct 24 14:44:03 2017 
 dft:iterations                           int[1]      Tue Oct 24 14:44:03 2017 
 dft:nlcfac                           logical[64]     Tue Oct 24 14:44:03 2017 
 geometry:geometry:zmt_ijbond             int[320]    Tue Oct 24 14:44:03 2017 
 dft:damp                             logical[1]      Tue Oct 24 14:44:03 2017 
 dft:radius                            double[1]      Tue Oct 24 14:44:03 2017 
 dft:idecomp                              int[1]      Tue Oct 24 14:44:03 2017 
 geometry:geometry:zmt_source            char[6]      Tue Oct 24 14:44:03 2017 
 geometry:geometry:setting number            int[1]      Tue Oct 24 14:44:03 2017 
 basis:ao basis:bs_tags                  char[4]      Tue Oct 24 14:44:03 2017 
 scf:tol2e                             double[1]      Tue Oct 24 14:44:03 2017 
 rtdb:stored:state                    logical[3]      Tue Oct 24 14:44:03 2017 
 dft:mxnrad                               int[1]      Tue Oct 24 14:44:03 2017 
 dft:iqrot                                int[1]      Tue Oct 24 14:44:03 2017 
 geometry:geometry:zmt_ijbond_frz        logical[160]    Tue Oct 24 14:44:03 2017 


 HDBM usage statistics
 ---------------------
 Reads         = 1836
 Inserts       = 1036
 Replaces      = 360
 Extracts      = 0
 Deletes       = 2052
 Reuses        = 22

 Memory allocs = 9388
 Memory frees  = 9388
 Memory max    = 1518133
 Memory in use = 0

 IO seeks      = 3773
 IO reads      = 2710
 IO writes     = 3133
 IO nread      = 2472148
 IO nwrite     = 2429411

 Summary of allocated global arrays
-----------------------------------
  No active global arrays



                         GA Statistics for process    0
                         ------------------------------

       create   destroy   get      put      acc     scatter   gather  read&inc
calls:  587      587     3011      751      712        0        0      112     
number of processes/call 2.66e+00 2.25e+00 4.16e+00 0.00e+00 0.00e+00
bytes total:             2.84e+06 7.70e+05 1.30e+06 0.00e+00 0.00e+00 8.96e+02
bytes remote:            1.03e+06 1.58e+05 4.85e+05 0.00e+00 0.00e+00 0.00e+00
Max memory consumed for GA by this process: 121352 bytes
 
MA_summarize_allocated_blocks: starting scan ...
MA_summarize_allocated_blocks: scan completed: 0 heap blocks, 0 stack blocks
MA usage statistics:

	allocation statistics:
					      heap	     stack
					      ----	     -----
	current number of blocks	         0	         0
	maximum number of blocks	        22	        54
	current total bytes		         0	         0
	maximum total bytes		   1258312	  22511208
	maximum total K-bytes		      1259	     22512
	maximum total M-bytes		         2	        23

	calls per routine:
		        37  MA_alloc_get
		        39  MA_allocate_heap
		       456  MA_chop_stack
		        39  MA_free_heap
		         0  MA_free_heap_piece
		      2722  MA_get_index
		         5  MA_get_mbase
		         0  MA_get_next_memhandle
		         0  MA_get_numalign
		        60  MA_get_pointer
		         1  MA_init
		         0  MA_initialized
		         0  MA_init_memhandle_iterator
		       326  MA_inquire_avail
		         2  MA_inquire_heap
		         0  MA_inquire_heap_check_stack
		         0  MA_inquire_heap_no_partition
		         2  MA_inquire_stack
		         0  MA_inquire_stack_check_heap
		         0  MA_inquire_stack_no_partition
		      1386  MA_pop_stack
		         1  MA_print_stats
		      2683  MA_push_get
		      2739  MA_push_stack
		         3  MA_set_auto_verify
		         1  MA_set_error_print
		         3  MA_set_hard_fail
		         1  MA_set_numalign
		      2119  MA_sizeof
		        10  MA_sizeof_overhead
		         1  MA_summarize_allocated_blocks
		         0  MA_trace
		      9897  MA_verify_allocator_stuff
 
 
                                     CITATION
                                     --------
                Please cite the following reference when publishing
                           results obtained with NWChem:
 
                 M. Valiev, E.J. Bylaska, N. Govind, K. Kowalski,
              T.P. Straatsma, H.J.J. van Dam, D. Wang, J. Nieplocha,
                        E. Apra, T.L. Windus, W.A. de Jong
                 "NWChem: a comprehensive and scalable open-source
                  solution for large scale molecular simulations"
                      Comput. Phys. Commun. 181, 1477 (2010)
                           doi:10.1016/j.cpc.2010.04.018
 
                                      AUTHORS
                                      -------
          E. Apra, E. J. Bylaska, W. A. de Jong, N. Govind, K. Kowalski,
       T. P. Straatsma, M. Valiev, H. J. J. van Dam, D. Wang, T. L. Windus,
        J. Hammond, J. Autschbach, K. Bhaskaran-Nair, J. Brabec, K. Lopata,
       S. A. Fischer, S. Krishnamoorthy, W. Ma, M. Klemm, O. Villa, Y. Chen,
    V. Anisimov, F. Aquino, S. Hirata, M. T. Hackler, T. Risthaus, M. Malagoli,
       A. Marenich, A. Otero-de-la-Roza, J. Mullin, P. Nichols, R. Peverati,
     J. Pittner, Y. Zhao, P.-D. Fan, A. Fonari, M. Williamson, R. J. Harrison,
       J. R. Rehr, M. Dupuis, D. Silverstein, D. M. A. Smith, J. Nieplocha,
        V. Tipparaju, M. Krishnan, B. E. Van Kuiken, A. Vazquez-Mayagoitia,
        L. Jensen, M. Swart, Q. Wu, T. Van Voorhis, A. A. Auer, M. Nooijen,
      L. D. Crosby, E. Brown, G. Cisneros, G. I. Fann, H. Fruchtl, J. Garza,
        K. Hirao, R. A. Kendall, J. A. Nichols, K. Tsemekhman, K. Wolinski,
     J. Anchell, D. E. Bernholdt, P. Borowski, T. Clark, D. Clerc, H. Dachsel,
   M. J. O. Deegan, K. Dyall, D. Elwood, E. Glendening, M. Gutowski, A. C. Hess,
         J. Jaffe, B. G. Johnson, J. Ju, R. Kobayashi, R. Kutteh, Z. Lin,
   R. Littlefield, X. Long, B. Meng, T. Nakajima, S. Niu, L. Pollack, M. Rosing,
   K. Glaesemann, G. Sandrone, M. Stave, H. Taylor, G. Thomas, J. H. van Lenthe,
                               A. T. Wong, Z. Zhang.
 
                                    REFERENCES
                                    ----------

          Where appropriate, please cite the following reference(s) 
          when publishing results obtained with NWChem:


     1. D. E. Bernholdt, E. Apra, H. A. Fruchtl, M.F. Guest, R. J. Harrison, 
        R. A. Kendall, R. A. Kutteh, X. Long, J. B. Nicholas, J. A. Nichols, 
        H. L. Taylor, A. T. Wong, G. I. Fann, R. J. Littlefield and
        J. Nieplocha,
        "Parallel Computational Chemistry Made Easier: 
        The Development of NWChem,"
        Int. J. Quantum Chem. Symposium  29, 475-483 (1995).


     2. M. F. Guest, E. Apra, D. E. Bernholdt, H. A. Fruchtl, R. J. Harrison, 
        R. A. Kendall, R. A. Kutteh, X. Long, J. B. Nicholas, J. A. Nichols, 
        H. L. Taylor, A. T. Wong, G. I. Fann, R. J. Littlefield and
        J. Nieplocha,
        "High Performance Computational Chemistry: NWChem and Fully Distributed
        Parallel Applications", in Advances in Parallel Computing, 10, High
        Performance Computing: Technology, Methods, and Applications, Eds. 
        J. Dongarra, L. Gradinetti, G. Joubert, and J. Kowalik, 
        (Elsevier Science B. V. pp. 395-427, 1995).


     3. M. F. Guest, E. Apra, D. E. Bernholdt, H. A. Fruchtl, R. J. Harrison, 
        R. A. Kendall, R. A. Kutteh, J. B. Nicholas, J. A. Nichols, M. S. Stave,
        A. T. Wong, R. J. Littlefield and J. Nieplocha, "High Performance 
        Computational Chemistry: Towards Fully Distributed Parallel Algorithms",
        in High Performance Computing: Symposium 1995, Grand Challenges in 
        Computer Simulation, Adrian M. Tentner, Editor, Proceedings of the 1995 
        Simulation Multiconference, April 9-13, 1995, Phoenix, Arizona, 
        Simulation Councils, Inc., The Society for Computer Simulation, 
        San Diego, CA, 1995. pp. 511-521.


     4. M. F. Guest, E. Apra, D. E. Bernholdt, H. A. Fruchtl, R. J. Harrison,
        R. A. Kendall, R. A. Kutteh, X. Long, J. B. Nicholas, J. A. Nichols, 
        H. L. Taylor, A. T. Wong, G. I. Fann, R. J. Littlefield and
        J. Nieplocha,
        "Advances in Parallel Distributed Data Software; Computational Chemistry
        and NWChem", in Applied Parallel Computing.  Computations in Physics,
        Chemistry, and Engineering Science, Eds. J. Wasnieski, J. Dongarra, and 
        K. Madsen, Lecture Notes in Computer Science, 1041,
        (Springer-Verlag, Berlin, 278-294, 1996).


     5. M. F. Guest, E. Apra, D. E. Bernholdt, H. A. Fruchtl, R. J. Harrison,
        R. A. Kendall, R. A. Kutteh, X. Long, J. B. Nicholas, J. A. Nichols, 
        H. L. Taylor, A. T. Wong, G. I. Fann, R. J. Littlefield and
        J. Nieplocha, 
        "High-Performance Computing in Chemistry; NWChem", Future 
        Generations Computer Systems  12(4), 273, (1996).


     6. R. A. Kendall, E. Apra, D. E. Bernholdt, E. J. Bylaska, M. Dupuis,
        G. I. Fann, R. J. Harrison, J. Ju, J. A. Nichols, J. Nieplocha,
        T. P. Straatsma, T. L. Windus, A. T. Wong,
        Computer Phys. Comm. 128, 260 (2000).


     7. T. P. Straatsma and V. Helms, in Molecular Dynamics on Parallel
        Computers2000, R. Esser et al. editors, p 70.


     8.  T. P. Straatsma, M. Philippopoulos and J. A. McCammon,
         Computer Phys. Comm. 128, 377 (2000).


     9.  M. Valiev, E. J. Bylaska, A. Gramada, and J. H. Weare,
         Reviews in Modern Quantum Chemistry, pages 1684-1734
         (World Scientific, Singapore, 2002).


    10.  E. J. Bylaska, M. Valiev, R. Kawai, and J. H. Weare,
         Computer Phys. Comm. 143, 11 (2002).


    11.  M. Valiev and J. H. Weare,
         J. Phys. Chem. A, 103, 10588 (1999).



 Total times  cpu:        2.1s     wall:        5.5s
