 argument  1 = h2o_noscf.inp
 


============================== echo of input deck ==============================
# Taken from http://www.nwchem-sw.org/index.php/Release66:Density_Functional_Theory_for_Molecules
# No SCF
echo
start h2o-noscf
print high
geometry units angstrom
  O      0.00000000     0.00000000     0.11726921
  H      0.75698224     0.00000000    -0.46907685
  H     -0.75698224     0.00000000    -0.46907685
end
basis spherical
 * library aug-cc-pvdz
end
dft
 xc hfexch
 vectors output hf.movecs
end
task dft energy
dft
 xc b3lyp
 vectors input hf.movecs
 noscf
end
task dft energy
================================================================================


                                         
                                         
 
 
              Northwest Computational Chemistry Package (NWChem) 6.6
              ------------------------------------------------------
 
 
                    Environmental Molecular Sciences Laboratory
                       Pacific Northwest National Laboratory
                                Richland, WA 99352
 
                              Copyright (c) 1994-2015
                       Pacific Northwest National Laboratory
                            Battelle Memorial Institute
 
             NWChem is an open-source computational chemistry package
                        distributed under the terms of the
                      Educational Community License (ECL) 2.0
             A copy of the license is included with this distribution
                              in the LICENSE.TXT file
 
                                  ACKNOWLEDGMENT
                                  --------------

            This software and its documentation were developed at the
            EMSL at Pacific Northwest National Laboratory, a multiprogram
            national laboratory, operated for the U.S. Department of Energy
            by Battelle under Contract Number DE-AC05-76RL01830. Support
            for this work was provided by the Department of Energy Office
            of Biological and Environmental Research, Office of Basic
            Energy Sciences, and the Office of Advanced Scientific Computing.


           Job information
           ---------------

    hostname        = hostname
    program         = nwchem
    date            = Tue Oct 24 14:46:20 2017

    compiled        = Wed_Sep_14_13:31:52_2016
    source          = source
    nwchem branch   = Development
    nwchem revision = 28323
    ga revision     = 10664
    input           = h2o_noscf.inp
    prefix          = h2o-noscf.
    data base       = ./h2o-noscf.db
    status          = startup
    nproc           =       16
    time left       =     -1s



           Memory information
           ------------------

    heap     =   13107194 doubles =    100.0 Mbytes
    stack    =   13107199 doubles =    100.0 Mbytes
    global   =   26214400 doubles =    200.0 Mbytes (distinct from heap & stack)
    total    =   52428793 doubles =    400.0 Mbytes
    verify   = yes
    hardfail = no 


           Directory information
           ---------------------
 
  0 permanent = .
  0 scratch   = .
 
 
 
 
                                NWChem Input Module
                                -------------------
 
 

 Scaling coordinates for geometry "geometry" by  1.889725989
 (inverse scale =  0.529177249)

 MOMENTS OF INERTIA ARE NOT DEGENERATE
   PROPER PRINCIPAL AXIS 1 =    T
 IMPROPER PRINCIPAL AXIS 1 =    T
   PROPER PRINCIPAL AXIS 2 =    T
 IMPROPER PRINCIPAL AXIS 2 =    F
   PROPER PRINCIPAL AXIS 3 =    T
 IMPROPER PRINCIPAL AXIS 3 =    T
 HIGHEST ORDER OF PROPER/IMPROPER ROTATION =  2
           C2 -X- =    F
           C2 -Y- =    F
 INVERSION CENTER =    F
 MIRROR PLANE -YZ-=    T
 MIRROR PLANE -ZX-=    T
 MIRROR PLANE -XY-=    F
 C2V symmetry detected
 Molecular frame translation   0.00000   0.00000   0.00000
 Molecular frame rotation      1.00000   0.00000   0.00000
                               0.00000   1.00000   0.00000
                               0.00000   0.00000   1.00000
     MOLECULAR POINT GROUP NUMBER = 16     SCHOENFLIESSYMBOL = C2v       

                --------------- GROUP GENERATORS ---------------

                      2 GENERATORS USED TO FORM THE GROUP

                         PT fold Rotoinversion Operator
                    -1.000000  0.000000  0.000000  0.000000
                     0.000000 -1.000000  0.000000  0.000000
                     0.000000  0.000000  1.000000  0.000000

                         PT fold Rotoinversion Operator
                     1.000000  0.000000  0.000000  0.000000
                     0.000000 -1.000000  0.000000  0.000000
                     0.000000  0.000000  1.000000  0.000000


                    ---------- FULL LISTING OF GROUP ----------

                  MATRIX REPRESENTATIONS OF THE GROUP OPERATORS

     EXCLUDING THE IDENTITY OPERATOR THERE ARE  3 OPERATORS IN THIS GROUP

                         pt fold Rotoinversion Operator
                    -1.000000  0.000000  0.000000  0.000000
                     0.000000 -1.000000  0.000000  0.000000
                     0.000000  0.000000  1.000000  0.000000

                         pt fold Rotoinversion Operator
                     1.000000  0.000000  0.000000  0.000000
                     0.000000 -1.000000  0.000000  0.000000
                     0.000000  0.000000  1.000000  0.000000

                         pt fold Rotoinversion Operator
                    -1.000000  0.000000  0.000000  0.000000
                     0.000000  1.000000  0.000000  0.000000
                     0.000000  0.000000  1.000000  0.000000


                  <<< SYMMETRY OPERATION/ATOM MAPPING BUILT >>>
      Symmetry information
      --------------------
 
 Group name             C2v       
 Group number             16
 Group order               4
 No. of unique centers     2
 


                  Character table for group C2v     

                  1e      1c2     1si.xz  1si.yz 
        a1         1.000   1.000   1.000   1.000
        a2         1.000   1.000  -1.000  -1.000
        b1         1.000  -1.000   1.000  -1.000
        b2         1.000  -1.000  -1.000   1.000
 
      Symmetry unique atoms
 
     1    2
 
      Mapping of centers
 
     op   1
          (   1->   1)  (   2->   3)  (   3->   2)
     op   2
          (   1->   1)  (   2->   2)  (   3->   3)
     op   3
          (   1->   1)  (   2->   3)  (   3->   2)
 
      Group operations
 
     op   1 = c2 = rotation about axis ( 0.00, 0.00, 1.00)
             -1.000000    0.000000    0.000000    0.000000
              0.000000   -1.000000    0.000000    0.000000
              0.000000    0.000000    1.000000    0.000000
     op   2 = si.xz = mirror normal to ( 0.00, 1.00, 0.00)
              1.000000    0.000000    0.000000    0.000000
              0.000000   -1.000000    0.000000    0.000000
              0.000000    0.000000    1.000000    0.000000
     op   3 = si.yz = mirror normal to ( 1.00, 0.00, 0.00)
             -1.000000    0.000000    0.000000    0.000000
              0.000000    1.000000    0.000000    0.000000
              0.000000    0.000000    1.000000    0.000000
 

          ------
          auto-z
          ------
 Imposing constraints:   iter = 1  dqmax = 0.0D+00
 
 
                             Geometry "geometry" -> ""
                             -------------------------
 
 Output coordinates in angstroms (scale by  1.889725989 to convert to a.u.)
 
  No.       Tag          Charge          X              Y              Z
 ---- ---------------- ---------- -------------- -------------- --------------
    1 O                    8.0000     0.00000000     0.00000000     0.11726921
    2 H                    1.0000     0.75698224     0.00000000    -0.46907685
    3 H                    1.0000    -0.75698224     0.00000000    -0.46907685
 
      Atomic Mass 
      ----------- 
 
      O                 15.994910
      H                  1.007825
 

 Effective nuclear repulsion energy (a.u.)       9.1920946687

            Nuclear Dipole moment (a.u.) 
            ----------------------------
        X                 Y               Z
 ---------------- ---------------- ----------------
     0.0000000000     0.0000000000     0.0000000000
 
      Symmetry information
      --------------------
 
 Group name             C2v       
 Group number             16
 Group order               4
 No. of unique centers     2
 
      Symmetry unique atoms
 
     1    2
 


                                Z-matrix (autoz)
                                -------- 

 Units are Angstrom for bonds and degrees for angles
 
      Type          Name      I     J     K     L     M      Value
      ----------- --------  ----- ----- ----- ----- ----- ----------
    1 Stretch                  1     2                       0.95751
    2 Stretch                  1     3                       0.95751
    3 Bend                     2     1     3               104.47845
 
 
            XYZ format geometry
            -------------------
     3
 geometry
 O                     0.00000000     0.00000000     0.11726921
 H                     0.75698224     0.00000000    -0.46907685
 H                    -0.75698224     0.00000000    -0.46907685
 
 ==============================================================================
                                internuclear distances
 ------------------------------------------------------------------------------
       center one      |      center two      | atomic units |  angstroms
 ------------------------------------------------------------------------------
    2 H                |   1 O                |     1.80943  |     0.95751
    3 H                |   1 O                |     1.80943  |     0.95751
 ------------------------------------------------------------------------------
                         number of included internuclear distances:          2
 ==============================================================================



 ==============================================================================
                                 internuclear angles
 ------------------------------------------------------------------------------
        center 1       |       center 2       |       center 3       |  degrees
 ------------------------------------------------------------------------------
    2 H                |   1 O                |   3 H                |   104.48
 ------------------------------------------------------------------------------
                            number of included internuclear angles:          1
 ==============================================================================



  library name resolved from: environment
  library file name is: <
 libraryfilename>
  


 Summary of "ao basis" -> "" (spherical)
 ------------------------------------------------------------------------------
       Tag                 Description            Shells   Functions and Types
 ---------------- ------------------------------  ------  ---------------------
 *                        aug-cc-pvdz                 on all atoms 


  xc_inp: hfexch multiplicative factor not found.
 
                                 NWChem DFT Module
                                 -----------------
 
 
                      Basis "ao basis" -> "ao basis" (spherical)
                      -----
  O (Oxygen)
  ----------
            Exponent  Coefficients 
       -------------- ---------------------------------------------------------
  1 S  1.17200000E+04  0.000710
  1 S  1.75900000E+03  0.005470
  1 S  4.00800000E+02  0.027837
  1 S  1.13700000E+02  0.104800
  1 S  3.70300000E+01  0.283062
  1 S  1.32700000E+01  0.448719
  1 S  5.02500000E+00  0.270952
  1 S  1.01300000E+00  0.015458
 
  2 S  1.17200000E+04 -0.000160
  2 S  1.75900000E+03 -0.001263
  2 S  4.00800000E+02 -0.006267
  2 S  1.13700000E+02 -0.025716
  2 S  3.70300000E+01 -0.070924
  2 S  1.32700000E+01 -0.165411
  2 S  5.02500000E+00 -0.116955
  2 S  1.01300000E+00  0.557368
 
  3 S  3.02300000E-01  1.000000
 
  4 S  7.89600000E-02  1.000000
 
  5 P  1.77000000E+01  0.043018
  5 P  3.85400000E+00  0.228913
  5 P  1.04600000E+00  0.508728
 
  6 P  2.75300000E-01  1.000000
 
  7 P  6.85600000E-02  1.000000
 
  8 D  1.18500000E+00  1.000000
 
  9 D  3.32000000E-01  1.000000
 
  H (Hydrogen)
  ------------
            Exponent  Coefficients 
       -------------- ---------------------------------------------------------
  1 S  1.30100000E+01  0.019685
  1 S  1.96200000E+00  0.137977
  1 S  4.44600000E-01  0.478148
 
  2 S  1.22000000E-01  1.000000
 
  3 S  2.97400000E-02  1.000000
 
  4 P  7.27000000E-01  1.000000
 
  5 P  1.41000000E-01  1.000000
 


 Summary of "ao basis" -> "ao basis" (spherical)
 ------------------------------------------------------------------------------
       Tag                 Description            Shells   Functions and Types
 ---------------- ------------------------------  ------  ---------------------
 O                        aug-cc-pvdz                9       23   4s3p2d
 H                        aug-cc-pvdz                5        9   3s2p




 Summary of "ao basis" -> "ao basis" (spherical)
 ------------------------------------------------------------------------------
       Tag                 Description            Shells   Functions and Types
 ---------------- ------------------------------  ------  ---------------------
 O                        aug-cc-pvdz                9       23   4s3p2d
 H                        aug-cc-pvdz                5        9   3s2p




                  Character table for group C2v     

                  1e      1c2     1si.xz  1si.yz 
        a1         1.000   1.000   1.000   1.000
        a2         1.000   1.000  -1.000  -1.000
        b1         1.000  -1.000   1.000  -1.000
        b2         1.000  -1.000  -1.000   1.000
 
      Symmetry analysis of basis
      --------------------------
 
        a1         18
        a2          4
        b1         12
        b2          7
 
 
 
                         Geometry "geometry" -> "geometry"
                         ---------------------------------
 
 Output coordinates in angstroms (scale by  1.889725989 to convert to a.u.)
 
  No.       Tag          Charge          X              Y              Z
 ---- ---------------- ---------- -------------- -------------- --------------
    1 O                    8.0000     0.00000000     0.00000000     0.11726921
    2 H                    1.0000     0.75698224     0.00000000    -0.46907685
    3 H                    1.0000    -0.75698224     0.00000000    -0.46907685
 
      Atomic Mass 
      ----------- 
 
      O                 15.994910
      H                  1.007825
 

 Effective nuclear repulsion energy (a.u.)       9.1920946687

            Nuclear Dipole moment (a.u.) 
            ----------------------------
        X                 Y               Z
 ---------------- ---------------- ----------------
     0.0000000000     0.0000000000     0.0000000000
 
      Symmetry information
      --------------------
 
 Group name             C2v       
 Group number             16
 Group order               4
 No. of unique centers     2
 
      Symmetry unique atoms
 
     1    2
 


                                Z-matrix (autoz)
                                -------- 

 Units are Angstrom for bonds and degrees for angles
 
      Type          Name      I     J     K     L     M      Value
      ----------- --------  ----- ----- ----- ----- ----- ----------
    1 Stretch                  1     2                       0.95751
    2 Stretch                  1     3                       0.95751
    3 Bend                     2     1     3               104.47845
 
 
                      Basis "ao basis" -> "ao basis" (spherical)
                      -----
  O (Oxygen)
  ----------
            Exponent  Coefficients 
       -------------- ---------------------------------------------------------
  1 S  1.17200000E+04  0.569702
  1 S  1.75900000E+03  1.058352
  1 S  4.00800000E+02  1.776281
  1 S  1.13700000E+02  2.599412
  1 S  3.70300000E+01  3.026846
  1 S  1.32700000E+01  2.222394
  1 S  5.02500000E+00  0.647795
  1 S  1.01300000E+00  0.011119
 
  2 S  1.17200000E+04 -0.252434
  2 S  1.75900000E+03 -0.480491
  2 S  4.00800000E+02 -0.786300
  2 S  1.13700000E+02 -1.254170
  2 S  3.70300000E+01 -1.491218
  2 S  1.32700000E+01 -1.610832
  2 S  5.02500000E+00 -0.549798
  2 S  1.01300000E+00  0.788282
 
  3 S  3.02300000E-01  0.290562
 
  4 S  7.89600000E-02  0.106161
 
  5 P  1.77000000E+01  3.243619
  5 P  3.85400000E+00  2.567280
  5 P  1.04600000E+00  1.117669
 
  6 P  2.75300000E-01  0.284248
 
  7 P  6.85600000E-02  0.050007
 
  8 D  1.18500000E+00  2.215218
 
  9 D  3.32000000E-01  0.239002
 
  H (Hydrogen)
  ------------
            Exponent  Coefficients 
       -------------- ---------------------------------------------------------
  1 S  1.30100000E+01  0.163548
  1 S  1.96200000E+00  0.277418
  1 S  4.44600000E-01  0.315749
 
  2 S  1.22000000E-01  0.147123
 
  3 S  2.97400000E-02  0.051041
 
  4 P  7.27000000E-01  0.956881
 
  5 P  1.41000000E-01  0.123158
 
 
 
    Basis function labels
    ---------------------
       No.  Atm El Type
       ---  --- -- ----
        1    1 O  s          
        2    1 O  s          
        3    1 O  s          
        4    1 O  s          
        5    1 O  px         
        6    1 O  py         
        7    1 O  pz         
        8    1 O  px         
        9    1 O  py         
       10    1 O  pz         
       11    1 O  px         
       12    1 O  py         
       13    1 O  pz         
       14    1 O  d -2       
       15    1 O  d -1       
       16    1 O  d  0       
       17    1 O  d  1       
       18    1 O  d  2       
       19    1 O  d -2       
       20    1 O  d -1       
       21    1 O  d  0       
       22    1 O  d  1       
       23    1 O  d  2       
       24    2 H  s          
       25    2 H  s          
       26    2 H  s          
       27    2 H  px         
       28    2 H  py         
       29    2 H  pz         
       30    2 H  px         
       31    2 H  py         
       32    2 H  pz         
       33    3 H  s          
       34    3 H  s          
       35    3 H  s          
       36    3 H  px         
       37    3 H  py         
       38    3 H  pz         
       39    3 H  px         
       40    3 H  py         
       41    3 H  pz         

 Schwarz integral screening summary 
 ---------------------------------- 

        No. of atom pairs =       6
       No. of shell pairs =     190

 Atomic screening 

   value      no.     value      no.     value      no.     value      no.   
  -------- ------    -------- ------    -------- ------    -------- ------   
  0.00D+00      0    1.00D-13      0    1.00D-12      0    1.00D-11      0
  1.00D-10      0    1.00D-09      0    1.00D-08      0    1.00D-07      0
  1.00D-06      0    1.00D-05      0    1.00D-04      0    1.00D-03      0
  1.00D-02      0    1.00D-01      0    1.00D+00      6    1.00D+01      0


 Shell screening 

   value      no.     value      no.     value      no.     value      no.   
  -------- ------    -------- ------    -------- ------    -------- ------   
  0.00D+00      0    1.00D-13      0    1.00D-12      0    1.00D-11      0
  1.00D-10      0    1.00D-09      0    1.00D-08      0    1.00D-07      0
  1.00D-06      0    1.00D-05      0    1.00D-04      0    1.00D-03      0
  1.00D-02      2    1.00D-01     87    1.00D+00    101    1.00D+01      0

 
  Caching 1-el integrals 
  atom                      1  - neighbor  & S                      1
   10.0000000000000       exp AB   6.856000000000000E-002
  6.856000000000000E-002
  atom                      1  - neighbor  & S                      2
  0.825175781738048       exp AB   6.856000000000000E-002
  2.974000000000000E-002
  atom                      2  - neighbor  & S                      1
  0.825175781738048       exp AB   2.974000000000000E-002
  6.856000000000000E-002
  atom                      2  - neighbor  & S                      2
   10.0000000000000       exp AB   2.974000000000000E-002
  2.974000000000000E-002
  atom                      1  - neighbor  & S                      3
  0.825175781738048       exp AB   6.856000000000000E-002
  2.974000000000000E-002
 zmins =     0.068560000    0.029740000 lprod =   1 range =        17.02 acc   0.10D-05
 sh     1.261999171
  atom                      2  - neighbor  & S                      3
  0.885401686945641       exp AB   2.974000000000000E-002
  2.974000000000000E-002
 zmins =     0.029740000    0.029740000 lprod =   0 range =        21.24 acc   0.10D-05
 sh     1.430489012
  atom                      3  - neighbor  & S                      1
  0.825175781738048       exp AB   2.974000000000000E-002
  6.856000000000000E-002
  atom                      3  - neighbor  & S                      2
  0.885401686945641       exp AB   2.974000000000000E-002
  2.974000000000000E-002
  atom                      3  - neighbor  & S                      3
   10.0000000000000       exp AB   2.974000000000000E-002
  2.974000000000000E-002
 zmins =     0.029740000    0.029740000 lprod =   0 range =        21.24 acc   0.10D-05
 sh     1.430489012
  Center:                      1  Radial Pts. & Wghts. 
    1        0.000047671           3.2500647E-13
    2        0.000381381           8.3210977E-11
    3        0.001287257           2.1332548E-09
    4        0.003051728           2.1321110E-08
    5        0.005961861           1.2720790E-07
    6        0.010305851           5.4776866E-07
    7        0.016373641           1.8838911E-06
    8        0.024457695           5.4975526E-06
    9        0.034853919           1.4154820E-05
   10        0.047862745           3.3026259E-05
   11        0.063790377           7.1173894E-05
   12        0.082950235           1.4368756E-04
   13        0.105664594           2.7467718E-04
   14        0.132266454           5.0138482E-04
   15        0.163101668           8.7975621E-04
   16        0.198531369           1.4919128E-03
   17        0.238934731           2.4561013E-03
   18        0.284712143           3.9398820E-03
   19        0.336288844           6.1775654E-03
   20        0.394119125           9.4932522E-03
   21        0.458691206           1.4331299E-02
   22        0.530532923           2.1296692E-02
   23        0.610218405           3.1208724E-02
   24        0.698375967           4.5172683E-02
   25        0.795697502           6.4676098E-02
   26        0.902949732           9.1718806E-02
   27        1.020987816           1.2899000E-01
   28        1.150771920           1.8011127E-01
   29        1.293387596           2.4997339E-01
   30        1.450071075           3.4520803E-01
   31        1.622241006           4.7485608E-01
   32        1.811538723           6.5132754E-01
   33        2.019879971           8.9180018E-01
   34        2.249522289           1.2202920E+00
   35        2.503154097           1.6707895E+00
   36        2.784014511           2.2920713E+00
   37        3.096057586           3.1553238E+00
   38        3.444182360           4.3665042E+00
   39        3.834563187           6.0870536E+00
   40        4.275137879           8.5699102E+00
   41        4.776353867           1.2224928E+01
   42        5.352355616           1.7744110E+01
   43        6.022969032           2.6357212E+01
   44        6.817225878           4.0396986E+01
   45        7.780130555           6.4685265E+01
   46        8.987073926           1.1043918E+02
   47       10.579383359           2.0870741E+02
   48       12.874339078           4.7382125E+02
   49       16.884350766           1.6645634E+03
  Center:                      2  Radial Pts. & Wghts. 
    1        0.000077806           1.4130935E-12
    2        0.000622474           3.6180397E-10
    3        0.002101056           9.2762614E-09
    4        0.004981227           9.2728490E-08
    5        0.009732011           5.5339868E-07
    6        0.016824790           2.3839736E-06
    7        0.026734620           8.2037430E-06
    8        0.039941858           2.3958621E-05
    9        0.056934109           6.1748982E-05
   10        0.078208523           1.4425401E-04
   11        0.104274477           3.1135503E-04
   12        0.135656665           6.2973648E-04
   13        0.172898671           1.2064790E-03
   14        0.216567073           2.2079785E-03
   15        0.267256175           3.8859634E-03
   16        0.325593473           6.6129830E-03
   17        0.392245991           1.0930578E-02
   18        0.467927660           1.7614515E-02
   19        0.553407966           2.7763112E-02
   20        0.649522143           4.2917037E-02
   21        0.757183270           6.5222325E-02
   22        0.877396745           9.7653258E-02
   23        1.011277737           1.4431894E-01
   24        1.160072407           2.1088812E-01
   25        1.325183964           3.0518287E-01
   26        1.508204969           4.3801664E-01
   27        1.710957807           6.2439039E-01
   28        1.935546010           8.8522202E-01
   29        2.184420137           1.2498826E+00
   30        2.460463524           1.7599771E+00
   31        2.767105640           2.4750842E+00
   32        3.108474472           3.4816536E+00
   33        3.489605374           4.9071297E+00
   34        3.916733537           6.9429921E+00
   35        4.397713913           9.8835451E+00
   36        4.942641700           1.4193679E+01
   37        5.564800742           2.0632519E+01
   38        6.282172728           3.0491189E+01
   39        7.119959315           4.6080238E+01
   40        8.115061482           7.1812236E+01
   41        9.324679718           1.1686816E+02
   42       10.844633070           2.0274541E+02
   43       12.854540899           3.8934212E+02
   44       15.757646274           8.9877009E+02
   45       20.840654380           3.2173220E+03
     irreducible set of Lebedev Angular points ;
  0.009523809523810  1.000000000000000  0.000000000000000  0.000000000000000
  0.032142857142857  0.577350269189626  0.577350269189626  0.577350269189626
  0.028571428571429  0.459700843380983  0.000000000000000  0.888073833977115
   total no. of   reducible points:  38; test:  1.00000000
  0.012698412698413  1.000000000000000  0.000000000000000  0.000000000000000
  0.022574955908289  0.707106781186547  0.707106781186547  0.000000000000000
  0.021093750000000  0.577350269189626  0.577350269189626  0.577350269189626
  0.020173335537919  0.301511344577764  0.301511344577764  0.904534033733291
   total no. of   reducible points:  50; test:  1.00000000
  0.000513067179734  1.000000000000000  0.000000000000000  0.000000000000000
  0.016604069565742  0.707106781186547  0.707106781186547  0.000000000000000
 -0.029586038961039  0.577350269189626  0.577350269189626  0.577350269189626
  0.026576207082159  0.480384461415261  0.480384461415261  0.733799385705343
  0.016522170993716  0.320772648980776  0.000000000000000  0.947156221362588
   total no. of   reducible points:  74; test:  1.00000000
  0.011544011544012  1.000000000000000  0.000000000000000  0.000000000000000
  0.011943909085856  0.577350269189626  0.577350269189626  0.577350269189626
  0.011110555710603  0.369602846454150  0.369602846454150  0.852518311701268
  0.011876501294537  0.694354006602666  0.694354006602666  0.189063552885395
  0.011812303746904  0.374243039090341  0.000000000000000  0.927330657151172
   total no. of   reducible points:  86; test:  1.00000000
  0.003828270494937  1.000000000000000  0.000000000000000  0.000000000000000
  0.009793737512488  0.577350269189626  0.577350269189626  0.577350269189626
  0.008211737283191  0.185115635344736  0.185115635344736  0.965124035086594
  0.009942814891178  0.690421048382292  0.690421048382292  0.215957291845848
  0.009595471336071  0.395689473055942  0.395689473055942  0.828769981252592
  0.009694996361663  0.478369028812150  0.000000000000000  0.878158910604066
   total no. of   reducible points: 110; test:  1.00000000
  0.000599631368862  1.000000000000000  0.000000000000000  0.000000000000000
  0.007372999718621  0.707106781186547  0.707106781186547  0.000000000000000
  0.007210515360144  0.577350269189626  0.577350269189626  0.577350269189626
  0.007116355493118  0.676441040011426  0.676441040011426  0.291298882209527
  0.006753829486314  0.417496122796545  0.417496122796545  0.807089818359583
  0.007574394159054  0.157467667203908  0.157467667203908  0.974888643677173
  0.006991087353303  0.140355381171318  0.449332832326956  0.882270011260323
   total no. of   reducible points: 146; test:  1.00000000
  0.005544842902037  1.000000000000000  0.000000000000000  0.000000000000000
  0.006071332770671  0.707106781186547  0.707106781186547  0.000000000000000
  0.006383674773515  0.577350269189626  0.577350269189626  0.577350269189626
  0.005183387587748  0.255125262111413  0.255125262111413  0.932642590312691
  0.006317929009814  0.674360146036277  0.674360146036277  0.300793595137701
  0.006201670006589  0.431891069671941  0.431891069671941  0.791795559393492
  0.005477143385137  0.261393136033599  0.000000000000000  0.965232421976448
  0.005968383987681  0.499045316179604  0.144663074432512  0.854415804684659
   total no. of   reducible points: 170; test:  1.00000000
  0.001782340447245  1.000000000000000  0.000000000000000  0.000000000000000
  0.005716905949977  0.707106781186547  0.707106781186547  0.000000000000000
  0.005573383178849  0.577350269189626  0.577350269189626  0.577350269189626
  0.005608704082588  0.671297344269523  0.671297344269523  0.314196994182586
  0.005158237711805  0.289246562757544  0.289246562757544  0.912509096867474
  0.005518771467274  0.444693317871744  0.444693317871744  0.777493219314767
  0.004106777028169  0.129933544765007  0.129933544765007  0.982972302707253
  0.005051846064615  0.345770219761128  0.000000000000000  0.938319218137592
  0.005530248916233  0.159041710538353  0.836036015482459  0.525118572443642
   total no. of   reducible points: 194; test:  1.00000000
 -0.055226399197273  1.000000000000000  0.000000000000000  0.000000000000000
  0.004450274607445  0.577350269189626  0.577350269189626  0.577350269189626
  0.004496841067921  0.449204468739761  0.449204468739761  0.772289253148364
  0.005049153450479  0.252041949021020  0.252041949021020  0.934317778845812
  0.003976408018052  0.698190665844724  0.698190665844724  0.158302205463478
  0.004401400650381  0.658740524346096  0.658740524346096  0.363485684956727
  0.017245443505444  0.040385440500977  0.040385440500977  0.998367683967727
  0.004231083095357  0.582384230971558  0.000000000000000  0.812913653173365
  0.005198069864064  0.354587739051869  0.000000000000000  0.935022745880593
  0.004695720972569  0.227218180899819  0.486466153588665  0.843636521068894
   total no. of   reducible points: 230; test:  1.00000000
 -0.001313769127327  1.000000000000000  0.000000000000000  0.000000000000000
 -0.002522728704859  0.707106781186547  0.707106781186547  0.000000000000000
  0.004186853881701  0.577350269189626  0.577350269189626  0.577350269189626
  0.005315167977811  0.703937339158548  0.703937339158548  0.094575076403713
  0.004047142377086  0.101252624857241  0.101252624857241  0.989694807462905
  0.004112482394407  0.464744872642054  0.464744872642054  0.753673939250816
  0.003595584899759  0.327742065497163  0.327742065497163  0.886098344997499
  0.004256131351428  0.662033866369997  0.662033866369997  0.351315128564633
  0.004229582700647  0.850650808352040  0.000000000000000  0.525731112119134
  0.004080914225781  0.323348454269290  0.115311201100970  0.939227929749916
  0.004071467593831  0.231479015871260  0.524493924092236  0.819343388819120
   total no. of   reducible points: 266; test:  1.00000000
  0.000854591172513  1.000000000000000  0.000000000000000  0.000000000000000
  0.003599119285026  0.577350269189626  0.577350269189626  0.577350269189626
  0.003449788424306  0.351564034557011  0.351564034557011  0.867643624544083
  0.003604822601420  0.656632941021961  0.656632941021961  0.371034178384821
  0.003576729661743  0.472905413258100  0.472905413258100  0.743452042987556
  0.002352101413689  0.096183085226148  0.096183085226148  0.990705621379408
  0.003108953122414  0.221964523629418  0.221964523629418  0.949454317226443
  0.003650045807677  0.701176641608955  0.701176641608955  0.129238672710514
  0.002982344963172  0.264415288706066  0.000000000000000  0.964408914879206
  0.003600820932216  0.571895589187896  0.000000000000000  0.820326419827759
  0.003571540554273  0.251003475177047  0.800072749407395  0.544867737258077
  0.003392312205006  0.123354853258333  0.412772408316853  0.902442529533000
   total no. of   reducible points: 302; test:  1.00000000
  0.003006796749454  1.000000000000000  0.000000000000000  0.000000000000000
  0.003050627745651  0.577350269189626  0.577350269189626  0.577350269189626
  0.001621104600289  0.706896546391232  0.706896546391232  0.024383301669356
  0.003005701484902  0.479468262571203  0.479468262571203  0.734996850587746
  0.002990992529654  0.192753315487802  0.192753315487802  0.962129055136014
  0.002982170644108  0.693035796132712  0.693035796132712  0.198501311223365
  0.002721564237311  0.360830211552009  0.360830211552009  0.860001812127547
  0.003033513795811  0.649848616149617  0.649848616149617  0.394199888605839
  0.003007949555219  0.193294501323034  0.000000000000000  0.981140782843257
  0.002881964603055  0.380049491989930  0.000000000000000  0.924966152698679
  0.002958357626536  0.289955882549957  0.793453785658232  0.535123047718276
  0.003036020026407  0.096841214551040  0.828080150668686  0.552182074349399
  0.002832187403926  0.183343464704166  0.907465826530513  0.378009189874487
   total no. of   reducible points: 350; test:  1.00000000
  0.000526589796822  1.000000000000000  0.000000000000000  0.000000000000000
  0.002548219972003  0.707106781186547  0.707106781186547  0.000000000000000
  0.002512317418927  0.577350269189626  0.577350269189626  0.577350269189626
  0.002530403801186  0.690934630750911  0.690934630750911  0.212646824707552
  0.002014279020919  0.177483605460916  0.177483605460916  0.967987158791473
  0.002501725168403  0.491434263778475  0.491434263778475  0.719016501040843
  0.002513267174598  0.645666470742426  0.645666470742426  0.407712664897770
  0.002302694782227  0.286128901030764  0.286128901030764  0.914472801120872
  0.001462495621595  0.075680843671780  0.075680843671780  0.994255912631278
  0.002445373437313  0.392725976336800  0.392725976336800  0.831584400419232
  0.002417442375639  0.881813287779429  0.000000000000000  0.471598691151316
  0.001910951282180  0.977642811118265  0.000000000000000  0.210272522857307
  0.002416930044325  0.205482369640304  0.868946032287241  0.450233038258263
  0.002512236854563  0.590515704892527  0.799927854385729  0.106801826075805
  0.002496644054553  0.555015236107681  0.771746262691590  0.310428403516654
  0.002236607760438  0.937180985855372  0.334436314534346  0.099217696364292
   total no. of   reducible points: 434; test:  1.00000000
  ratio offdiag/diag   0.000000000000000E+000
 
  qrot: 

              1        2        3      
    1    1.0000   0.0000   0.0000
    2    0.0000   1.0000   0.0000
    3    0.0000   0.0000   1.0000
  me                      0   done genpts
  me                      1   done genpts
  me                      2   done genpts
  me                      3   done genpts
  me                      4   done genpts
  me                      6   done genpts
  me                      7   done genpts
  me                      8   done genpts
  me                      9   done genpts
  me                     10   done genpts
  me                     11   done genpts
  me                     12   done genpts
  me                     13   done genpts
  me                     14   done genpts
  me                     15   done genpts
  me                      5   done genpts
  me                      0   done uprt
  me                      1   done uprt
  me                      2   done uprt
  me                      3   done uprt
  me                      4   done uprt
  me                      6   done uprt
  me                      7   done uprt
  me                      8   done uprt
  me                      9   done uprt
  me                     10   done uprt
  me                     11   done uprt
  me                     12   done uprt
  me                     13   done uprt
  me                     14   done uprt
  me                     15   done uprt
  me                      5   done uprt
  me                      0  done mem
  me                      1  done mem
  me                      2  done mem
  me                      3  done mem
  me                      4  done mem
  me                      6  done mem
  me                      7  done mem
  me                      8  done mem
  me                      9  done mem
  me                     10  done mem
  me                     11  done mem
  me                     12  done mem
  me                     13  done mem
  me                     14  done mem
  me                     15  done mem
  me                      5  done mem
  dftinpanae: itol2e                      8  iaoacc                     14 
  tol_rho   1.000000000000000E-010
 
            General Information
            -------------------
          SCF calculation type: DFT
          Wavefunction type:  closed shell.
          No. of atoms     :     3
          No. of electrons :    10
           Alpha electrons :     5
            Beta electrons :     5
          Charge           :     0
          Spin multiplicity:     1
          Use of symmetry is: on ; symmetry adaption is: on 
          Maximum number of iterations:  30
          AO basis - number of functions:    41
                     number of shells:    19
          Convergence on energy requested:  1.00D-06
          Convergence on density requested:  1.00D-05
          Convergence on gradient requested:  5.00D-04
 
              XC Information
              --------------
                     Hartree-Fock (Exact) Exchange  1.000          
 
          Convergence Information
          -----------------------
          Convergence aids based upon iterative change in 
          total energy or number of iterations. 
          Levelshifting, if invoked, occurs when the 
          HOMO/LUMO gap drops below (HL_TOL):  1.00D-02
          DIIS, if invoked, will attempt to extrapolate 
          using up to (NFOCK): 10 stored Fock matrices.

                    Damping( 0%)  Levelshifting(0.5)       DIIS
                  --------------- ------------------- ---------------
          dE  on:    start            ASAP                start   
          dE off:    2 iters         30 iters            30 iters 

 
      Screening Tolerance Information
      -------------------------------
          Density screening/tol_rho:  1.00D-10
          AO Gaussian exp screening on grid/accAOfunc:  14
          CD Gaussian exp screening on grid/accCDfunc:  20
          XC Gaussian exp screening on grid/accXCfunc:  20
          Schwarz screening/accCoul:  1.00D-08

 
 
                         Geometry "geometry" -> "geometry"
                         ---------------------------------
 
 Output coordinates in angstroms (scale by  1.889725989 to convert to a.u.)
 
  No.       Tag          Charge          X              Y              Z
 ---- ---------------- ---------- -------------- -------------- --------------
    1 O                    8.0000     0.00000000     0.00000000     0.11726921
    2 H                    1.0000     0.75698224     0.00000000    -0.46907685
    3 H                    1.0000    -0.75698224     0.00000000    -0.46907685
 
      Atomic Mass 
      ----------- 
 
      O                 15.994910
      H                  1.007825
 

 Effective nuclear repulsion energy (a.u.)       9.1920946687

            Nuclear Dipole moment (a.u.) 
            ----------------------------
        X                 Y               Z
 ---------------- ---------------- ----------------
     0.0000000000     0.0000000000     0.0000000000
 
      Symmetry information
      --------------------
 
 Group name             C2v       
 Group number             16
 Group order               4
 No. of unique centers     2
 
      Symmetry unique atoms
 
     1    2
 


                                Z-matrix (autoz)
                                -------- 

 Units are Angstrom for bonds and degrees for angles
 
      Type          Name      I     J     K     L     M      Value
      ----------- --------  ----- ----- ----- ----- ----- ----------
    1 Stretch                  1     2                       0.95751
    2 Stretch                  1     3                       0.95751
    3 Bend                     2     1     3               104.47845
 


     <<<<<<    Before call to DFT_SCF.    >>>>>>
     <<<<<< date:  Oct 24  time: 14:46:21 >>>>>>


 Setting tolerance for linear dependence to 1.00D-05

 Setting tolerance for linear dependence to 1.00D-05

 Setting tolerance for linear dependence to 1.00D-05

 Setting tolerance for linear dependence to 1.00D-05

 Setting tolerance for linear dependence to 1.00D-05


 Setting tolerance for linear dependence to 1.00D-05

 Setting tolerance for linear dependence to 1.00D-05

 Setting tolerance for linear dependence to 1.00D-05

 Setting tolerance for linear dependence to 1.00D-05

 Setting tolerance for linear dependence to 1.00D-05

 Setting tolerance for linear dependence to 1.00D-05

 Setting tolerance for linear dependence to 1.00D-05

 Setting tolerance for linear dependence to 1.00D-05

 Setting tolerance for linear dependence to 1.00D-05

 Setting tolerance for linear dependence to 1.00D-05
 Setting tolerance for linear dependence to 1.00D-05
  lindep tolerance =   1.000000000000000E-005
  lindep tolerance =   1.000000000000000E-005
  lindep tolerance =   1.000000000000000E-005
  lindep tolerance =   1.000000000000000E-005
  lindep tolerance =   1.000000000000000E-005
  lindep tolerance =   1.000000000000000E-005
  lindep tolerance =   1.000000000000000E-005
  lindep tolerance =   1.000000000000000E-005
  lindep tolerance =   1.000000000000000E-005
  lindep tolerance =   1.000000000000000E-005
  lindep tolerance =   1.000000000000000E-005
  lindep tolerance =   1.000000000000000E-005
  lindep tolerance =   1.000000000000000E-005
  lindep tolerance =   1.000000000000000E-005
  lindep tolerance =   1.000000000000000E-005
  lindep tolerance =   1.000000000000000E-005


     <<<<<<    Before 3c-2e initialize.   >>>>>>
     <<<<<< date:  Oct 24  time: 14:46:21 >>>>>>


 Setting fock-build task_bf   :      -1
                    maxquartet:   10000
                    maxeri    :  129600
                    maxscr    :       0
                    intacc    : 0.0D+00
                    denscreen : T
                    dentol    : 1.0D-06

 
      Superposition of Atomic Density Guess
      -------------------------------------
 
 Sum of atomic energies:         -75.76548395
 
      Non-variational initial energy
      ------------------------------

 Total energy =     -75.929554
 1-e energy   =    -121.647436
 2-e energy   =      36.525787
 HOMO         =      -0.482989
 LUMO         =       0.012026
 

 Setting fock-build task_bf   :      -1
                    maxquartet:   10000
                    maxeri    :  129600
                    maxscr    :       0
                    intacc    : 0.0D+00
                    denscreen : T
                    dentol    : 1.0D-06

 
      Symmetry analysis of molecular orbitals - initial
      -------------------------------------------------
 
  Numbering of irreducible representations: 
 
     1 a1          2 a2          3 b1          4 b2      
 
  Orbital symmetries:
 
     1 a1          2 a1          3 b1          4 a1          5 b2      
     6 a1          7 b1          8 a1          9 b2         10 a1      
    11 b1         12 b1         13 a1         14 a2         15 a1      
    16 b2         17 b1         18 a1         19 b1         20 b1      
    21 a1         22 b2         23 a1         24 a2         25 a1      
    26 b1         27 b2         28 a1         29 b1         30 a2      
    31 b2         32 a1         33 b1         34 a1         35 b1      
    36 a1         37 b2         38 a1         39 a2         40 a1      
    41 b1      
 

 Wrote molecular orbitals to ./hf.movecs

   Time after variat. SCF:      0.5

 Setting fock-build task_bf   :      -1
                    maxquartet:   10000
                    maxeri    :  129600
                    maxscr    :       0
                    intacc    : 0.0D+00
                    denscreen : T
                    dentol    : 1.0D-06

   Time prior to 1st pass:      0.5


     <<<<<<      Before SCF iter loop.    >>>>>>
     <<<<<< date:  Oct 24  time: 14:46:21 >>>>>>

           DAMPING=T LEVELSHIFTING=F DIISING=T
          itol2e= 8 iAOacc=12 iXCacc=20


     <<<<<<            calling 1-e int    >>>>>>
     <<<<<< date:  Oct 24  time: 14:46:21 >>>>>>

    Kinetic Matrix Time:          0.0s

           Kinetic energy =     76.779066990499

    Potential Matrix Time:          0.0s


     <<<<<<    Before call to GETVCOUL.   >>>>>>
     <<<<<< date:  Oct 24  time: 14:46:21 >>>>>>



     <<<<<<    Before call to GETVXC.     >>>>>>
     <<<<<< date:  Oct 24  time: 14:46:21 >>>>>>



     <<<<<<    Before call to fock_2e.    >>>>>>
     <<<<<< date:  Oct 24  time: 14:46:21 >>>>>>

   0: nuse=  19(  19.2) avail=117354094Mb (out of117354094Mb) on .
   1: nuse=  19(  19.2) avail=117354094Mb (out of117354094Mb) on .
   2: nuse=  19(  19.2) avail=117354094Mb (out of117354094Mb) on .
   3: nuse=  19(  19.2) avail=117354094Mb (out of117354094Mb) on .
   4: nuse=  19(  19.2) avail=117354094Mb (out of117354094Mb) on .
   5: nuse=  19(  19.2) avail=117354094Mb (out of117354094Mb) on .
   6: nuse=  19(  19.2) avail=117354094Mb (out of117354094Mb) on .
   7: nuse=  19(  19.2) avail=117354094Mb (out of117354094Mb) on .
   8: nuse=  19(  19.2) avail=117354094Mb (out of117354094Mb) on .
   9: nuse=  19(  19.2) avail=117354094Mb (out of117354094Mb) on .
  10: nuse=  19(  19.2) avail=117354094Mb (out of117354094Mb) on .
  11: nuse=  19(  19.2) avail=117354094Mb (out of117354094Mb) on .
  12: nuse=  19(  19.2) avail=117354094Mb (out of117354094Mb) on .
  13: nuse=  19(  19.2) avail=117354094Mb (out of117354094Mb) on .
  14: nuse=  19(  19.2) avail=117354094Mb (out of117354094Mb) on .
  15: nuse=  19(  19.2) avail=117354094Mb (out of117354094Mb) on .

 #quartets = 1.144D+04 #integrals = 1.161D+05 #direct =  0.0% #cached =100.0%


 Integral file          = ./h2o-noscf.aoints.00
 Record size in doubles =    65536    No. of integs per rec  =    43688
 Max. records in memory =        2    Max. records in file   = ********
 No. of bits per label  =        8    No. of bits per value  =       64


File balance: exchanges=     0  moved=     0  time=   0.0



     <<<<<<     After call to fock_2e.    >>>>>>
     <<<<<< date:  Oct 24  time: 14:46:23 >>>>>>

    Fock_2e Build Time:          1.0s


     <<<<<<    End of parallel region.    >>>>>>
     <<<<<< date:  Oct 24  time: 14:46:23 >>>>>>

    Total Fock Matrix Build Time:          1.0s
 Etnew, Ecore, Ecoul, Exc(1), Exc(2), Totsic:   -85.1987380690467     
  -123.927012773006        47.7849892892010       -9.05671458524208     
  0.000000000000000E+000  0.000000000000000E+000
  delta =   -85.1987380690467     


         Total DFT energy =    -76.006643400390
  delta =   -85.1987380690467     
  delta =   -85.1987380690467     
  delta =   -85.1987380690467     
      One electron energy =   -123.927012773006
           Coulomb energy =     47.784989289201
    Exchange-Corr. energy =     -9.056714585242
 Nuclear repulsion energy =      9.192094668657

 Numeric. integr. density =      0.000000000000

     Total iterative time =      1.5s




     <<<<<<        calling diis driver    >>>>>>
     <<<<<< date:  Oct 24  time: 14:46:23 >>>>>>

  delta =   -85.1987380690467     
  delta =   -85.1987380690467     
  delta =   -85.1987380690467     
  delta =   -85.1987380690467     
  delta =   -85.1987380690467     
  delta =   -85.1987380690467     
  delta =   -85.1987380690467     
  delta =   -85.1987380690467     
  delta =   -85.1987380690467     
  delta =   -85.1987380690467     
  delta =   -85.1987380690467     
  delta =   -85.1987380690467     


     <<<<<<         called diis driver    >>>>>>
     <<<<<< date:  Oct 24  time: 14:46:23 >>>>>>


 global array: fock transf[1:41,1:41],  handle: -967 

            1           2           3           4           5           6  
       ----------- ----------- ----------- ----------- ----------- -----------
   1       1.34341     0.00000    -0.00000    -0.42797    -0.89896    -0.00000
   2       0.00000     1.38754    -1.12207     0.00000     0.00000    -0.15393
   3      -0.00000    -1.12207     2.24085     0.00000    -0.00000     0.41081
   4      -0.42797     0.00000     0.00000     0.52147     0.49611     0.00000
   5      -0.89896     0.00000    -0.00000     0.49611     2.28266     0.00000
   6      -0.00000    -0.15393     0.41081     0.00000     0.00000     1.74959
   7       0.08934    -0.00000     0.00000    -0.32297    -0.37882     0.00000
   8       0.00000     0.00000     0.00000     0.00000     0.00000     0.00000
   9      -0.00000    -0.03977    -0.17710    -0.00000    -0.00000    -0.15339
  10       0.00000     0.14013    -0.14022    -0.00000    -0.00000     0.28077
  11       0.00000    -0.00000    -0.00000     0.00000    -0.00000    -0.00000
  12      -0.24036     0.00000    -0.00000     0.11765     0.12182    -0.00000
  13      -0.00000     0.00000    -0.00000     0.00000     0.00000     0.00000
  14       0.04842    -0.00000     0.00000    -0.22673    -0.61795    -0.00000
  15       0.00000     0.07542    -0.01977    -0.00000    -0.00000     0.54100
  16      -0.00000    -0.10182    -0.36621    -0.00000    -0.00000    -0.11531
  17       0.00000    -0.00000     0.00000     0.00000     0.00000     0.00000
  18       0.00000     0.01458     0.33304     0.00000     0.00000     0.21969
  19       0.00000     0.00000     0.00000    -0.00000    -0.00000    -0.00000
  20      -0.22634     0.00000    -0.00000     0.25235    -0.14563    -0.00000
  21      -0.00000    -0.09826     0.53008     0.00000    -0.00000    -0.26302
  22       0.00000     0.00000     0.00000     0.00000    -0.00000    -0.00000
  23      -0.00000    -0.10733     0.18647     0.00000     0.00000     0.34934
  24       0.00000    -0.00000     0.00000     0.00000    -0.00000    -0.00000
  25      -0.03562     0.00000     0.00000    -0.18085     0.09277    -0.00000
  26      -0.13595     0.00000    -0.00000     0.07960     0.28923     0.00000
  27      -0.00000    -0.11089    -0.15499     0.00000    -0.00000    -0.03618
  28       0.00000     0.06664    -0.13595     0.00000    -0.00000     0.08090
  29       0.00000    -0.00000     0.00000    -0.00000     0.00000     0.00000
  30      -0.00000    -0.11137     0.44708    -0.00000    -0.00000    -0.59556
  31       0.05317    -0.00000     0.00000    -0.04389    -0.13556     0.00000
  32       0.00000     0.07388    -0.12776    -0.00000    -0.00000    -0.06787
  33       0.00000    -0.00000     0.00000     0.00000    -0.00000    -0.00000
  34       0.00000     0.01623    -0.07731    -0.00000    -0.00000    -0.09634
  35       0.10757    -0.00000     0.00000    -0.09109    -0.21555    -0.00000
  36      -0.00000     0.00000    -0.00000    -0.00000    -0.00000    -0.00000
  37       0.00000     0.06365    -0.05639    -0.00000    -0.00000    -0.18861
  38       0.07189    -0.00000     0.00000    -0.02746    -0.16269    -0.00000
  39      -0.00000    -0.00438    -0.02772     0.00000    -0.00000     0.04299
  40      -0.00000    -0.00000    -0.00000    -0.00000     0.00000    -0.00000
  41      -0.00000    -0.04435     0.16023     0.00000    -0.00000    -0.01324

            7           8           9          10          11          12  
       ----------- ----------- ----------- ----------- ----------- -----------
   1       0.08934     0.00000    -0.00000     0.00000     0.00000    -0.24036
   2      -0.00000     0.00000    -0.03977     0.14013    -0.00000     0.00000
   3       0.00000     0.00000    -0.17710    -0.14022    -0.00000    -0.00000
   4      -0.32297     0.00000    -0.00000    -0.00000     0.00000     0.11765
   5      -0.37882     0.00000    -0.00000    -0.00000    -0.00000     0.12182
   6       0.00000     0.00000    -0.15339     0.28077    -0.00000    -0.00000
   7       0.68494     0.00000    -0.00000     0.00000     0.00000     0.18717
   8       0.00000     1.04865     0.00000     0.00000    -0.00000     0.00000
   9      -0.00000     0.00000     1.36860     0.61515     0.00000     0.00000
  10       0.00000     0.00000     0.61515     1.34812    -0.00000    -0.00000
  11       0.00000    -0.00000     0.00000    -0.00000     1.48568    -0.00000
  12       0.18717     0.00000     0.00000    -0.00000    -0.00000     1.35726
  13       0.00000    -0.40465    -0.00000    -0.00000     0.00000     0.00000
  14      -0.08004    -0.00000     0.00000     0.00000     0.00000    -0.60122
  15      -0.00000     0.00000    -0.13950    -0.08560    -0.00000    -0.00000
  16      -0.00000    -0.00000     0.04432     0.46517     0.00000     0.00000
  17       0.00000     0.00000     0.00000     0.00000    -0.39490    -0.00000
  18       0.00000     0.00000     0.17052     0.12565     0.00000    -0.00000
  19       0.00000     0.33554     0.00000     0.00000    -0.00000    -0.00000
  20       0.06062    -0.00000     0.00000    -0.00000     0.00000     0.28032
  21      -0.00000     0.00000    -0.18204     0.12439    -0.00000    -0.00000
  22      -0.00000     0.73723    -0.00000     0.00000     0.00000    -0.00000
  23       0.00000     0.00000     0.40701    -0.08538    -0.00000     0.00000
  24      -0.00000    -0.00000    -0.00000     0.00000    -1.14708    -0.00000
  25       0.44272    -0.00000     0.00000     0.00000    -0.00000     0.04347
  26      -0.06373     0.00000    -0.00000    -0.00000    -0.00000     0.99207
  27      -0.00000    -0.00000    -0.10972    -0.49045    -0.00000     0.00000
  28      -0.00000     0.00000    -0.44582    -0.09384    -0.00000    -0.00000
  29      -0.00000     0.08621     0.00000     0.00000     0.00000    -0.00000
  30       0.00000    -0.00000     0.74093     0.05004     0.00000     0.00000
  31       0.08507    -0.00000    -0.00000    -0.00000    -0.00000    -0.28099
  32       0.00000    -0.00000     0.13057     0.08892     0.00000    -0.00000
  33      -0.00000     0.08929     0.00000     0.00000     0.00000    -0.00000
  34      -0.00000    -0.00000    -0.02155    -0.18415    -0.00000    -0.00000
  35       0.07765    -0.00000     0.00000     0.00000    -0.00000    -0.03798
  36      -0.00000     0.00000    -0.00000    -0.00000     0.11519    -0.00000
  37      -0.00000    -0.00000     0.08174     0.02391     0.00000     0.00000
  38       0.06192    -0.00000    -0.00000    -0.00000     0.00000    -0.03618
  39       0.00000     0.00000    -0.12364    -0.04671    -0.00000    -0.00000
  40       0.00000     0.02996     0.00000     0.00000     0.00000     0.00000
  41       0.00000    -0.00000     0.04667     0.03798     0.00000     0.00000

           13          14          15          16          17          18  
       ----------- ----------- ----------- ----------- ----------- -----------
   1      -0.00000     0.04842     0.00000    -0.00000     0.00000     0.00000
   2       0.00000    -0.00000     0.07542    -0.10182    -0.00000     0.01458
   3      -0.00000     0.00000    -0.01977    -0.36621     0.00000     0.33304
   4       0.00000    -0.22673    -0.00000    -0.00000     0.00000     0.00000
   5       0.00000    -0.61795    -0.00000    -0.00000     0.00000     0.00000
   6       0.00000    -0.00000     0.54100    -0.11531     0.00000     0.21969
   7       0.00000    -0.08004    -0.00000    -0.00000     0.00000     0.00000
   8      -0.40465    -0.00000     0.00000    -0.00000     0.00000     0.00000
   9      -0.00000     0.00000    -0.13950     0.04432     0.00000     0.17052
  10      -0.00000     0.00000    -0.08560     0.46517     0.00000     0.12565
  11       0.00000     0.00000    -0.00000     0.00000    -0.39490     0.00000
  12       0.00000    -0.60122    -0.00000     0.00000    -0.00000    -0.00000
  13       1.43355    -0.00000     0.00000    -0.00000    -0.00000     0.00000
  14      -0.00000     2.98147     0.00000     0.00000     0.00000    -0.00000
  15       0.00000     0.00000     1.49697    -0.54551     0.00000     0.33263
  16      -0.00000     0.00000    -0.54551     1.62164     0.00000     0.10261
  17      -0.00000     0.00000     0.00000     0.00000     1.70339    -0.00000
  18       0.00000    -0.00000     0.33263     0.10261    -0.00000     1.52077
  19      -0.18035    -0.00000     0.00000     0.00000     0.00000    -0.00000
  20      -0.00000     0.23666     0.00000     0.00000     0.00000     0.00000
  21       0.00000    -0.00000     0.91388    -0.32274    -0.00000    -0.29958
  22       0.41269     0.00000    -0.00000     0.00000    -0.00000     0.00000
  23       0.00000    -0.00000     0.33072    -1.07905    -0.00000    -0.57700
  24      -0.00000     0.00000    -0.00000    -0.00000    -0.29374     0.00000
  25       0.00000    -0.02073    -0.00000    -0.00000    -0.00000     0.00000
  26       0.00000    -0.45710    -0.00000    -0.00000    -0.00000    -0.00000
  27       0.00000    -0.00000     0.19130     0.37673     0.00000     0.13516
  28       0.00000    -0.00000     1.00408    -0.54205    -0.00000    -0.30053
  29      -0.39523    -0.00000     0.00000     0.00000     0.00000     0.00000
  30      -0.00000     0.00000    -2.51750     0.68161     0.00000     1.01955
  31      -0.00000     0.05050     0.00000    -0.00000     0.00000    -0.00000
  32      -0.00000     0.00000    -0.25989     0.22529     0.00000     0.07743
  33      -0.21278    -0.00000     0.00000     0.00000    -0.00000    -0.00000
  34       0.00000    -0.00000     0.07993     0.01910     0.00000     0.03822
  35      -0.00000     0.46603     0.00000    -0.00000    -0.00000    -0.00000
  36       0.00000     0.00000    -0.00000     0.00000    -0.39710     0.00000
  37      -0.00000     0.00000    -0.46491     0.12888    -0.00000    -0.07275
  38       0.00000    -0.10138    -0.00000     0.00000    -0.00000     0.00000
  39       0.00000    -0.00000     0.18971    -0.05684    -0.00000    -0.33143
  40      -0.00353     0.00000    -0.00000     0.00000    -0.00000     0.00000
  41      -0.00000     0.00000    -0.59354     0.18444     0.00000     0.14093

           19          20          21          22          23          24  
       ----------- ----------- ----------- ----------- ----------- -----------
   1       0.00000    -0.22634    -0.00000     0.00000    -0.00000     0.00000
   2       0.00000     0.00000    -0.09826     0.00000    -0.10733    -0.00000
   3       0.00000    -0.00000     0.53008     0.00000     0.18647     0.00000
   4      -0.00000     0.25235     0.00000     0.00000     0.00000     0.00000
   5      -0.00000    -0.14563    -0.00000    -0.00000     0.00000    -0.00000
   6      -0.00000    -0.00000    -0.26302    -0.00000     0.34934    -0.00000
   7       0.00000     0.06062    -0.00000    -0.00000     0.00000    -0.00000
   8       0.33554    -0.00000     0.00000     0.73723     0.00000    -0.00000
   9       0.00000     0.00000    -0.18204    -0.00000     0.40701    -0.00000
  10       0.00000    -0.00000     0.12439     0.00000    -0.08538     0.00000
  11      -0.00000     0.00000    -0.00000     0.00000    -0.00000    -1.14708
  12      -0.00000     0.28032    -0.00000    -0.00000     0.00000    -0.00000
  13      -0.18035    -0.00000     0.00000     0.41269     0.00000    -0.00000
  14      -0.00000     0.23666    -0.00000     0.00000    -0.00000     0.00000
  15       0.00000     0.00000     0.91388    -0.00000     0.33072    -0.00000
  16       0.00000     0.00000    -0.32274     0.00000    -1.07905    -0.00000
  17       0.00000     0.00000    -0.00000    -0.00000    -0.00000    -0.29374
  18      -0.00000     0.00000    -0.29958     0.00000    -0.57700     0.00000
  19       1.95948     0.00000     0.00000     0.55300    -0.00000     0.00000
  20       0.00000     1.19708    -0.00000     0.00000     0.00000     0.00000
  21       0.00000    -0.00000     1.98659     0.00000    -0.98175    -0.00000
  22       0.55300     0.00000     0.00000     2.73770     0.00000     0.00000
  23      -0.00000     0.00000    -0.98175     0.00000     1.99069    -0.00000
  24       0.00000     0.00000    -0.00000     0.00000    -0.00000     2.97429
  25       0.00000    -0.40987    -0.00000     0.00000    -0.00000     0.00000
  26       0.00000     0.08208     0.00000     0.00000    -0.00000    -0.00000
  27      -0.00000     0.00000    -0.81644     0.00000    -0.85200     0.00000
  28       0.00000     0.00000    -0.99704     0.00000    -1.33556     0.00000
  29      -0.08151     0.00000     0.00000    -0.16980     0.00000    -0.00000
  30      -0.00000    -0.00000     2.49179    -0.00000     2.43369    -0.00000
  31       0.00000     0.15214     0.00000     0.00000    -0.00000    -0.00000
  32      -0.00000     0.00000    -0.90198    -0.00000     0.30025     0.00000
  33       0.56578    -0.00000    -0.00000     0.85868     0.00000     0.00000
  34       0.00000    -0.00000    -0.11719     0.00000    -0.65991     0.00000
  35       0.00000    -0.13297     0.00000    -0.00000     0.00000    -0.00000
  36      -0.00000     0.00000     0.00000     0.00000     0.00000    -0.72168
  37       0.00000    -0.00000     0.29770    -0.00000    -0.05462    -0.00000
  38      -0.00000    -0.03438     0.00000     0.00000     0.00000     0.00000
  39      -0.00000     0.00000    -0.19071     0.00000    -0.27586    -0.00000
  40      -0.31555    -0.00000     0.00000     0.19831     0.00000     0.00000
  41       0.00000    -0.00000     0.49823    -0.00000     0.45870    -0.00000

           25          26          27          28          29          30  
       ----------- ----------- ----------- ----------- ----------- -----------
   1      -0.03562    -0.13595    -0.00000     0.00000     0.00000    -0.00000
   2       0.00000     0.00000    -0.11089     0.06664    -0.00000    -0.11137
   3       0.00000    -0.00000    -0.15499    -0.13595     0.00000     0.44708
   4      -0.18085     0.07960     0.00000     0.00000    -0.00000    -0.00000
   5       0.09277     0.28923    -0.00000    -0.00000     0.00000    -0.00000
   6      -0.00000     0.00000    -0.03618     0.08090     0.00000    -0.59556
   7       0.44272    -0.06373    -0.00000    -0.00000    -0.00000    -0.00000
   8      -0.00000     0.00000    -0.00000     0.00000     0.08621    -0.00000
   9       0.00000    -0.00000    -0.10972    -0.44582     0.00000     0.74093
  10       0.00000    -0.00000    -0.49045    -0.09384     0.00000     0.05004
  11      -0.00000    -0.00000    -0.00000    -0.00000     0.00000     0.00000
  12       0.04347     0.99207     0.00000    -0.00000    -0.00000     0.00000
  13       0.00000     0.00000     0.00000     0.00000    -0.39523    -0.00000
  14      -0.02073    -0.45710    -0.00000    -0.00000    -0.00000     0.00000
  15      -0.00000    -0.00000     0.19130     1.00408     0.00000    -2.51750
  16      -0.00000    -0.00000     0.37673    -0.54205     0.00000     0.68161
  17      -0.00000    -0.00000     0.00000    -0.00000     0.00000     0.00000
  18       0.00000    -0.00000     0.13516    -0.30053     0.00000     1.01955
  19       0.00000     0.00000    -0.00000     0.00000    -0.08151    -0.00000
  20      -0.40987     0.08208     0.00000     0.00000     0.00000    -0.00000
  21      -0.00000     0.00000    -0.81644    -0.99704     0.00000     2.49179
  22       0.00000     0.00000     0.00000     0.00000    -0.16980    -0.00000
  23      -0.00000    -0.00000    -0.85200    -1.33556     0.00000     2.43369
  24       0.00000    -0.00000     0.00000     0.00000    -0.00000    -0.00000
  25       1.51774     0.18412    -0.00000    -0.00000    -0.00000     0.00000
  26       0.18412     2.03912     0.00000    -0.00000    -0.00000     0.00000
  27      -0.00000     0.00000     1.14134    -0.83624     0.00000     1.40373
  28      -0.00000    -0.00000    -0.83624    -2.88797     0.00000     7.01361
  29      -0.00000    -0.00000     0.00000     0.00000     0.14419    -0.00000
  30       0.00000     0.00000     1.40373     7.01361    -0.00000   -15.49152
  31       0.12025    -1.07906    -0.00000     0.00000     0.00000     0.00000
  32       0.00000    -0.00000     0.49212    -0.09938     0.00000    -0.21827
  33       0.00000     0.00000     0.00000     0.00000     0.05187    -0.00000
  34       0.00000    -0.00000     0.66632     0.02206    -0.00000     0.26200
  35       0.18631    -0.43713    -0.00000     0.00000    -0.00000    -0.00000
  36      -0.00000    -0.00000     0.00000     0.00000     0.00000    -0.00000
  37       0.00000     0.00000     0.08477     0.64679    -0.00000    -0.93915
  38      -0.19446    -0.28809    -0.00000     0.00000     0.00000    -0.00000
  39      -0.00000    -0.00000    -0.07519    -0.64437     0.00000     0.61265
  40       0.00000     0.00000     0.00000     0.00000     0.36886    -0.00000
  41       0.00000     0.00000     0.08079     0.82414    -0.00000    -1.56549

           31          32          33          34          35          36  
       ----------- ----------- ----------- ----------- ----------- -----------
   1       0.05317     0.00000     0.00000     0.00000     0.10757    -0.00000
   2      -0.00000     0.07388    -0.00000     0.01623    -0.00000     0.00000
   3       0.00000    -0.12776     0.00000    -0.07731     0.00000    -0.00000
   4      -0.04389    -0.00000     0.00000    -0.00000    -0.09109    -0.00000
   5      -0.13556    -0.00000    -0.00000    -0.00000    -0.21555    -0.00000
   6       0.00000    -0.06787    -0.00000    -0.09634    -0.00000    -0.00000
   7       0.08507     0.00000    -0.00000    -0.00000     0.07765    -0.00000
   8      -0.00000    -0.00000     0.08929    -0.00000    -0.00000     0.00000
   9      -0.00000     0.13057     0.00000    -0.02155     0.00000    -0.00000
  10      -0.00000     0.08892     0.00000    -0.18415     0.00000    -0.00000
  11      -0.00000     0.00000     0.00000    -0.00000    -0.00000     0.11519
  12      -0.28099    -0.00000    -0.00000    -0.00000    -0.03798    -0.00000
  13      -0.00000    -0.00000    -0.21278     0.00000    -0.00000     0.00000
  14       0.05050     0.00000    -0.00000    -0.00000     0.46603     0.00000
  15       0.00000    -0.25989     0.00000     0.07993     0.00000    -0.00000
  16      -0.00000     0.22529     0.00000     0.01910    -0.00000     0.00000
  17       0.00000     0.00000    -0.00000     0.00000    -0.00000    -0.39710
  18      -0.00000     0.07743    -0.00000     0.03822    -0.00000     0.00000
  19       0.00000    -0.00000     0.56578     0.00000     0.00000    -0.00000
  20       0.15214     0.00000    -0.00000    -0.00000    -0.13297     0.00000
  21       0.00000    -0.90198    -0.00000    -0.11719     0.00000     0.00000
  22       0.00000    -0.00000     0.85868     0.00000    -0.00000     0.00000
  23      -0.00000     0.30025     0.00000    -0.65991     0.00000     0.00000
  24      -0.00000     0.00000     0.00000     0.00000    -0.00000    -0.72168
  25       0.12025     0.00000     0.00000     0.00000     0.18631    -0.00000
  26      -1.07906    -0.00000     0.00000    -0.00000    -0.43713    -0.00000
  27      -0.00000     0.49212     0.00000     0.66632    -0.00000     0.00000
  28       0.00000    -0.09938     0.00000     0.02206     0.00000     0.00000
  29       0.00000     0.00000     0.05187    -0.00000    -0.00000     0.00000
  30       0.00000    -0.21827    -0.00000     0.26200    -0.00000    -0.00000
  31       0.67254    -0.00000     0.00000     0.00000     0.41221     0.00000
  32      -0.00000     1.49638    -0.00000     0.02103     0.00000    -0.00000
  33       0.00000    -0.00000     1.43299    -0.00000     0.00000     0.00000
  34       0.00000     0.02103    -0.00000     0.55945     0.00000    -0.00000
  35       0.41221     0.00000     0.00000     0.00000     0.79402     0.00000
  36       0.00000    -0.00000     0.00000    -0.00000     0.00000     1.17767
  37       0.00000    -0.08676    -0.00000     0.46756    -0.00000    -0.00000
  38      -0.35519    -0.00000     0.00000    -0.00000     0.06032    -0.00000
  39       0.00000    -0.11940    -0.00000     0.33161    -0.00000     0.00000
  40       0.00000     0.00000    -0.30564    -0.00000     0.00000    -0.00000
  41      -0.00000     0.03748    -0.00000     0.40338    -0.00000    -0.00000

           37          38          39          40          41  
       ----------- ----------- ----------- ----------- -----------
   1       0.00000     0.07189    -0.00000    -0.00000    -0.00000
   2       0.06365    -0.00000    -0.00438    -0.00000    -0.04435
   3      -0.05639     0.00000    -0.02772    -0.00000     0.16023
   4      -0.00000    -0.02746     0.00000    -0.00000     0.00000
   5      -0.00000    -0.16269    -0.00000     0.00000    -0.00000
   6      -0.18861    -0.00000     0.04299    -0.00000    -0.01324
   7      -0.00000     0.06192     0.00000     0.00000     0.00000
   8      -0.00000    -0.00000     0.00000     0.02996    -0.00000
   9       0.08174    -0.00000    -0.12364     0.00000     0.04667
  10       0.02391    -0.00000    -0.04671     0.00000     0.03798
  11       0.00000     0.00000    -0.00000     0.00000     0.00000
  12       0.00000    -0.03618    -0.00000     0.00000     0.00000
  13      -0.00000     0.00000     0.00000    -0.00353    -0.00000
  14       0.00000    -0.10138    -0.00000     0.00000     0.00000
  15      -0.46491    -0.00000     0.18971    -0.00000    -0.59354
  16       0.12888     0.00000    -0.05684     0.00000     0.18444
  17      -0.00000    -0.00000    -0.00000    -0.00000     0.00000
  18      -0.07275     0.00000    -0.33143     0.00000     0.14093
  19       0.00000    -0.00000    -0.00000    -0.31555     0.00000
  20      -0.00000    -0.03438     0.00000    -0.00000    -0.00000
  21       0.29770     0.00000    -0.19071     0.00000     0.49823
  22      -0.00000     0.00000     0.00000     0.19831    -0.00000
  23      -0.05462     0.00000    -0.27586     0.00000     0.45870
  24      -0.00000     0.00000    -0.00000     0.00000    -0.00000
  25       0.00000    -0.19446    -0.00000     0.00000     0.00000
  26       0.00000    -0.28809    -0.00000     0.00000     0.00000
  27       0.08477    -0.00000    -0.07519     0.00000     0.08079
  28       0.64679     0.00000    -0.64437     0.00000     0.82414
  29      -0.00000     0.00000     0.00000     0.36886    -0.00000
  30      -0.93915    -0.00000     0.61265    -0.00000    -1.56549
  31       0.00000    -0.35519     0.00000     0.00000    -0.00000
  32      -0.08676    -0.00000    -0.11940     0.00000     0.03748
  33      -0.00000     0.00000    -0.00000    -0.30564    -0.00000
  34       0.46756    -0.00000     0.33161    -0.00000     0.40338
  35      -0.00000     0.06032    -0.00000     0.00000    -0.00000
  36      -0.00000    -0.00000     0.00000    -0.00000    -0.00000
  37       0.23269     0.00000     0.30962    -0.00000    -0.42825
  38       0.00000    -0.34124    -0.00000     0.00000    -0.00000
  39       0.30962    -0.00000    -0.07684     0.00000     0.24394
  40      -0.00000     0.00000     0.00000    -0.02428    -0.00000
  41      -0.42825    -0.00000     0.24394    -0.00000    -1.07090


     <<<<<<               calling diag    >>>>>>
     <<<<<< date:  Oct 24  time: 14:46:23 >>>>>>



     <<<<<<                called diag    >>>>>>
     <<<<<< date:  Oct 24  time: 14:46:23 >>>>>>

    Diagonalization Time:          0.0s
           HOMO =  -0.436 LUMO =   0.034 RLSHIFT =   0.000 HL_GAP =   0.470
 
       Symmetry analysis of molecular orbitals - alpha
       -----------------------------------------------
 
  Numbering of irreducible representations: 
 
     1 a1          2 a2          3 b1          4 b2      
 
  Orbital symmetries:
 
     1 a1          2 a1          3 b1          4 a1          5 b2      
     6 a1          7 b1          8 a1          9 b2         10 a1      
    11 b1         12 b1         13 a1         14 a2         15 a1      
    16 b2         17 b1         18 a1         19 b1         20 b1      
    21 a1         22 b2         23 a1         24 a2         25 a1      
    26 b1         27 b2         28 a1         29 b1         30 a2      
    31 b2         32 a1         33 b1         34 a1         35 b1      
    36 a1         37 b2         38 a1         39 a2         40 a1      
    41 b1      
 


     <<<<<<              calling densm    >>>>>>
     <<<<<< date:  Oct 24  time: 14:46:23 >>>>>>



     <<<<<<               called densm    >>>>>>
     <<<<<< date:  Oct 24  time: 14:46:23 >>>>>>


           Memory utilization after 1st SCF pass: 
           Heap Space remaining (MW):       12.97            12974090
          Stack Space remaining (MW):       13.11            13106836

   convergence    iter        energy       DeltaE   RMS-Dens  Diis-err    time
 ---------------- ----- ----------------- --------- --------- ---------  ------
 d= 0,ls=0.0,diis     1    -76.0066434004 -8.52D+01  8.71D-03  3.41D-01     1.6

 Wrote molecular orbitals to ./hf.movecs

             alpha eigenvalues
             -----------------
      (all occupied plus 10 virtual)
      ------------------------------

              1      
    1  -20.3509
    2   -1.2904
    3   -0.6709
    4   -0.5116
    5   -0.4355
    6    0.0341
    7    0.0565
    8    0.1761
    9    0.2050
   10    0.2314
   11    0.2371
   12    0.2893
   13    0.3310
   14    0.3819
   15    0.4054
                alpha foccs
                -----------

              1      
    1    2.0000
    2    2.0000
    3    2.0000
    4    2.0000
    5    2.0000
 
                              Intermediate MO vectors
                              -----------------------
 

 global array: alpha evecs[1:41,1:41],  handle: -995 

            1           2           3           4           5           6  
       ----------- ----------- ----------- ----------- ----------- -----------
   1      -1.00181    -0.01273    -0.00000     0.00158    -0.00000     0.00536
   2      -0.00336     0.42547    -0.00000    -0.16315     0.00000    -0.04675
   3       0.00777     0.36904     0.00000    -0.34163    -0.00000    -0.20117
   4       0.00505     0.05620     0.00000    -0.08262    -0.00000    -1.51074
   5      -0.00000    -0.00000    -0.48347    -0.00000     0.00000    -0.00000
   6      -0.00000    -0.00000    -0.00000    -0.00000     0.60490     0.00000
   7       0.00203    -0.09514     0.00000    -0.52473     0.00000     0.06516
   8      -0.00000     0.00000    -0.19615    -0.00000    -0.00000    -0.00000
   9      -0.00000    -0.00000    -0.00000    -0.00000     0.46368     0.00000
  10      -0.00166     0.00644    -0.00000    -0.33292     0.00000     0.14099
  11      -0.00000    -0.00000    -0.02235    -0.00000    -0.00000     0.00000
  12      -0.00000     0.00000     0.00000     0.00000     0.07803    -0.00000
  13      -0.00073    -0.01139    -0.00000    -0.04479     0.00000     0.16489
  14      -0.00000     0.00000     0.00000    -0.00000    -0.00000    -0.00000
  15       0.00000     0.00000     0.00000    -0.00000    -0.01669    -0.00000
  16      -0.00001     0.00386     0.00000     0.01747    -0.00000    -0.00363
  17       0.00000     0.00000    -0.02807    -0.00000    -0.00000    -0.00000
  18      -0.00020     0.00644     0.00000     0.00256     0.00000    -0.00034
  19       0.00000    -0.00000     0.00000     0.00000     0.00000    -0.00000
  20      -0.00000     0.00000    -0.00000    -0.00000    -0.02406     0.00000
  21      -0.00002    -0.00456    -0.00000     0.02046     0.00000     0.00178
  22      -0.00000    -0.00000     0.03298     0.00000     0.00000    -0.00000
  23       0.00028    -0.01947     0.00000    -0.01262    -0.00000    -0.00925
  24      -0.00022     0.21412    -0.35249     0.20407    -0.00000     0.01260
  25      -0.00397    -0.01831    -0.09342     0.06599     0.00000     0.44365
  26      -0.00036    -0.00195     0.00475     0.00500     0.00000     0.83137
  27      -0.00048    -0.03908     0.02552    -0.02982     0.00000     0.00583
  28       0.00000     0.00000    -0.00000    -0.00000     0.02784    -0.00000
  29       0.00038     0.02254    -0.03436    -0.00239     0.00000    -0.00292
  30       0.00132     0.00427     0.00509    -0.00320    -0.00000    -0.07689
  31      -0.00000    -0.00000    -0.00000     0.00000     0.01923    -0.00000
  32      -0.00112    -0.00701    -0.00273    -0.01643     0.00000     0.07233
  33      -0.00022     0.21412     0.35249     0.20407     0.00000     0.01260
  34      -0.00397    -0.01831     0.09342     0.06599     0.00000     0.44365
  35      -0.00036    -0.00195    -0.00475     0.00500     0.00000     0.83137
  36       0.00048     0.03908     0.02552     0.02982    -0.00000    -0.00583
  37       0.00000    -0.00000    -0.00000    -0.00000     0.02784    -0.00000
  38       0.00038     0.02254     0.03436    -0.00239    -0.00000    -0.00292
  39      -0.00132    -0.00427     0.00509     0.00320    -0.00000     0.07689
  40      -0.00000    -0.00000     0.00000     0.00000     0.01923    -0.00000
  41      -0.00112    -0.00701     0.00273    -0.01643    -0.00000     0.07233

            7           8           9          10          11          12  
       ----------- ----------- ----------- ----------- ----------- -----------
   1      -0.00000    -0.03103    -0.00000    -0.01506    -0.00000     0.00000
   2       0.00000    -0.09010    -0.00000    -0.16506    -0.00000    -0.00000
   3      -0.00000     0.39956     0.00000    -0.02482     0.00000     0.00000
   4      -0.00000     4.49957     0.00000     2.10321     0.00000     0.00000
   5       0.06439    -0.00000    -0.00000    -0.00000     0.17399    -0.19656
   6      -0.00000    -0.00000     0.17275    -0.00000     0.00000    -0.00000
   7      -0.00000     0.17573     0.00000     0.04856     0.00000     0.00000
   8       0.14102     0.00000     0.00000     0.00000    -0.25276    -0.28135
   9      -0.00000    -0.00000     0.27044    -0.00000     0.00000    -0.00000
  10       0.00000     0.00074    -0.00000    -0.14579     0.00000     0.00000
  11       0.85414     0.00000     0.00000     0.00000    -3.06305    -1.08309
  12       0.00000     0.00000    -1.44440    -0.00000     0.00000    -0.00000
  13       0.00000    -1.87017    -0.00000     0.76612    -0.00000    -0.00000
  14      -0.00000    -0.00000    -0.00000    -0.00000    -0.00000    -0.00000
  15      -0.00000     0.00000    -0.01896     0.00000    -0.00000     0.00000
  16       0.00000    -0.01145    -0.00000     0.00781    -0.00000    -0.00000
  17       0.00150     0.00000    -0.00000    -0.00000     0.00868     0.01469
  18      -0.00000    -0.00345    -0.00000     0.00513    -0.00000    -0.00000
  19      -0.00000    -0.00000    -0.00000    -0.00000    -0.00000    -0.00000
  20       0.00000    -0.00000     0.06003     0.00000    -0.00000     0.00000
  21       0.00000     0.03003     0.00000    -0.04842     0.00000     0.00000
[...]
 geometry:geometry:efield              double[3]      Tue Oct 24 14:46:20 2017 
 dft:d_conv                            double[1]      Tue Oct 24 14:46:20 2017 
 dft:input vectors                       char[12]     Tue Oct 24 14:46:25 2017 
 basis:ao basis:tags info                 int[280]    Tue Oct 24 14:46:20 2017 
 geometry:geometry:zmt_ijkang_frz        logical[160]    Tue Oct 24 14:46:20 2017 
 prop:Nocc_a                              int[1]      Tue Oct 24 14:46:25 2017 
 prop:Nocc_b                              int[1]      Tue Oct 24 14:46:25 2017 
 dft:nradpts                              int[1]      Tue Oct 24 14:46:25 2017 
 basis:ao basis:star segment          logical[1]      Tue Oct 24 14:46:20 2017 
 task:dipole                           double[3]      Tue Oct 24 14:46:28 2017 
 dft:diisoff                           double[1]      Tue Oct 24 14:46:20 2017 
 dft:noio                                 int[1]      Tue Oct 24 14:46:20 2017 
 dft:hl_tol                            double[1]      Tue Oct 24 14:46:20 2017 
 geometry:ngeom                           int[1]      Tue Oct 24 14:46:20 2017 
 geometry:geometry:zmt_ijklto             int[640]    Tue Oct 24 14:46:20 2017 
 geometry:geometry:zmt_ijklnb             int[640]    Tue Oct 24 14:46:20 2017 
 dft:scftype                             char[4]      Tue Oct 24 14:46:25 2017 
 dft:imull                                int[1]      Tue Oct 24 14:46:20 2017 
 dft:ndamp                                int[1]      Tue Oct 24 14:46:20 2017 
 geometry:geometry:operators           double[2304]   Tue Oct 24 14:46:20 2017 
 dft:cs00                             logical[1]      Tue Oct 24 14:46:20 2017 
 basis:ao basis:star nr tags              int[1]      Tue Oct 24 14:46:20 2017 
 geometry:geometry:zmt_ijkang_val         double[160]    Tue Oct 24 14:46:20 2017 
 dft:iAOacc                               int[1]      Tue Oct 24 14:46:25 2017 
 dft:noc                                  int[2]      Tue Oct 24 14:46:25 2017 
 dft:levelshift                       logical[1]      Tue Oct 24 14:46:20 2017 
 geometry:geometry:zmt_ijklto_nam           char[160]    Tue Oct 24 14:46:20 2017 
 geometry:geometry:zmt_ijklop_frz        logical[160]    Tue Oct 24 14:46:20 2017 
 geometry:geometry:zmt_varsign         double[3]      Tue Oct 24 14:46:20 2017 
 geometry:geometry:recip vectors         double[3]      Tue Oct 24 14:46:20 2017 
 dft:gridtype                            char[7]      Tue Oct 24 14:46:25 2017 
 dft:diison                            double[1]      Tue Oct 24 14:46:20 2017 
 dft:ssw                              logical[1]      Tue Oct 24 14:46:21 2017 
 geometry:geometry:no. unique centers            int[1]      Tue Oct 24 14:46:20 2017 
 basis:ao basis:contraction info            int[90000]  Tue Oct 24 14:46:20 2017 
 dft:itol2e                               int[1]      Tue Oct 24 14:46:20 2017 
 geometry:geometry:zmt_izmat              int[10]     Tue Oct 24 14:46:20 2017 
 dft:nodiis                           logical[1]      Tue Oct 24 14:46:20 2017 
 dft:incore                           logical[1]      Tue Oct 24 14:46:20 2017 
 basis:ao basis:bs_nr_tags                int[1]      Tue Oct 24 14:46:20 2017 
 geometry:geometry:zmt_ijklop_val         double[160]    Tue Oct 24 14:46:20 2017 
 geometry:geometry:group number            int[1]      Tue Oct 24 14:46:20 2017 
 dft:mxnang                               int[1]      Tue Oct 24 14:46:25 2017 
 geometry:geometry:recip angles         double[3]      Tue Oct 24 14:46:20 2017 
 basis:ao basis:star tot except            int[1]      Tue Oct 24 14:46:20 2017 
 dft:lebedev                          logical[1]      Tue Oct 24 14:46:21 2017 
 dft:levloff                           double[1]      Tue Oct 24 14:46:20 2017 
 geometry:geometry:zmt_varname           char[6]      Tue Oct 24 14:46:20 2017 
 dft:ipol                                 int[1]      Tue Oct 24 14:46:25 2017 
 dft:lxfac                            logical[64]     Tue Oct 24 14:46:24 2017 
 dft:iangquad                             int[1]      Tue Oct 24 14:46:20 2017 
 geometry:geometry:system type            int[1]      Tue Oct 24 14:46:20 2017 
 grid:eaf_size_in_dbl                     int[1]      Tue Oct 24 14:46:26 2017 
 dft:nlxfac                           logical[64]     Tue Oct 24 14:46:24 2017 
 dft:mult                                 int[1]      Tue Oct 24 14:46:20 2017 
 geometry:geometry:charges             double[3]      Tue Oct 24 14:46:20 2017 
 basis:ao basis:star tag_in_lib           char[2]      Tue Oct 24 14:46:20 2017 
 dft:nquad_task                           int[1]      Tue Oct 24 14:46:25 2017 
 basis:ao basis:star filename            char[68]     Tue Oct 24 14:46:20 2017 
 geometry:geometry:zmt_nizmat             int[1]      Tue Oct 24 14:46:20 2017 
 basis:ao basis:header                    int[7]      Tue Oct 24 14:46:20 2017 
 geometry:geometry:zmt_cvr_scaling         double[1]      Tue Oct 24 14:46:20 2017 
 geometry:geometry:tags                  char[6]      Tue Oct 24 14:46:20 2017 
 dft:xcname                              char[2312]   Tue Oct 24 14:46:24 2017 
 dft:cname                               char[2156]   Tue Oct 24 14:46:24 2017 
 geometry:geometry:zmt_ijklnb_nam           char[160]    Tue Oct 24 14:46:20 2017 
 geometry:geometry:zmt_ijklto_frz        logical[160]    Tue Oct 24 14:46:20 2017 
 dft:g_conv                            double[1]      Tue Oct 24 14:46:20 2017 
 geometry:geometry:include_bqbq        logical[1]      Tue Oct 24 14:46:20 2017 
 geometry:geometry:zmt_ijklop             int[640]    Tue Oct 24 14:46:20 2017 
 geometry:geometry:group name            char[4]      Tue Oct 24 14:46:20 2017 
 dft:nang                                 int[200]    Tue Oct 24 14:46:25 2017 
 dft:energy                            double[1]      Tue Oct 24 14:46:28 2017 
 basisprint:ao basis                  logical[1]      Tue Oct 24 14:46:21 2017 
 dft:radgrid                             char[7]      Tue Oct 24 14:46:21 2017 
 dft:rlshift                           double[1]      Tue Oct 24 14:46:20 2017 
 dft:delta_ac                          double[1]      Tue Oct 24 14:46:20 2017 
 dft:nfock                                int[1]      Tue Oct 24 14:46:20 2017 
 basis:ao basis:star bas type            char[12]     Tue Oct 24 14:46:20 2017 
 dft:e_conv                            double[1]      Tue Oct 24 14:46:20 2017 
 dft:noscf                            logical[1]      Tue Oct 24 14:46:24 2017 
 dft:nolevelshifting                  logical[1]      Tue Oct 24 14:46:20 2017 
 geometry:geometry:zmt_ijklto_val         double[160]    Tue Oct 24 14:46:20 2017 
 geometry:geometry:zmt_maxtor             int[1]      Tue Oct 24 14:46:20 2017 
 dft:dampoff                           double[1]      Tue Oct 24 14:46:20 2017 
 dft:output vectors                      char[12]     Tue Oct 24 14:46:25 2017 
 dft:lb94                             logical[1]      Tue Oct 24 14:46:20 2017 
 geometry:geometry:map_atoms              int[9]      Tue Oct 24 14:46:20 2017 
 dft:converged                        logical[1]      Tue Oct 24 14:46:28 2017 
 dft:job_grid_acc                      double[1]      Tue Oct 24 14:46:25 2017 
 dft:diis                             logical[1]      Tue Oct 24 14:46:20 2017 
 basis:ao basis:number of exps and coeffs            int[1]      Tue Oct 24 14:46:20 2017 
 geometry:names                          char[9]      Tue Oct 24 14:46:20 2017 
 dft:ltight                           logical[1]      Tue Oct 24 14:46:20 2017 
 geometry:geometry:masses              double[3]      Tue Oct 24 14:46:20 2017 
 dft:tol_rho                           double[1]      Tue Oct 24 14:46:20 2017 
 scf:scftype                             char[4]      Tue Oct 24 14:46:25 2017 
 dft:ncydp                                int[1]      Tue Oct 24 14:46:20 2017 
 geometry:geometry:unique centers            int[2]      Tue Oct 24 14:46:20 2017 
 geometry:geometry:zmt_ijbond_nam           char[160]    Tue Oct 24 14:46:20 2017 
 dft:ncysh                                int[1]      Tue Oct 24 14:46:24 2017 
 dft:xfac                              double[64]     Tue Oct 24 14:46:24 2017 
 geometry:geometry:amatrix             double[9]      Tue Oct 24 14:46:20 2017 
 dft:ncyds                                int[1]      Tue Oct 24 14:46:24 2017 
 basis:ao basis:star rel              logical[1]      Tue Oct 24 14:46:20 2017 
 geometry:geometry:inv nuc expon         double[3]      Tue Oct 24 14:46:20 2017 
 geometry:geometry:zmt_ijklnb_val         double[160]    Tue Oct 24 14:46:20 2017 
 basis:ao basis:star tag names           char[2]      Tue Oct 24 14:46:20 2017 
 geometry:geometry:vel                 double[9]      Tue Oct 24 14:46:20 2017 
 geometry:geometry:zmt_ijklnb_frz        logical[160]    Tue Oct 24 14:46:20 2017 
 task:status                          logical[1]      Tue Oct 24 14:46:28 2017 
 dft:xname                               char[2351]   Tue Oct 24 14:46:24 2017 
 geometry:geometry:direct volume         double[1]      Tue Oct 24 14:46:20 2017 
 basis:ao basis:star nr except            int[1]      Tue Oct 24 14:46:20 2017 
 geometry:geometry:num_operators            int[1]      Tue Oct 24 14:46:20 2017 
 uhf:coulomb                           double[1]      Tue Oct 24 14:46:28 2017 
 basis:nbasis                             int[1]      Tue Oct 24 14:46:20 2017 
 file_prefix                             char[10]     Tue Oct 24 14:46:20 2017 
 task:energy                           double[1]      Tue Oct 24 14:46:28 2017 
 dft:xccomb                           logical[64]     Tue Oct 24 14:46:24 2017 
 geometry:geometry:ncenter                int[1]      Tue Oct 24 14:46:20 2017 
 dft:tol2e                             double[1]      Tue Oct 24 14:46:25 2017 
 dft:nagrid                               int[1]      Tue Oct 24 14:46:25 2017 
 geometry:geometry:zmt_nzvar              int[1]      Tue Oct 24 14:46:20 2017 
 dft:max_ovl                          logical[1]      Tue Oct 24 14:46:20 2017 
 dft:theory                              char[4]      Tue Oct 24 14:46:24 2017 
 dft:xc_spec                             char[6]      Tue Oct 24 14:46:24 2017 
 basis:ao basis:assoc ecp name           char[4]      Tue Oct 24 14:46:20 2017 
 dft:direct                           logical[1]      Tue Oct 24 14:46:20 2017 
 dft:iterations                           int[1]      Tue Oct 24 14:46:20 2017 
 dft:nlcfac                           logical[64]     Tue Oct 24 14:46:24 2017 
 geometry:geometry:zmt_ijbond             int[320]    Tue Oct 24 14:46:20 2017 
 dft:damp                             logical[1]      Tue Oct 24 14:46:20 2017 
 dft:radius                            double[1]      Tue Oct 24 14:46:25 2017 
 dft:idecomp                              int[1]      Tue Oct 24 14:46:20 2017 
 geometry:geometry:zmt_source            char[6]      Tue Oct 24 14:46:20 2017 
 geometry:geometry:setting number            int[1]      Tue Oct 24 14:46:20 2017 
 scf:tol2e                             double[1]      Tue Oct 24 14:46:25 2017 
 rtdb:stored:state                    logical[3]      Tue Oct 24 14:46:20 2017 
 dft:mxnrad                               int[1]      Tue Oct 24 14:46:25 2017 
 dft:iqrot                                int[1]      Tue Oct 24 14:46:21 2017 
 geometry:geometry:zmt_ijbond_frz        logical[160]    Tue Oct 24 14:46:20 2017 


 HDBM usage statistics
 ---------------------
 Reads         = 2275
 Inserts       = 1174
 Replaces      = 486
 Extracts      = 0
 Deletes       = 2225
 Reuses        = 140

 Memory allocs = 10552
 Memory frees  = 10552
 Memory max    = 1518691
 Memory in use = 0

 IO seeks      = 4387
 IO reads      = 3066
 IO writes     = 3667
 IO nread      = 3311531
 IO nwrite     = 2449984

 Summary of allocated global arrays
-----------------------------------
  No active global arrays



                         GA Statistics for process    0
                         ------------------------------

       create   destroy   get      put      acc     scatter   gather  read&inc
calls:  227      227     1802      546      228        0        0      182     
number of processes/call 2.27e+00 1.82e+00 4.87e+00 0.00e+00 0.00e+00
bytes total:             4.30e+06 9.26e+05 2.00e+06 0.00e+00 0.00e+00 1.46e+03
bytes remote:            2.71e+06 3.63e+05 1.13e+06 0.00e+00 0.00e+00 0.00e+00
Max memory consumed for GA by this process: 152352 bytes
 
MA_summarize_allocated_blocks: starting scan ...
MA_summarize_allocated_blocks: scan completed: 0 heap blocks, 0 stack blocks
MA usage statistics:

	allocation statistics:
					      heap	     stack
					      ----	     -----
	current number of blocks	         0	         0
	maximum number of blocks	        22	        56
	current total bytes		         0	         0
	maximum total bytes		   1261608	  22511576
	maximum total K-bytes		      1262	     22512
	maximum total M-bytes		         2	        23

	calls per routine:
		        82  MA_alloc_get
		        86  MA_allocate_heap
		       366  MA_chop_stack
		        86  MA_free_heap
		         0  MA_free_heap_piece
		      2171  MA_get_index
		         5  MA_get_mbase
		         0  MA_get_next_memhandle
		         0  MA_get_numalign
		        23  MA_get_pointer
		         1  MA_init
		         0  MA_initialized
		         0  MA_init_memhandle_iterator
		       132  MA_inquire_avail
		         2  MA_inquire_heap
		         0  MA_inquire_heap_check_stack
		         0  MA_inquire_heap_no_partition
		         2  MA_inquire_stack
		         0  MA_inquire_stack_check_heap
		         0  MA_inquire_stack_no_partition
		      1087  MA_pop_stack
		         1  MA_print_stats
		      2085  MA_push_get
		      2100  MA_push_stack
		         3  MA_set_auto_verify
		         1  MA_set_error_print
		         3  MA_set_hard_fail
		         1  MA_set_numalign
		      4066  MA_sizeof
		         8  MA_sizeof_overhead
		         1  MA_summarize_allocated_blocks
		         0  MA_trace
		     10130  MA_verify_allocator_stuff
 
 
                                     CITATION
                                     --------
                Please cite the following reference when publishing
                           results obtained with NWChem:
 
                 M. Valiev, E.J. Bylaska, N. Govind, K. Kowalski,
              T.P. Straatsma, H.J.J. van Dam, D. Wang, J. Nieplocha,
                        E. Apra, T.L. Windus, W.A. de Jong
                 "NWChem: a comprehensive and scalable open-source
                  solution for large scale molecular simulations"
                      Comput. Phys. Commun. 181, 1477 (2010)
                           doi:10.1016/j.cpc.2010.04.018
 
                                      AUTHORS
                                      -------
          E. Apra, E. J. Bylaska, W. A. de Jong, N. Govind, K. Kowalski,
       T. P. Straatsma, M. Valiev, H. J. J. van Dam, D. Wang, T. L. Windus,
        J. Hammond, J. Autschbach, K. Bhaskaran-Nair, J. Brabec, K. Lopata,
       S. A. Fischer, S. Krishnamoorthy, W. Ma, M. Klemm, O. Villa, Y. Chen,
    V. Anisimov, F. Aquino, S. Hirata, M. T. Hackler, T. Risthaus, M. Malagoli,
       A. Marenich, A. Otero-de-la-Roza, J. Mullin, P. Nichols, R. Peverati,
     J. Pittner, Y. Zhao, P.-D. Fan, A. Fonari, M. Williamson, R. J. Harrison,
       J. R. Rehr, M. Dupuis, D. Silverstein, D. M. A. Smith, J. Nieplocha,
        V. Tipparaju, M. Krishnan, B. E. Van Kuiken, A. Vazquez-Mayagoitia,
        L. Jensen, M. Swart, Q. Wu, T. Van Voorhis, A. A. Auer, M. Nooijen,
      L. D. Crosby, E. Brown, G. Cisneros, G. I. Fann, H. Fruchtl, J. Garza,
        K. Hirao, R. A. Kendall, J. A. Nichols, K. Tsemekhman, K. Wolinski,
     J. Anchell, D. E. Bernholdt, P. Borowski, T. Clark, D. Clerc, H. Dachsel,
   M. J. O. Deegan, K. Dyall, D. Elwood, E. Glendening, M. Gutowski, A. C. Hess,
         J. Jaffe, B. G. Johnson, J. Ju, R. Kobayashi, R. Kutteh, Z. Lin,
   R. Littlefield, X. Long, B. Meng, T. Nakajima, S. Niu, L. Pollack, M. Rosing,
   K. Glaesemann, G. Sandrone, M. Stave, H. Taylor, G. Thomas, J. H. van Lenthe,
                               A. T. Wong, Z. Zhang.
 
                                    REFERENCES
                                    ----------

          Where appropriate, please cite the following reference(s) 
          when publishing results obtained with NWChem:


     1. D. E. Bernholdt, E. Apra, H. A. Fruchtl, M.F. Guest, R. J. Harrison, 
        R. A. Kendall, R. A. Kutteh, X. Long, J. B. Nicholas, J. A. Nichols, 
        H. L. Taylor, A. T. Wong, G. I. Fann, R. J. Littlefield and
        J. Nieplocha,
        "Parallel Computational Chemistry Made Easier: 
        The Development of NWChem,"
        Int. J. Quantum Chem. Symposium  29, 475-483 (1995).


     2. M. F. Guest, E. Apra, D. E. Bernholdt, H. A. Fruchtl, R. J. Harrison, 
        R. A. Kendall, R. A. Kutteh, X. Long, J. B. Nicholas, J. A. Nichols, 
        H. L. Taylor, A. T. Wong, G. I. Fann, R. J. Littlefield and
        J. Nieplocha,
        "High Performance Computational Chemistry: NWChem and Fully Distributed
        Parallel Applications", in Advances in Parallel Computing, 10, High
        Performance Computing: Technology, Methods, and Applications, Eds. 
        J. Dongarra, L. Gradinetti, G. Joubert, and J. Kowalik, 
        (Elsevier Science B. V. pp. 395-427, 1995).


     3. M. F. Guest, E. Apra, D. E. Bernholdt, H. A. Fruchtl, R. J. Harrison, 
        R. A. Kendall, R. A. Kutteh, J. B. Nicholas, J. A. Nichols, M. S. Stave,
        A. T. Wong, R. J. Littlefield and J. Nieplocha, "High Performance 
        Computational Chemistry: Towards Fully Distributed Parallel Algorithms",
        in High Performance Computing: Symposium 1995, Grand Challenges in 
        Computer Simulation, Adrian M. Tentner, Editor, Proceedings of the 1995 
        Simulation Multiconference, April 9-13, 1995, Phoenix, Arizona, 
        Simulation Councils, Inc., The Society for Computer Simulation, 
        San Diego, CA, 1995. pp. 511-521.


     4. M. F. Guest, E. Apra, D. E. Bernholdt, H. A. Fruchtl, R. J. Harrison,
        R. A. Kendall, R. A. Kutteh, X. Long, J. B. Nicholas, J. A. Nichols, 
        H. L. Taylor, A. T. Wong, G. I. Fann, R. J. Littlefield and
        J. Nieplocha,
        "Advances in Parallel Distributed Data Software; Computational Chemistry
        and NWChem", in Applied Parallel Computing.  Computations in Physics,
        Chemistry, and Engineering Science, Eds. J. Wasnieski, J. Dongarra, and 
        K. Madsen, Lecture Notes in Computer Science, 1041,
        (Springer-Verlag, Berlin, 278-294, 1996).


     5. M. F. Guest, E. Apra, D. E. Bernholdt, H. A. Fruchtl, R. J. Harrison,
        R. A. Kendall, R. A. Kutteh, X. Long, J. B. Nicholas, J. A. Nichols, 
        H. L. Taylor, A. T. Wong, G. I. Fann, R. J. Littlefield and
        J. Nieplocha, 
        "High-Performance Computing in Chemistry; NWChem", Future 
        Generations Computer Systems  12(4), 273, (1996).


     6. R. A. Kendall, E. Apra, D. E. Bernholdt, E. J. Bylaska, M. Dupuis,
        G. I. Fann, R. J. Harrison, J. Ju, J. A. Nichols, J. Nieplocha,
        T. P. Straatsma, T. L. Windus, A. T. Wong,
        Computer Phys. Comm. 128, 260 (2000).


     7. T. P. Straatsma and V. Helms, in Molecular Dynamics on Parallel
        Computers2000, R. Esser et al. editors, p 70.


     8.  T. P. Straatsma, M. Philippopoulos and J. A. McCammon,
         Computer Phys. Comm. 128, 377 (2000).


     9.  M. Valiev, E. J. Bylaska, A. Gramada, and J. H. Weare,
         Reviews in Modern Quantum Chemistry, pages 1684-1734
         (World Scientific, Singapore, 2002).


    10.  E. J. Bylaska, M. Valiev, R. Kawai, and J. H. Weare,
         Computer Phys. Comm. 143, 11 (2002).


    11.  M. Valiev and J. H. Weare,
         J. Phys. Chem. A, 103, 10588 (1999).



 Total times  cpu:        3.6s     wall:        8.0s
