 argument  1 = h2o2_514.5_03.inp
 


============================== echo of input deck ==============================
echo
start h2o2_514.5_03.inp
title "h2o2 roa calculations at 514.5 nm, input generated by va with delta_type=2"
charge 0



geometry units angstrom nocenter noautoz noautosym nucleus point;symmetry c1
 O -8.055007  3.049096 -0.527595
 O -8.433624  2.110500  0.567519
 H -8.935160  3.244971 -0.910994
 H -8.121559  2.650398  1.322564
end

basis spherical
* library def2-TZVP
end

 set prop:newaoresp 1
 set aor:roadata T
 set cphf:maxsub 100
 set cphf:acc 1.0d-10
 set cphf:maxiter 100

property
    response 1   0.088558
    bdtensor
    convergence 1e-9
    damping 0.0037
    giao
end

dft
 direct
 mult 1
 xc becke88 lyp
 iterations 250
 tolerances tight
 grid xfine
 convergence nolevelshifting
 convergence energy 1e-8
 convergence gradient 1e-8


end

task dft gradient
task dft property
================================================================================


                                         
                                         
 
 
              Northwest Computational Chemistry Package (NWChem) 6.8
              ------------------------------------------------------
 
 
                    Environmental Molecular Sciences Laboratory
                       Pacific Northwest National Laboratory
                                Richland, WA 99352
 
                              Copyright (c) 1994-2017
                       Pacific Northwest National Laboratory
                            Battelle Memorial Institute
 
             NWChem is an open-source computational chemistry package
                        distributed under the terms of the
                      Educational Community License (ECL) 2.0
             A copy of the license is included with this distribution
                              in the LICENSE.TXT file
 
                                  ACKNOWLEDGMENT
                                  --------------

            This software and its documentation were developed at the
            EMSL at Pacific Northwest National Laboratory, a multiprogram
            national laboratory, operated for the U.S. Department of Energy
            by Battelle under Contract Number DE-AC05-76RL01830. Support
            for this work was provided by the Department of Energy Office
            of Biological and Environmental Research, Office of Basic
            Energy Sciences, and the Office of Advanced Scientific Computing.


           Job information
           ---------------

    hostname        = cpn-f11-17-01.cbls.ccr.buffalo.edu
    program         = /util/academic/nwchem/nwchem-6.8/bin/LINUX64/nwchem
    date            = Thu Feb 28 18:48:56 2019

    compiled        = Tue_Nov_06_14:59:08_2018
    source          = /util/academic/nwchem/nwchem-6.8
    nwchem branch   = 6.8
    nwchem revision = v6.8-47-gdf6c956
    ga revision     = ga-5.6.3
    use scalapack   = F
    input           = h2o2_514.5_03.inp
    prefix          = h2o2_514.5_03.inp.
    data base       = ./h2o2_514.5_03.inp.db
    status          = startup
    nproc           =        1
    time left       =     -1s



           Memory information
           ------------------

    heap     =   13107200 doubles =    100.0 Mbytes
    stack    =   13107197 doubles =    100.0 Mbytes
    global   =   26214400 doubles =    200.0 Mbytes (distinct from heap & stack)
    total    =   52428797 doubles =    400.0 Mbytes
    verify   = yes
    hardfail = no 


           Directory information
           ---------------------
 
  0 permanent = .
  0 scratch   = .
 
 
 
 
                                NWChem Input Module
                                -------------------
 
 
                         h2o2 roa calculations at 514.5 nm, input generated by va with delta_type=2
                         ---------------------------------

 Scaling coordinates for geometry "geometry" by  1.889725989
 (inverse scale =  0.529177249)

 
 
                             Geometry "geometry" -> ""
                             -------------------------
 
 Output coordinates in angstroms (scale by  1.889725989 to convert to a.u.)
 
  No.       Tag          Charge          X              Y              Z
 ---- ---------------- ---------- -------------- -------------- --------------
    1 O                    8.0000    -8.05500700     3.04909600    -0.52759500
    2 O                    8.0000    -8.43362400     2.11050000     0.56751900
    3 H                    1.0000    -8.93516000     3.24497100    -0.91099400
    4 H                    1.0000    -8.12155900     2.65039800     1.32256400
 
      Atomic Mass 
      ----------- 
 
      O                 15.994910
      H                  1.007825
 

 Effective nuclear repulsion energy (a.u.)      36.0005595833

            Nuclear Dipole moment (a.u.) 
            ----------------------------
        X                 Y               Z
 ---------------- ---------------- ----------------
  -281.5044813087    89.1424132258     1.3813178881
 
 
            XYZ format geometry
            -------------------
     4
 geometry
 O                    -8.05500700     3.04909600    -0.52759500
 O                    -8.43362400     2.11050000     0.56751900
 H                    -8.93516000     3.24497100    -0.91099400
 H                    -8.12155900     2.65039800     1.32256400
 
 ==============================================================================
                                internuclear distances
 ------------------------------------------------------------------------------
       center one      |      center two      | atomic units |  angstroms
 ------------------------------------------------------------------------------
    3 H                |   1 O                |     1.85158  |     0.97981
    4 H                |   2 O                |     1.85055  |     0.97927
 ------------------------------------------------------------------------------
                         number of included internuclear distances:          2
 ==============================================================================



  warning:::::::::::::: from_environment
  NWCHEM_BASIS_LIBRARY set to: <
 /util/academic/nwchem/nwchem-6.8/src/basis/libraries>
  but file does not exist !
  using .nwchemrc or compiled library


 Summary of "ao basis" -> "" (spherical)
 ------------------------------------------------------------------------------
       Tag                 Description            Shells   Functions and Types
 ---------------- ------------------------------  ------  ---------------------
 *                         def2-TZVP                  on all atoms 


 
                                 NWChem DFT Module
                                 -----------------
 
 
                         h2o2 roa calculations at 514.5 nm, input generated by va with delta_type=2
 
 
                      Basis "ao basis" -> "ao basis" (spherical)
                      -----
  O (Oxygen)
  ----------
            Exponent  Coefficients 
       -------------- ---------------------------------------------------------
  1 S  2.70323826E+04  0.000217
  1 S  4.05238714E+03  0.001684
  1 S  9.22327227E+02  0.008740
  1 S  2.61240710E+02  0.035240
  1 S  8.53546414E+01  0.111535
  1 S  3.10350352E+01  0.255890
 
  2 S  1.22608607E+01  0.397687
  2 S  4.99870760E+00  0.246278
 
  3 S  1.17031082E+00  1.000000
 
  4 S  4.64747410E-01  1.000000
 
  5 S  1.85045364E-01  1.000000
 
  6 P  6.32749548E+01  0.006069
  6 P  1.46270494E+01  0.041913
  6 P  4.45012235E+00  0.161538
  6 P  1.52757996E+00  0.357070
 
  7 P  5.29351179E-01  1.000000
 
  8 P  1.74784213E-01  1.000000
 
  9 D  2.31400000E+00  1.000000
 
 10 D  6.45000000E-01  1.000000
 
 11 F  1.42800000E+00  1.000000
 
  H (Hydrogen)
  ------------
            Exponent  Coefficients 
       -------------- ---------------------------------------------------------
  1 S  3.40613410E+01  0.006025
  1 S  5.12357460E+00  0.045021
  1 S  1.16466260E+00  0.201897
 
  2 S  3.27230410E-01  1.000000
 
  3 S  1.03072410E-01  1.000000
 
  4 P  8.00000000E-01  1.000000
 


 Summary of "ao basis" -> "ao basis" (spherical)
 ------------------------------------------------------------------------------
       Tag                 Description            Shells   Functions and Types
 ---------------- ------------------------------  ------  ---------------------
 O                         def2-TZVP                11       31   5s3p2d1f
 H                         def2-TZVP                 4        6   3s1p




 Summary of "ao basis" -> "ao basis" (spherical)
 ------------------------------------------------------------------------------
       Tag                 Description            Shells   Functions and Types
 ---------------- ------------------------------  ------  ---------------------
 O                         def2-TZVP                11       31   5s3p2d1f
 H                         def2-TZVP                 4        6   3s1p


  Caching 1-el integrals 
  itol2e modified to match energy
  convergence criterion.
  tol_rho modified to match energy
  convergence criterion.
 
            General Information
            -------------------
          SCF calculation type: DFT
          Wavefunction type:  closed shell.
          No. of atoms     :     4
          No. of electrons :    18
           Alpha electrons :     9
            Beta electrons :     9
          Charge           :     0
          Spin multiplicity:     1
          Use of symmetry is: off; symmetry adaption is: off
          Maximum number of iterations: 250
          This is a Direct SCF calculation.
          AO basis - number of functions:    74
                     number of shells:    30
          Convergence on energy requested:  1.00D-08
          Convergence on density requested:  1.00D-05
          Convergence on gradient requested:  1.00D-08
 
              XC Information
              --------------
                    Becke 1988 Exchange Functional  1.000          
              Lee-Yang-Parr Correlation Functional  1.000          
 
             Grid Information
             ----------------
          Grid used for XC integration:  xfine     
          Radial quadrature: Mura-Knowles        
          Angular quadrature: Lebedev. 
          Tag              B.-S. Rad. Rad. Pts. Rad. Cut. Ang. Pts.
          ---              ---------- --------- --------- ---------
          O                   0.60      100           8.0      1454
          H                   0.35      100           9.0      1202
          Grid pruning is: on 
          Number of quadrature shells:   400
          Spatial weights used:  Erf1
 
          Convergence Information
          -----------------------
          Convergence aids based upon iterative change in 
          total energy or number of iterations. 
          Levelshifting, if invoked, occurs when the 
          HOMO/LUMO gap drops below (HL_TOL):  1.00D-02
          DIIS, if invoked, will attempt to extrapolate 
          using up to (NFOCK): 10 stored Fock matrices.

                    Damping( 0%)  Levelshifting(0.0)       DIIS
                  --------------- ------------------- ---------------
          dE  on:    start             N/A                start   
          dE off:    2 iters           N/A              250 iters 

 
      Screening Tolerance Information
      -------------------------------
          Density screening/tol_rho:  1.00D-11
          AO Gaussian exp screening on grid/accAOfunc:  18
          CD Gaussian exp screening on grid/accCDfunc:  20
          XC Gaussian exp screening on grid/accXCfunc:  20
          Schwarz screening/accCoul:  1.00D-09

 
      Superposition of Atomic Density Guess
      -------------------------------------
 
 Sum of atomic energies:        -150.56823290
 
      Non-variational initial energy
      ------------------------------

 Total energy =    -150.655660
 1-e energy   =    -278.564986
 2-e energy   =      91.908767
 HOMO         =      -0.359365
 LUMO         =      -0.045444
 
   Time after variat. SCF:      1.3
   Time prior to 1st pass:      1.3

 Grid_pts file          = ./h2o2_514.5_03.inp.gridpts.0
 Record size in doubles =  12289        No. of grid_pts per rec  =   3070
 Max. records in memory =    210        Max. recs in file   =   1293931


           Memory utilization after 1st SCF pass: 
           Heap Space remaining (MW):       10.52            10522928
          Stack Space remaining (MW):       13.11            13106668

   convergence    iter        energy       DeltaE   RMS-Dens  Diis-err    time
 ---------------- ----- ----------------- --------- --------- ---------  ------
 d= 0,ls=0.0,diis     1   -151.5596884844 -1.88D+02  7.37D-03  6.80D-01     5.0
 d= 0,ls=0.0,diis     2   -151.5948370919 -3.51D-02  2.67D-03  6.10D-02     8.7
 d= 0,ls=0.0,diis     3   -151.5995049658 -4.67D-03  1.05D-03  1.73D-02    12.0
 d= 0,ls=0.0,diis     4   -151.6007109586 -1.21D-03  3.68D-04  3.96D-03    15.4
 d= 0,ls=0.0,diis     5   -151.6010386610 -3.28D-04  7.85D-05  1.20D-04    18.9
 d= 0,ls=0.0,diis     6   -151.6010435603 -4.90D-06  4.02D-05  7.36D-05    22.2
 d= 0,ls=0.0,diis     7   -151.6010500176 -6.46D-06  3.75D-06  4.97D-07    25.6
 d= 0,ls=0.0,diis     8   -151.6010500609 -4.33D-08  7.36D-07  5.46D-09    29.1
 d= 0,ls=0.0,diis     9   -151.6010500614 -4.62D-10  1.84D-07  3.56D-10    32.5


         Total DFT energy =     -151.601050061380
      One electron energy =     -279.861929793697
           Coulomb energy =      110.072000473634
    Exchange-Corr. energy =      -17.811680324656
 Nuclear repulsion energy =       36.000559583339

 Numeric. integr. density =       17.999999997497

     Total iterative time =     31.2s


 
                       DFT Final Molecular Orbital Analysis
                       ------------------------------------
 
 Vector    1  Occ=2.000000D+00  E=-1.883237D+01
              MO Center= -8.4D+00,  2.1D+00,  5.7D-01, r^2= 1.6D-02
   Bfn.  Coefficient  Atom+Function         Bfn.  Coefficient  Atom+Function  
  ----- ------------  ---------------      ----- ------------  ---------------
    33      0.638694  2 O  s                 32      0.435351  2 O  s          
    34      0.037175  2 O  s                 35     -0.025123  2 O  s          
 
 Vector    2  Occ=2.000000D+00  E=-1.883144D+01
              MO Center= -8.1D+00,  3.0D+00, -5.3D-01, r^2= 1.6D-02
   Bfn.  Coefficient  Atom+Function         Bfn.  Coefficient  Atom+Function  
  ----- ------------  ---------------      ----- ------------  ---------------
     2      0.638696  1 O  s                  1      0.435351  1 O  s          
     3      0.037133  1 O  s                  4     -0.025038  1 O  s          
 
 Vector    3  Occ=2.000000D+00  E=-1.007970D+00
              MO Center= -8.3D+00,  2.6D+00,  5.6D-02, r^2= 8.2D-01
   Bfn.  Coefficient  Atom+Function         Bfn.  Coefficient  Atom+Function  
  ----- ------------  ---------------      ----- ------------  ---------------
     4      0.312075  1 O  s                 35      0.313244  2 O  s          
     3      0.238698  1 O  s                 34      0.239792  2 O  s          
     2     -0.162693  1 O  s                 33     -0.163350  2 O  s          
     5      0.096903  1 O  s                 36      0.096760  2 O  s          
    38      0.072282  2 O  py                 1     -0.069901  1 O  s          
 
 Vector    4  Occ=2.000000D+00  E=-8.190984D-01
              MO Center= -8.3D+00,  2.7D+00,  6.1D-02, r^2= 1.3D+00
   Bfn.  Coefficient  Atom+Function         Bfn.  Coefficient  Atom+Function  
  ----- ------------  ---------------      ----- ------------  ---------------
     4      0.327790  1 O  s                 35     -0.325982  2 O  s          
     3      0.254870  1 O  s                 34     -0.253279  2 O  s          
     2     -0.167773  1 O  s                 33      0.166706  2 O  s          
     5      0.141467  1 O  s                 36     -0.140504  2 O  s          
    63      0.091619  3 H  s                 69     -0.090101  4 H  s          
 
 Vector    5  Occ=2.000000D+00  E=-4.735241D-01
              MO Center= -8.3D+00,  2.7D+00,  5.1D-02, r^2= 1.3D+00
   Bfn.  Coefficient  Atom+Function         Bfn.  Coefficient  Atom+Function  
  ----- ------------  ---------------      ----- ------------  ---------------
    39      0.308487  2 O  pz                42      0.241674  2 O  pz         
     7      0.209382  1 O  py                 8     -0.200925  1 O  pz         
    10      0.168343  1 O  py                11     -0.158696  1 O  pz         
    64      0.133387  3 H  s                 70      0.127795  4 H  s          
     6     -0.122170  1 O  px                45      0.110498  2 O  pz         
 
 Vector    6  Occ=2.000000D+00  E=-4.331371D-01
              MO Center= -8.3D+00,  2.6D+00,  6.6D-02, r^2= 1.3D+00
   Bfn.  Coefficient  Atom+Function         Bfn.  Coefficient  Atom+Function  
  ----- ------------  ---------------      ----- ------------  ---------------
     6      0.244847  1 O  px                 9      0.182788  1 O  px         
    37      0.176963  2 O  px                38      0.161111  2 O  py         
    36     -0.159766  2 O  s                 35     -0.158503  2 O  s          
    39      0.156967  2 O  pz                 4      0.149106  1 O  s          
     5      0.148080  1 O  s                 70      0.140004  4 H  s          
 
 Vector    7  Occ=2.000000D+00  E=-3.654128D-01
              MO Center= -8.2D+00,  2.5D+00, -3.1D-02, r^2= 1.3D+00
   Bfn.  Coefficient  Atom+Function         Bfn.  Coefficient  Atom+Function  
  ----- ------------  ---------------      ----- ------------  ---------------
    38      0.314513  2 O  py                 6     -0.247238  1 O  px         
    41      0.246033  2 O  py                 8      0.210027  1 O  pz         
     9     -0.189361  1 O  px                11      0.170040  1 O  pz         
    44      0.162244  2 O  py                 5     -0.133347  1 O  s          
    36     -0.129221  2 O  s                 12     -0.123358  1 O  px         
 
 Vector    8  Occ=2.000000D+00  E=-2.755432D-01
              MO Center= -8.3D+00,  2.6D+00,  4.9D-02, r^2= 1.3D+00
   Bfn.  Coefficient  Atom+Function         Bfn.  Coefficient  Atom+Function  
  ----- ------------  ---------------      ----- ------------  ---------------
    37      0.343313  2 O  px                 7     -0.268908  1 O  py         
    40      0.267140  2 O  px                10     -0.215421  1 O  py         
    43      0.213452  2 O  px                13     -0.172228  1 O  py         
     8     -0.161978  1 O  pz                 6     -0.149789  1 O  px         
     5     -0.124873  1 O  s                 11     -0.121188  1 O  pz         
 
 Vector    9  Occ=2.000000D+00  E=-2.307300D-01
              MO Center= -8.2D+00,  2.6D+00,  4.6D-03, r^2= 1.2D+00
   Bfn.  Coefficient  Atom+Function         Bfn.  Coefficient  Atom+Function  
  ----- ------------  ---------------      ----- ------------  ---------------
    37      0.282831  2 O  px                 7      0.273382  1 O  py         
    40      0.223274  2 O  px                38     -0.214803  2 O  py         
    10      0.213285  1 O  py                 8      0.205412  1 O  pz         
    43      0.205366  2 O  px                13      0.188758  1 O  py         
    41     -0.164163  2 O  py                11      0.162079  1 O  pz         
 
 Vector   10  Occ=0.000000D+00  E=-6.031284D-02
              MO Center= -8.3D+00,  2.6D+00,  3.5D-02, r^2= 1.8D+00
   Bfn.  Coefficient  Atom+Function         Bfn.  Coefficient  Atom+Function  
  ----- ------------  ---------------      ----- ------------  ---------------
     5      0.512320  1 O  s                 36     -0.486106  2 O  s          
    44     -0.322330  2 O  py                65     -0.307400  3 H  s          
    14      0.291496  1 O  pz                13     -0.284041  1 O  py         
    45      0.283209  2 O  pz                71      0.276606  4 H  s          
     8      0.257158  1 O  pz                38     -0.254519  2 O  py         
 
 Vector   11  Occ=0.000000D+00  E=-3.897529D-03
              MO Center= -8.6D+00,  3.1D+00,  2.9D-01, r^2= 4.3D+00
   Bfn.  Coefficient  Atom+Function         Bfn.  Coefficient  Atom+Function  
  ----- ------------  ---------------      ----- ------------  ---------------
    71      1.007444  4 H  s                 65      0.988259  3 H  s          
    36     -0.657964  2 O  s                  5     -0.631252  1 O  s          
    12      0.252121  1 O  px                45     -0.228902  2 O  pz         
    44     -0.160424  2 O  py                14      0.128513  1 O  pz         
    34     -0.125025  2 O  s                 39     -0.125211  2 O  pz         
 
 Vector   12  Occ=0.000000D+00  E= 3.967547D-02
              MO Center= -8.6D+00,  3.0D+00,  2.4D-01, r^2= 4.3D+00
   Bfn.  Coefficient  Atom+Function         Bfn.  Coefficient  Atom+Function  
  ----- ------------  ---------------      ----- ------------  ---------------
    65      1.192367  3 H  s                 71     -1.185503  4 H  s          
    45      0.442979  2 O  pz                 5     -0.417867  1 O  s          
    36      0.416396  2 O  s                 14      0.315038  1 O  pz         
    12      0.254906  1 O  px                39      0.237701  2 O  pz         
    13     -0.212695  1 O  py                 8      0.174630  1 O  pz         
 
 Vector   13  Occ=0.000000D+00  E= 3.371662D-01
              MO Center= -8.4D+00,  2.8D+00,  2.6D-01, r^2= 3.7D+00
   Bfn.  Coefficient  Atom+Function         Bfn.  Coefficient  Atom+Function  
  ----- ------------  ---------------      ----- ------------  ---------------
    70      1.314033  4 H  s                 64      1.048461  3 H  s          
    71     -0.748928  4 H  s                 45     -0.590661  2 O  pz         
    65     -0.582972  3 H  s                 14      0.573821  1 O  pz         
    35     -0.350179  2 O  s                  9      0.345417  1 O  px         
    41     -0.339565  2 O  py                13     -0.307178  1 O  py         
 
 Vector   14  Occ=0.000000D+00  E= 3.442274D-01
              MO Center= -8.4D+00,  2.7D+00, -8.1D-02, r^2= 3.6D+00
   Bfn.  Coefficient  Atom+Function         Bfn.  Coefficient  Atom+Function  
  ----- ------------  ---------------      ----- ------------  ---------------
    64      1.581313  3 H  s                 70     -1.389449  4 H  s          
    65     -0.888620  3 H  s                 71      0.761145  4 H  s          
     5     -0.714688  1 O  s                 44      0.687288  2 O  py         
    12      0.663789  1 O  px                36      0.664698  2 O  s          
    43      0.385999  2 O  px                 4     -0.374688  1 O  s          
 
 Vector   15  Occ=0.000000D+00  E= 3.516053D-01
              MO Center= -8.3D+00,  2.6D+00,  8.3D-02, r^2= 3.8D+00
   Bfn.  Coefficient  Atom+Function         Bfn.  Coefficient  Atom+Function  
  ----- ------------  ---------------      ----- ------------  ---------------
    13      0.926088  1 O  py                44      0.842842  2 O  py         
    45     -0.774093  2 O  pz                 5     -0.754399  1 O  s          
    36      0.740430  2 O  s                 14     -0.698642  1 O  pz         
    43      0.583333  2 O  px                12      0.523229  1 O  px         
     9     -0.349677  1 O  px                64     -0.350372  3 H  s          
 
 Vector   16  Occ=0.000000D+00  E= 3.726135D-01
              MO Center= -8.0D+00,  2.3D+00, -1.3D-01, r^2= 2.6D+00
   Bfn.  Coefficient  Atom+Function         Bfn.  Coefficient  Atom+Function  
  ----- ------------  ---------------      ----- ------------  ---------------
    44     -0.600101  2 O  py                12      0.554800  1 O  px         
     4     -0.472643  1 O  s                 35     -0.452963  2 O  s          
    13     -0.414306  1 O  py                36      0.344201  2 O  s          
     5      0.342308  1 O  s                 64      0.337066  3 H  s          
    43      0.322306  2 O  px                41      0.311729  2 O  py         
 
 Vector   17  Occ=0.000000D+00  E= 4.127751D-01
              MO Center= -8.2D+00,  2.6D+00,  5.5D-02, r^2= 3.0D+00
   Bfn.  Coefficient  Atom+Function         Bfn.  Coefficient  Atom+Function  
  ----- ------------  ---------------      ----- ------------  ---------------
    14      0.888104  1 O  pz                45     -0.873601  2 O  pz         
    12      0.757936  1 O  px                43     -0.724426  2 O  px         
     4     -0.404499  1 O  s                 42      0.375559  2 O  pz         
    11     -0.369790  1 O  pz                35     -0.331425  2 O  s          
    40      0.273401  2 O  px                 9     -0.238394  1 O  px         
 
 Vector   18  Occ=0.000000D+00  E= 4.425762D-01
              MO Center= -8.3D+00,  2.6D+00,  3.0D-02, r^2= 3.5D+00
   Bfn.  Coefficient  Atom+Function         Bfn.  Coefficient  Atom+Function  
  ----- ------------  ---------------      ----- ------------  ---------------
    44      1.254952  2 O  py                14     -0.996174  1 O  pz         
     5     -0.880107  1 O  s                 36      0.841140  2 O  s          
    12      0.767807  1 O  px                43     -0.616142  2 O  px         
    13     -0.538927  1 O  py                70     -0.445662  4 H  s          
    64      0.403006  3 H  s                 40      0.353687  2 O  px         
 
 Vector   19  Occ=0.000000D+00  E= 4.652567D-01
              MO Center= -8.3D+00,  2.7D+00,  6.6D-02, r^2= 4.0D+00
   Bfn.  Coefficient  Atom+Function         Bfn.  Coefficient  Atom+Function  
  ----- ------------  ---------------      ----- ------------  ---------------
    36      0.991218  2 O  s                  5      0.965140  1 O  s          
    65     -0.825112  3 H  s                 71     -0.793532  4 H  s          
    13      0.750027  1 O  py                43     -0.710971  2 O  px         
    64      0.669049  3 H  s                 70      0.662031  4 H  s          
     4     -0.619409  1 O  s                 35     -0.617492  2 O  s          
 
 Vector   20  Occ=0.000000D+00  E= 5.215890D-01
              MO Center= -8.3D+00,  2.7D+00,  8.2D-02, r^2= 4.0D+00
   Bfn.  Coefficient  Atom+Function         Bfn.  Coefficient  Atom+Function  
  ----- ------------  ---------------      ----- ------------  ---------------
    45      1.508131  2 O  pz                65      1.339582  3 H  s          
    71     -1.344097  4 H  s                 12      1.073112  1 O  px         
    36      1.044467  2 O  s                  5     -1.025310  1 O  s          
    14      0.975176  1 O  pz                13     -0.713541  1 O  py         
    35     -0.552235  2 O  s                  4      0.521453  1 O  s          
 
 Vector   21  Occ=0.000000D+00  E= 5.869691D-01
              MO Center= -8.4D+00,  2.8D+00,  1.5D-01, r^2= 3.0D+00
   Bfn.  Coefficient  Atom+Function         Bfn.  Coefficient  Atom+Function  
  ----- ------------  ---------------      ----- ------------  ---------------
    36      2.573876  2 O  s                  5      2.431583  1 O  s          
    35     -1.466871  2 O  s                  4     -1.451979  1 O  s          
    12     -1.346973  1 O  px                70     -1.064184  4 H  s          
    64     -1.026892  3 H  s                 44      0.937379  2 O  py         
    71     -0.846924  4 H  s                 65     -0.837496  3 H  s          
 
 Vector   22  Occ=0.000000D+00  E= 6.693039D-01
              MO Center= -8.2D+00,  2.5D+00, -4.3D-02, r^2= 3.0D+00
   Bfn.  Coefficient  Atom+Function         Bfn.  Coefficient  Atom+Function  
  ----- ------------  ---------------      ----- ------------  ---------------
     5      5.590531  1 O  s                 36     -5.561175  2 O  s          
     4     -1.823159  1 O  s                 35      1.826082  2 O  s          
    44     -1.717477  2 O  py                14      1.697885  1 O  pz         
    45      1.657517  2 O  pz                13     -1.547903  1 O  py         
    12     -0.903822  1 O  px                64     -0.902603  3 H  s          
 
 Vector   23  Occ=0.000000D+00  E= 1.012283D+00
              MO Center= -8.3D+00,  2.7D+00,  1.1D-01, r^2= 1.5D+00
   Bfn.  Coefficient  Atom+Function         Bfn.  Coefficient  Atom+Function  
  ----- ------------  ---------------      ----- ------------  ---------------
    22      0.353346  1 O  d  0              64     -0.304883  3 H  s          
    68     -0.304525  3 H  pz                53     -0.297214  2 O  d  0       
    70      0.298128  4 H  s                 74     -0.282123  4 H  pz         
    23     -0.234974  1 O  d  1              54      0.229122  2 O  d  1       
    73      0.224562  4 H  py                51      0.204866  2 O  d -2       
 
 Vector   24  Occ=0.000000D+00  E= 1.080792D+00
              MO Center= -8.3D+00,  2.7D+00,  4.6D-02, r^2= 1.5D+00
   Bfn.  Coefficient  Atom+Function         Bfn.  Coefficient  Atom+Function  
  ----- ------------  ---------------      ----- ------------  ---------------
    54      0.359163  2 O  d  1              67      0.347319  3 H  py         
    20     -0.319450  1 O  d -2              72     -0.274942  4 H  px         
    22     -0.251170  1 O  d  0              52      0.238939  2 O  d -1       
    64     -0.231713  3 H  s                 24     -0.201973  1 O  d  2       
    74      0.182682  4 H  pz                53      0.176051  2 O  d  0       
 
 Vector   25  Occ=0.000000D+00  E= 1.184162D+00
              MO Center= -8.3D+00,  2.6D+00,  1.1D-01, r^2= 1.5D+00
   Bfn.  Coefficient  Atom+Function         Bfn.  Coefficient  Atom+Function  
  ----- ------------  ---------------      ----- ------------  ---------------
    55      0.450596  2 O  d  2               5      0.433665  1 O  s          
    23     -0.425484  1 O  d  1              64     -0.274915  3 H  s          
    36      0.272171  2 O  s                 12     -0.248702  1 O  px         
    24     -0.238050  1 O  d  2              51      0.239130  2 O  d -2       
    68     -0.226239  3 H  pz                 4     -0.215259  1 O  s          
 
 Vector   26  Occ=0.000000D+00  E= 1.224787D+00
              MO Center= -8.4D+00,  2.8D+00,  3.5D-02, r^2= 1.7D+00
   Bfn.  Coefficient  Atom+Function         Bfn.  Coefficient  Atom+Function  
  ----- ------------  ---------------      ----- ------------  ---------------
    36     -0.639994  2 O  s                  5      0.601865  1 O  s          
    20     -0.393155  1 O  d -2              72      0.394220  4 H  px         
    67      0.362508  3 H  py                68      0.253385  3 H  pz         
    43     -0.246498  2 O  px                13     -0.238463  1 O  py         
    51      0.236829  2 O  d -2              35      0.218448  2 O  s          
 
 Vector   27  Occ=0.000000D+00  E= 1.519876D+00
              MO Center= -8.4D+00,  2.9D+00, -1.3D-01, r^2= 2.4D+00
   Bfn.  Coefficient  Atom+Function         Bfn.  Coefficient  Atom+Function  
  ----- ------------  ---------------      ----- ------------  ---------------
    64      2.321613  3 H  s                 70      1.683344  4 H  s          
    12      0.757843  1 O  px                 5     -0.667158  1 O  s          
     4     -0.649109  1 O  s                 45     -0.597905  2 O  pz         
    24     -0.592168  1 O  d  2              35     -0.579753  2 O  s          
    52     -0.551277  2 O  d -1               9      0.492475  1 O  px         
 
 Vector   28  Occ=0.000000D+00  E= 1.534119D+00
              MO Center= -8.3D+00,  2.6D+00,  3.6D-01, r^2= 2.4D+00
   Bfn.  Coefficient  Atom+Function         Bfn.  Coefficient  Atom+Function  
  ----- ------------  ---------------      ----- ------------  ---------------
    70      2.454258  4 H  s                 64     -1.783731  3 H  s          
    36     -1.345341  2 O  s                  5      1.188816  1 O  s          
    44     -0.676848  2 O  py                12     -0.618517  1 O  px         
    52     -0.621139  2 O  d -1              24      0.516470  1 O  d  2       
    71     -0.483892  4 H  s                 45     -0.451693  2 O  pz         
 
 Vector   29  Occ=0.000000D+00  E= 1.602320D+00
              MO Center= -8.4D+00,  2.7D+00,  8.7D-02, r^2= 1.7D+00
   Bfn.  Coefficient  Atom+Function         Bfn.  Coefficient  Atom+Function  
  ----- ------------  ---------------      ----- ------------  ---------------
    73      0.411814  4 H  py                51      0.400363  2 O  d -2       
    68      0.390843  3 H  pz                21     -0.339016  1 O  d -1       
    54      0.326645  2 O  d  1              36      0.308490  2 O  s          
    14     -0.288084  1 O  pz                43      0.274135  2 O  px         
    20      0.253286  1 O  d -2              74     -0.253414  4 H  pz         
 
 Vector   30  Occ=0.000000D+00  E= 1.645827D+00
              MO Center= -8.3D+00,  2.7D+00,  9.4D-03, r^2= 1.6D+00
   Bfn.  Coefficient  Atom+Function         Bfn.  Coefficient  Atom+Function  
  ----- ------------  ---------------      ----- ------------  ---------------
    64      0.734151  3 H  s                 70      0.608571  4 H  s          
    21      0.583210  1 O  d -1               5     -0.555679  1 O  s          
    53     -0.447212  2 O  d  0              36     -0.376357  2 O  s          
    55      0.376888  2 O  d  2              24     -0.341512  1 O  d  2       
    12      0.335395  1 O  px                44     -0.335963  2 O  py         
 
 Vector   31  Occ=0.000000D+00  E= 1.742667D+00
              MO Center= -8.3D+00,  2.7D+00,  1.3D-01, r^2= 1.8D+00
   Bfn.  Coefficient  Atom+Function         Bfn.  Coefficient  Atom+Function  
  ----- ------------  ---------------      ----- ------------  ---------------
    36     -1.195108  2 O  s                  5      1.138414  1 O  s          
    13     -0.613614  1 O  py                45      0.589672  2 O  pz         
    22     -0.512451  1 O  d  0              51     -0.468208  2 O  d -2       
    73      0.449660  4 H  py                44     -0.375730  2 O  py         
    35      0.365817  2 O  s                 14      0.362619  1 O  pz         
 
 Vector   32  Occ=0.000000D+00  E= 1.850430D+00
              MO Center= -8.3D+00,  2.7D+00,  3.1D-02, r^2= 2.2D+00
   Bfn.  Coefficient  Atom+Function         Bfn.  Coefficient  Atom+Function  
  ----- ------------  ---------------      ----- ------------  ---------------
     5      2.235324  1 O  s                 36     -2.220480  2 O  s          
     4     -1.159432  1 O  s                 35      1.133636  2 O  s          
    44     -0.987329  2 O  py                14      0.907421  1 O  pz         
    70     -0.766384  4 H  s                 64      0.755339  3 H  s          
    12     -0.601604  1 O  px                 9      0.591371  1 O  px         
 
 Vector   33  Occ=0.000000D+00  E= 1.956074D+00
              MO Center= -8.4D+00,  2.8D+00,  1.4D-01, r^2= 1.9D+00
   Bfn.  Coefficient  Atom+Function         Bfn.  Coefficient  Atom+Function  
  ----- ------------  ---------------      ----- ------------  ---------------
    72     -0.733686  4 H  px                64      0.669454  3 H  s          
    70      0.666494  4 H  s                 67      0.522696  3 H  py         
    68      0.507587  3 H  pz                20      0.466979  1 O  d -2       
    55      0.371878  2 O  d  2               4     -0.368184  1 O  s          
    54     -0.354098  2 O  d  1               9      0.349708  1 O  px         
 
 Vector   34  Occ=0.000000D+00  E= 2.016548D+00
              MO Center= -8.3D+00,  2.6D+00,  9.2D-02, r^2= 1.9D+00
   Bfn.  Coefficient  Atom+Function         Bfn.  Coefficient  Atom+Function  
  ----- ------------  ---------------      ----- ------------  ---------------
    36     -1.144720  2 O  s                  5      1.113250  1 O  s          
    67      0.589138  3 H  py                20      0.582218  1 O  d -2       
    72      0.561923  4 H  px                70      0.557653  4 H  s          
    64     -0.550403  3 H  s                 13     -0.493727  1 O  py         
    44     -0.494575  2 O  py                54      0.469776  2 O  d  1       
 
 Vector   35  Occ=0.000000D+00  E= 2.070616D+00
              MO Center= -8.3D+00,  2.6D+00,  1.6D-01, r^2= 1.8D+00
   Bfn.  Coefficient  Atom+Function         Bfn.  Coefficient  Atom+Function  
  ----- ------------  ---------------      ----- ------------  ---------------
    64      0.787331  3 H  s                 55     -0.565326  2 O  d  2       
     4     -0.561192  1 O  s                 53     -0.561700  2 O  d  0       
    68      0.505237  3 H  pz                73     -0.473512  4 H  py         
    24     -0.434382  1 O  d  2              74      0.432105  4 H  pz         
    70     -0.429691  4 H  s                 23     -0.420054  1 O  d  1       
 
 Vector   36  Occ=0.000000D+00  E= 2.097477D+00
              MO Center= -8.2D+00,  2.7D+00, -5.1D-02, r^2= 2.1D+00
   Bfn.  Coefficient  Atom+Function         Bfn.  Coefficient  Atom+Function  
  ----- ------------  ---------------      ----- ------------  ---------------
    70      0.956937  4 H  s                 64      0.763139  3 H  s          
     9      0.726498  1 O  px                35     -0.664922  2 O  s          
    42     -0.650257  2 O  pz                66      0.571569  3 H  px         
     4     -0.523074  1 O  s                 22     -0.498057  1 O  d  0       
    73     -0.480940  4 H  py                41     -0.457099  2 O  py         
 
 Vector   37  Occ=0.000000D+00  E= 2.185455D+00
              MO Center= -8.4D+00,  2.8D+00,  1.5D-01, r^2= 2.3D+00
   Bfn.  Coefficient  Atom+Function         Bfn.  Coefficient  Atom+Function  
  ----- ------------  ---------------      ----- ------------  ---------------
    70     -1.553993  4 H  s                 64      1.489616  3 H  s          
     5     -1.338193  1 O  s                 36      1.323457  2 O  s          
    35      0.877879  2 O  s                  4     -0.856084  1 O  s          
    42      0.851535  2 O  pz                45     -0.776932  2 O  pz         
    66      0.714989  3 H  px                 9      0.693457  1 O  px         
 
 Vector   38  Occ=0.000000D+00  E= 2.229241D+00
              MO Center= -8.4D+00,  2.7D+00,  7.5D-02, r^2= 2.0D+00
   Bfn.  Coefficient  Atom+Function         Bfn.  Coefficient  Atom+Function  
  ----- ------------  ---------------      ----- ------------  ---------------
    64      1.390074  3 H  s                 70      1.289999  4 H  s          
     4     -0.776809  1 O  s                 35     -0.751264  2 O  s          
    42     -0.734743  2 O  pz                74     -0.658017  4 H  pz         
     9      0.618529  1 O  px                10     -0.602404  1 O  py         
    68      0.488571  3 H  pz                43     -0.442572  2 O  px         
 
 Vector   39  Occ=0.000000D+00  E= 2.386103D+00
              MO Center= -8.3D+00,  2.6D+00,  5.6D-02, r^2= 1.8D+00
   Bfn.  Coefficient  Atom+Function         Bfn.  Coefficient  Atom+Function  
  ----- ------------  ---------------      ----- ------------  ---------------
    70      1.145093  4 H  s                 64      0.980109  3 H  s          
    11      0.916800  1 O  pz                35     -0.814937  2 O  s          
     4     -0.678120  1 O  s                 38     -0.668433  2 O  py         
    74     -0.625077  4 H  pz                40     -0.591833  2 O  px         
    41      0.589163  2 O  py                44     -0.560435  2 O  py         
 
 Vector   40  Occ=0.000000D+00  E= 2.402128D+00
              MO Center= -8.3D+00,  2.7D+00, -7.3D-02, r^2= 1.9D+00
   Bfn.  Coefficient  Atom+Function         Bfn.  Coefficient  Atom+Function  
  ----- ------------  ---------------      ----- ------------  ---------------
    64      1.096309  3 H  s                  4     -0.807378  1 O  s          
    66      0.720153  3 H  px                45      0.667986  2 O  pz         
    12      0.648477  1 O  px                70     -0.649423  4 H  s          
     6      0.628324  1 O  px                40     -0.562038  2 O  px         
    14      0.552398  1 O  pz                74      0.540854  4 H  pz         
 
 Vector   41  Occ=0.000000D+00  E= 2.430392D+00
              MO Center= -8.3D+00,  2.6D+00,  1.0D-01, r^2= 1.4D+00
   Bfn.  Coefficient  Atom+Function         Bfn.  Coefficient  Atom+Function  
  ----- ------------  ---------------      ----- ------------  ---------------
    35      1.152495  2 O  s                  4      0.981732  1 O  s          
    70     -0.779225  4 H  s                 39      0.701199  2 O  pz         
    41      0.700023  2 O  py                64     -0.669083  3 H  s          
    34     -0.594503  2 O  s                 74      0.589105  4 H  pz         
     8     -0.567234  1 O  pz                10     -0.559684  1 O  py         
 
 Vector   42  Occ=0.000000D+00  E= 2.566384D+00
              MO Center= -8.3D+00,  2.6D+00,  3.1D-01, r^2= 1.7D+00
   Bfn.  Coefficient  Atom+Function         Bfn.  Coefficient  Atom+Function  
  ----- ------------  ---------------      ----- ------------  ---------------
    36      2.126094  2 O  s                 70     -1.820453  4 H  s          
    34      1.056187  2 O  s                 10      0.933441  1 O  py         
    35     -0.918586  2 O  s                 74      0.837098  4 H  pz         
    73      0.787412  4 H  py                64     -0.713212  3 H  s          
    44      0.615304  2 O  py                 7     -0.586539  1 O  py         
 
 Vector   43  Occ=0.000000D+00  E= 2.569301D+00
              MO Center= -8.5D+00,  2.9D+00, -7.8D-02, r^2= 1.5D+00
   Bfn.  Coefficient  Atom+Function         Bfn.  Coefficient  Atom+Function  
  ----- ------------  ---------------      ----- ------------  ---------------
     5      2.392697  1 O  s                 64     -1.591203  3 H  s          
     4     -1.113697  1 O  s                  3      1.095430  1 O  s          
    40     -1.082596  2 O  px                66     -1.021644  3 H  px         
    36     -0.982413  2 O  s                 37      0.727208  2 O  px         
    12     -0.708260  1 O  px                 9     -0.522034  1 O  px         
 
 Vector   44  Occ=0.000000D+00  E= 2.675373D+00
              MO Center= -8.1D+00,  2.3D+00, -4.5D-02, r^2= 1.5D+00
   Bfn.  Coefficient  Atom+Function         Bfn.  Coefficient  Atom+Function  
  ----- ------------  ---------------      ----- ------------  ---------------
    36     -2.761193  2 O  s                  5      2.543620  1 O  s          
    35      2.264029  2 O  s                  4     -1.908346  1 O  s          
    34     -1.467675  2 O  s                  3      1.239385  1 O  s          
    41     -0.989136  2 O  py                 9     -0.713055  1 O  px         
    11      0.642531  1 O  pz                13     -0.597503  1 O  py         
 
 Vector   45  Occ=0.000000D+00  E= 2.717611D+00
              MO Center= -8.3D+00,  2.7D+00,  4.2D-02, r^2= 1.7D+00
   Bfn.  Coefficient  Atom+Function         Bfn.  Coefficient  Atom+Function  
  ----- ------------  ---------------      ----- ------------  ---------------
     4      2.485978  1 O  s                 35      2.329295  2 O  s          
     5     -1.653424  1 O  s                  3     -1.632580  1 O  s          
    34     -1.510123  2 O  s                 36     -1.336441  2 O  s          
    40     -0.706272  2 O  px                 9      0.584734  1 O  px         
    10      0.458207  1 O  py                37      0.458668  2 O  px         
 
 Vector   46  Occ=0.000000D+00  E= 3.566168D+00
              MO Center= -8.4D+00,  2.8D+00,  7.0D-02, r^2= 1.7D+00
   Bfn.  Coefficient  Atom+Function         Bfn.  Coefficient  Atom+Function  
  ----- ------------  ---------------      ----- ------------  ---------------
     4      3.011004  1 O  s                 35     -2.844803  2 O  s          
     9     -1.707398  1 O  px                64     -1.538705  3 H  s          
    70      1.474418  4 H  s                  3     -1.461577  1 O  s          
    34      1.392518  2 O  s                 42     -1.266815  2 O  pz         
    66     -1.187179  3 H  px                41     -1.105254  2 O  py         
 
 Vector   47  Occ=0.000000D+00  E= 3.611151D+00
              MO Center= -8.4D+00,  2.7D+00,  1.5D-01, r^2= 1.6D+00
   Bfn.  Coefficient  Atom+Function         Bfn.  Coefficient  Atom+Function  
  ----- ------------  ---------------      ----- ------------  ---------------
     4      2.525740  1 O  s                 35      2.530269  2 O  s          
     9     -1.657603  1 O  px                42      1.563581  2 O  pz         
    70     -1.353292  4 H  s                 64     -1.272047  3 H  s          
     3     -1.170327  1 O  s                 34     -1.128974  2 O  s          
    66     -1.055218  3 H  px                41      0.970958  2 O  py         
 
 Vector   48  Occ=0.000000D+00  E= 3.847538D+00
              MO Center= -8.3D+00,  2.6D+00,  1.2D-02, r^2= 9.4D-01
   Bfn.  Coefficient  Atom+Function         Bfn.  Coefficient  Atom+Function  
  ----- ------------  ---------------      ----- ------------  ---------------
    35      1.558867  2 O  s                 42     -1.555125  2 O  pz         
    11     -1.476168  1 O  pz                 4     -1.372034  1 O  s          
    10      1.161611  1 O  py                34     -1.146917  2 O  s          
     3      1.056563  1 O  s                 41      0.874968  2 O  py         
    52     -0.765301  2 O  d -1              21      0.584656  1 O  d -1       
 
 Vector   49  Occ=0.000000D+00  E= 4.660064D+00
              MO Center= -8.2D+00,  2.6D+00,  2.7D-02, r^2= 1.0D+00
   Bfn.  Coefficient  Atom+Function         Bfn.  Coefficient  Atom+Function  
  ----- ------------  ---------------      ----- ------------  ---------------
    30      0.331370  1 O  f  2              28      0.329471  1 O  f  0       
    26      0.327143  1 O  f -2              57      0.306113  2 O  f -2       
    59      0.303873  2 O  f  0              60      0.290390  2 O  f  1       
    61      0.289864  2 O  f  2              25     -0.279959  1 O  f -3       
    56     -0.273729  2 O  f -3              35     -0.268304  2 O  s          
 
 Vector   50  Occ=0.000000D+00  E= 4.720225D+00
              MO Center= -8.3D+00,  2.6D+00,  2.4D-02, r^2= 9.6D-01
   Bfn.  Coefficient  Atom+Function         Bfn.  Coefficient  Atom+Function  
  ----- ------------  ---------------      ----- ------------  ---------------
    27      0.442228  1 O  f -1              58     -0.417409  2 O  f -1       
    61     -0.354681  2 O  f  2              57      0.333341  2 O  f -2       
    31      0.286451  1 O  f  3              26     -0.268266  1 O  f -2       
    30      0.262980  1 O  f  2              36     -0.246496  2 O  s          
     5     -0.233919  1 O  s                  4      0.171898  1 O  s          
 
 Vector   51  Occ=0.000000D+00  E= 4.743302D+00
              MO Center= -8.2D+00,  2.6D+00,  3.0D-02, r^2= 1.1D+00
   Bfn.  Coefficient  Atom+Function         Bfn.  Coefficient  Atom+Function  
  ----- ------------  ---------------      ----- ------------  ---------------
    35      0.538736  2 O  s                  4     -0.473119  1 O  s          
    62     -0.468293  2 O  f  3              26      0.463580  1 O  f -2       
     9      0.402239  1 O  px                27      0.378064  1 O  f -1       
    59     -0.374553  2 O  f  0              28     -0.294087  1 O  f  0       
    41      0.284380  2 O  py                42      0.263989  2 O  pz         
 
 Vector   52  Occ=0.000000D+00  E= 4.842761D+00
              MO Center= -8.2D+00,  2.6D+00,  2.1D-02, r^2= 1.0D+00
   Bfn.  Coefficient  Atom+Function         Bfn.  Coefficient  Atom+Function  
  ----- ------------  ---------------      ----- ------------  ---------------
    29      0.522464  1 O  f  1              56     -0.469001  2 O  f -3       
    60     -0.433148  2 O  f  1              25      0.297600  1 O  f -3       
    28     -0.226980  1 O  f  0              62     -0.197951  2 O  f  3       
    31      0.185857  1 O  f  3              61      0.149999  2 O  f  2       
    27     -0.141777  1 O  f -1              57     -0.101354  2 O  f -2       
 
 Vector   53  Occ=0.000000D+00  E= 4.945101D+00
              MO Center= -8.3D+00,  2.6D+00,  1.5D-02, r^2= 1.1D+00
   Bfn.  Coefficient  Atom+Function         Bfn.  Coefficient  Atom+Function  
  ----- ------------  ---------------      ----- ------------  ---------------
    31      0.549543  1 O  f  3              56      0.439763  2 O  f -3       
    59      0.399981  2 O  f  0              28     -0.339566  1 O  f  0       
    27     -0.260656  1 O  f -1              62     -0.254319  2 O  f  3       
    42      0.217488  2 O  pz                11      0.216400  1 O  pz         
    58      0.174225  2 O  f -1              73      0.167036  4 H  py         
 
 Vector   54  Occ=0.000000D+00  E= 5.187599D+00
              MO Center= -8.3D+00,  2.6D+00, -1.7D-02, r^2= 1.0D+00
   Bfn.  Coefficient  Atom+Function         Bfn.  Coefficient  Atom+Function  
  ----- ------------  ---------------      ----- ------------  ---------------
    25      0.625386  1 O  f -3              56      0.410319  2 O  f -3       
    30      0.339897  1 O  f  2              62      0.317667  2 O  f  3       
    61      0.270365  2 O  f  2              59     -0.257729  2 O  f  0       
    67     -0.220953  3 H  py                57      0.187971  2 O  f -2       
    72     -0.182165  4 H  px                15     -0.169537  1 O  d -2       
 
 Vector   55  Occ=0.000000D+00  E= 5.250504D+00
              MO Center= -8.3D+00,  2.4D+00,  3.6D-01, r^2= 8.8D-01
   Bfn.  Coefficient  Atom+Function         Bfn.  Coefficient  Atom+Function  
  ----- ------------  ---------------      ----- ------------  ---------------
    61      0.489002  2 O  f  2              60     -0.471087  2 O  f  1       
    56      0.449310  2 O  f -3              25     -0.320285  1 O  f -3       
    57      0.264857  2 O  f -2              72     -0.257156  4 H  px         
    30     -0.249301  1 O  f  2              58     -0.225546  2 O  f -1       
    73      0.173764  4 H  py                29      0.169476  1 O  f  1       
 
 Vector   56  Occ=0.000000D+00  E= 5.258074D+00
              MO Center= -8.2D+00,  2.8D+00, -2.5D-01, r^2= 9.2D-01
   Bfn.  Coefficient  Atom+Function         Bfn.  Coefficient  Atom+Function  
  ----- ------------  ---------------      ----- ------------  ---------------
    29      0.701026  1 O  f  1              60      0.463578  2 O  f  1       
    30     -0.319295  1 O  f  2              26     -0.285551  1 O  f -2       
    27      0.282073  1 O  f -1              68      0.264614  3 H  pz         
    58      0.226812  2 O  f -1               9      0.151355  1 O  px         
     4     -0.135771  1 O  s                 18     -0.098966  1 O  d  1       
 
 Vector   57  Occ=0.000000D+00  E= 5.283937D+00
              MO Center= -8.3D+00,  2.6D+00,  6.1D-02, r^2= 9.8D-01
   Bfn.  Coefficient  Atom+Function         Bfn.  Coefficient  Atom+Function  
  ----- ------------  ---------------      ----- ------------  ---------------
    62      0.593175  2 O  f  3              31      0.444148  1 O  f  3       
    28     -0.385084  1 O  f  0              25     -0.340189  1 O  f -3       
    59     -0.322414  2 O  f  0              58     -0.210915  2 O  f -1       
     9     -0.209181  1 O  px                74      0.210010  4 H  pz         
    67      0.189708  3 H  py                35      0.185025  2 O  s          
 
 Vector   58  Occ=0.000000D+00  E= 5.563404D+00
              MO Center= -8.2D+00,  2.6D+00,  2.2D-02, r^2= 9.6D-01
   Bfn.  Coefficient  Atom+Function         Bfn.  Coefficient  Atom+Function  
  ----- ------------  ---------------      ----- ------------  ---------------
    35      0.646483  2 O  s                 59      0.628153  2 O  f  0       
    42      0.531649  2 O  pz                70     -0.459148  4 H  s          
    26      0.399363  1 O  f -2               4      0.391253  1 O  s          
    27      0.378535  1 O  f -1              41      0.336618  2 O  py         
     9     -0.310380  1 O  px                73      0.301813  4 H  py         
 
 Vector   59  Occ=0.000000D+00  E= 5.596199D+00
              MO Center= -8.2D+00,  2.6D+00,  1.3D-02, r^2= 8.9D-01
   Bfn.  Coefficient  Atom+Function         Bfn.  Coefficient  Atom+Function  
  ----- ------------  ---------------      ----- ------------  ---------------
     9     -0.485842  1 O  px                 4      0.452822  1 O  s          
    57     -0.427246  2 O  f -2              26      0.418426  1 O  f -2       
    64     -0.361460  3 H  s                 66     -0.350507  3 H  px         
    28      0.343152  1 O  f  0              61     -0.312968  2 O  f  2       
    49      0.310703  2 O  d  1              29      0.297594  1 O  f  1       
 
 Vector   60  Occ=0.000000D+00  E= 5.850517D+00
              MO Center= -8.3D+00,  2.7D+00,  4.0D-03, r^2= 1.0D+00
   Bfn.  Coefficient  Atom+Function         Bfn.  Coefficient  Atom+Function  
  ----- ------------  ---------------      ----- ------------  ---------------
     4      0.727247  1 O  s                  9     -0.683027  1 O  px         
    42     -0.628560  2 O  pz                35     -0.619544  2 O  s          
    47     -0.531996  2 O  d -1              66     -0.524828  3 H  px         
    63     -0.496076  3 H  s                 69      0.445076  4 H  s          
    64     -0.419908  3 H  s                 74     -0.418678  4 H  pz         
 
 Vector   61  Occ=0.000000D+00  E= 5.949479D+00
              MO Center= -8.3D+00,  2.6D+00,  1.2D-01, r^2= 1.0D+00
   Bfn.  Coefficient  Atom+Function         Bfn.  Coefficient  Atom+Function  
  ----- ------------  ---------------      ----- ------------  ---------------
    35      1.037583  2 O  s                  4      0.902130  1 O  s          
     9     -0.685524  1 O  px                42      0.647406  2 O  pz         
    69     -0.517961  4 H  s                 74      0.511918  4 H  pz         
    66     -0.505911  3 H  px                41      0.469533  2 O  py         
    63     -0.466940  3 H  s                 70     -0.459294  4 H  s          
 
 Vector   62  Occ=0.000000D+00  E= 6.097844D+00
              MO Center= -8.2D+00,  2.6D+00,  1.2D-02, r^2= 8.9D-01
   Bfn.  Coefficient  Atom+Function         Bfn.  Coefficient  Atom+Function  
  ----- ------------  ---------------      ----- ------------  ---------------
     5      1.252960  1 O  s                 36     -1.249666  2 O  s          
     4     -0.977120  1 O  s                 35      0.953896  2 O  s          
    16      0.696327  1 O  d -1              48      0.572542  2 O  d  0       
     3      0.438128  1 O  s                 34     -0.428364  2 O  s          
    44     -0.430059  2 O  py                14      0.385800  1 O  pz         
 
 Vector   63  Occ=0.000000D+00  E= 6.115813D+00
              MO Center= -8.2D+00,  2.6D+00,  5.2D-03, r^2= 8.9D-01
   Bfn.  Coefficient  Atom+Function         Bfn.  Coefficient  Atom+Function  
  ----- ------------  ---------------      ----- ------------  ---------------
    50      0.596013  2 O  d  2              19     -0.520227  1 O  d  2       
    18     -0.508763  1 O  d  1              17     -0.343552  1 O  d  0       
    49      0.336534  2 O  d  1              55     -0.294868  2 O  d  2       
    48      0.284653  2 O  d  0              23      0.278858  1 O  d  1       
    46      0.252636  2 O  d -2              24      0.240801  1 O  d  2       
 
 Vector   64  Occ=0.000000D+00  E= 6.167793D+00
              MO Center= -8.2D+00,  2.5D+00,  1.5D-02, r^2= 9.1D-01
   Bfn.  Coefficient  Atom+Function         Bfn.  Coefficient  Atom+Function  
  ----- ------------  ---------------      ----- ------------  ---------------
    15      0.753623  1 O  d -2              49     -0.600839  2 O  d  1       
    20     -0.419860  1 O  d -2              54      0.408430  2 O  d  1       
    47     -0.360726  2 O  d -1              50      0.350690  2 O  d  2       
    64      0.317091  3 H  s                  4     -0.270228  1 O  s          
    35     -0.260517  2 O  s                  9      0.252063  1 O  px         
 
 Vector   65  Occ=0.000000D+00  E= 6.198004D+00
              MO Center= -8.2D+00,  2.6D+00, -1.9D-02, r^2= 9.0D-01
   Bfn.  Coefficient  Atom+Function         Bfn.  Coefficient  Atom+Function  
  ----- ------------  ---------------      ----- ------------  ---------------
    17      0.653283  1 O  d  0              46      0.621628  2 O  d -2       
    36     -0.473294  2 O  s                  5      0.433672  1 O  s          
    48     -0.404945  2 O  d  0              51     -0.387939  2 O  d -2       
    18     -0.348167  1 O  d  1              22     -0.347137  1 O  d  0       
    16      0.290499  1 O  d -1              70      0.254056  4 H  s          
 
 Vector   66  Occ=0.000000D+00  E= 6.251282D+00
              MO Center= -8.2D+00,  2.6D+00,  2.7D-02, r^2= 9.4D-01
   Bfn.  Coefficient  Atom+Function         Bfn.  Coefficient  Atom+Function  
  ----- ------------  ---------------      ----- ------------  ---------------
    15      0.610301  1 O  d -2              50     -0.493107  2 O  d  2       
    18     -0.486475  1 O  d  1              20     -0.438308  1 O  d -2       
    46     -0.430910  2 O  d -2              49      0.407414  2 O  d  1       
    55      0.347214  2 O  d  2               4      0.316989  1 O  s          
    35     -0.307795  2 O  s                 47      0.271455  2 O  d -1       
 
 Vector   67  Occ=0.000000D+00  E= 6.514954D+00
              MO Center= -8.3D+00,  2.6D+00,  3.6D-02, r^2= 1.0D+00
   Bfn.  Coefficient  Atom+Function         Bfn.  Coefficient  Atom+Function  
  ----- ------------  ---------------      ----- ------------  ---------------
    64      0.832877  3 H  s                 70      0.774321  4 H  s          
     9      0.662676  1 O  px                16     -0.623498  1 O  d -1       
    46      0.621491  2 O  d -2              42     -0.599005  2 O  pz         
    51     -0.562302  2 O  d -2              24     -0.509052  1 O  d  2       
     4     -0.427946  1 O  s                 66      0.422555  3 H  px         
 
 Vector   68  Occ=0.000000D+00  E= 6.614793D+00
              MO Center= -8.3D+00,  2.6D+00,  4.9D-02, r^2= 1.1D+00
   Bfn.  Coefficient  Atom+Function         Bfn.  Coefficient  Atom+Function  
  ----- ------------  ---------------      ----- ------------  ---------------
    70      0.917048  4 H  s                 24      0.851066  1 O  d  2       
    64     -0.854867  3 H  s                 35     -0.812984  2 O  s          
     4      0.792685  1 O  s                  9     -0.763912  1 O  px         
    19     -0.719276  1 O  d  2              36     -0.632195  2 O  s          
    54      0.622840  2 O  d  1              42     -0.601712  2 O  pz         
 
 Vector   69  Occ=0.000000D+00  E= 6.752996D+00
              MO Center= -8.2D+00,  2.6D+00,  3.6D-02, r^2= 1.0D+00
   Bfn.  Coefficient  Atom+Function         Bfn.  Coefficient  Atom+Function  
  ----- ------------  ---------------      ----- ------------  ---------------
    17      0.649424  1 O  d  0              48      0.648341  2 O  d  0       
    22     -0.637335  1 O  d  0              53     -0.616780  2 O  d  0       
    47     -0.437889  2 O  d -1              16     -0.360143  1 O  d -1       
    51      0.315998  2 O  d -2               9     -0.303362  1 O  px         
    52      0.292714  2 O  d -1              64     -0.293100  3 H  s          
 
 Vector   70  Occ=0.000000D+00  E= 6.817367D+00
              MO Center= -8.2D+00,  2.6D+00,  1.8D-02, r^2= 1.2D+00
   Bfn.  Coefficient  Atom+Function         Bfn.  Coefficient  Atom+Function  
  ----- ------------  ---------------      ----- ------------  ---------------
    35     -1.144343  2 O  s                  4      1.042249  1 O  s          
    70      0.975669  4 H  s                 64     -0.884473  3 H  s          
     9     -0.768915  1 O  px                23     -0.752516  1 O  d  1       
    42     -0.739060  2 O  pz                52     -0.734473  2 O  d -1       
    66     -0.650689  3 H  px                69      0.645467  4 H  s          
 
 Vector   71  Occ=0.000000D+00  E= 7.022951D+00
              MO Center= -8.2D+00,  2.6D+00, -9.4D-03, r^2= 1.1D+00
   Bfn.  Coefficient  Atom+Function         Bfn.  Coefficient  Atom+Function  
  ----- ------------  ---------------      ----- ------------  ---------------
    35      1.304662  2 O  s                  4      1.296822  1 O  s          
    64     -0.893689  3 H  s                  9     -0.847271  1 O  px         
    70     -0.827068  4 H  s                 23     -0.722472  1 O  d  1       
    52      0.722360  2 O  d -1              63     -0.702058  3 H  s          
    69     -0.656565  4 H  s                 66     -0.652313  3 H  px         
 
 Vector   72  Occ=0.000000D+00  E= 7.714778D+00
              MO Center= -8.2D+00,  2.6D+00,  2.6D-02, r^2= 1.1D+00
   Bfn.  Coefficient  Atom+Function         Bfn.  Coefficient  Atom+Function  
  ----- ------------  ---------------      ----- ------------  ---------------
    42      1.642293  2 O  pz                 4      1.633759  1 O  s          
    35     -1.550024  2 O  s                 11      1.520678  1 O  pz         
    52      1.403353  2 O  d -1              10     -1.279198  1 O  py         
    21     -1.233629  1 O  d -1              41     -1.106111  2 O  py         
     3     -1.098389  1 O  s                 34      1.065069  2 O  s          
 
 Vector   73  Occ=0.000000D+00  E= 4.266742D+01
              MO Center= -8.2D+00,  2.6D+00,  2.3D-02, r^2= 6.6D-01
   Bfn.  Coefficient  Atom+Function         Bfn.  Coefficient  Atom+Function  
  ----- ------------  ---------------      ----- ------------  ---------------
     2      1.193577  1 O  s                 33      1.197118  2 O  s          
    35      1.094203  2 O  s                  4      1.087042  1 O  s          
     3     -1.057632  1 O  s                 34     -1.061711  2 O  s          
     1     -0.980798  1 O  s                 32     -0.983676  2 O  s          
    36     -0.473023  2 O  s                  5     -0.464534  1 O  s          
 
 Vector   74  Occ=0.000000D+00  E= 4.314236D+01
              MO Center= -8.2D+00,  2.6D+00,  1.9D-02, r^2= 6.6D-01
   Bfn.  Coefficient  Atom+Function         Bfn.  Coefficient  Atom+Function  
  ----- ------------  ---------------      ----- ------------  ---------------
     4      1.435200  1 O  s                 35     -1.428751  2 O  s          
     3     -1.256375  1 O  s                 34      1.252625  2 O  s          
     2      1.217863  1 O  s                 33     -1.214341  2 O  s          
     1     -0.986899  1 O  s                 32      0.984022  2 O  s          
     5     -0.673398  1 O  s                 36      0.668428  2 O  s          
 

 center of mass
 --------------
 x = -15.61131364 y =   4.91631909 z =   0.05853715

 moments of inertia (a.u.)
 ------------------
          70.174120697465          -8.571036685293           8.928861567803
          -8.571036685293          49.293257369593          31.282229551717
           8.928861567803          31.282229551717          32.543889225818
 
     Multipole analysis of the density
     ---------------------------------
 
     L   x y z        total         alpha         beta         nuclear
     -   - - -        -----         -----         ----         -------
     0   0 0 0      0.000000     -9.000000     -9.000000     18.000000
 
     1   1 0 0     -0.392152    140.556165    140.556165   -281.504481
     1   0 1 0      0.492658    -44.324878    -44.324878     89.142413
     1   0 0 1      0.259851     -0.560734     -0.560734      1.381318
 
     2   2 0 0      3.472391  -2201.378396  -2201.378396   4406.229184
     2   1 1 0    -10.403507    690.078975    690.078975  -1390.561456
     2   1 0 1     -2.428131     11.093765     11.093765    -24.615660
     2   0 2 0     -4.656664   -230.097991   -230.097991    455.539318
     2   0 1 1      1.229220      5.504004      5.504004     -9.778787
     2   0 0 2     -6.402977    -16.383287    -16.383287     26.363597
 
 
            General Information
            -------------------
          SCF calculation type: DFT
          Wavefunction type:  closed shell.
          No. of atoms     :     4
          No. of electrons :    18
           Alpha electrons :     9
            Beta electrons :     9
          Charge           :     0
          Spin multiplicity:     1
          Use of symmetry is: off; symmetry adaption is: off
          Maximum number of iterations: 250
          This is a Direct SCF calculation.
          AO basis - number of functions:    74
                     number of shells:    30
          Convergence on energy requested:  1.00D-08
          Convergence on density requested:  1.00D-05
          Convergence on gradient requested:  1.00D-08
 
              XC Information
              --------------
                    Becke 1988 Exchange Functional  1.000          
              Lee-Yang-Parr Correlation Functional  1.000          
 
             Grid Information
             ----------------
          Grid used for XC integration:  xfine     
          Radial quadrature: Mura-Knowles        
          Angular quadrature: Lebedev. 
          Tag              B.-S. Rad. Rad. Pts. Rad. Cut. Ang. Pts.
          ---              ---------- --------- --------- ---------
          O                   0.60      100           8.0      1454
          H                   0.35      100           9.0      1202
          Grid pruning is: on 
          Number of quadrature shells:   400
          Spatial weights used:  Erf1
 
          Convergence Information
          -----------------------
          Convergence aids based upon iterative change in 
          total energy or number of iterations. 
          Levelshifting, if invoked, occurs when the 
          HOMO/LUMO gap drops below (HL_TOL):  1.00D-02
          DIIS, if invoked, will attempt to extrapolate 
          using up to (NFOCK): 10 stored Fock matrices.

                    Damping( 0%)  Levelshifting(0.0)       DIIS
                  --------------- ------------------- ---------------
          dE  on:    start             N/A                start   
          dE off:    2 iters           N/A              250 iters 

 
      Screening Tolerance Information
      -------------------------------
          Density screening/tol_rho:  1.00D-11
          AO Gaussian exp screening on grid/accAOfunc:  18
          CD Gaussian exp screening on grid/accCDfunc:  20
          XC Gaussian exp screening on grid/accXCfunc:  20
          Schwarz screening/accCoul:  1.00D-09

 
 
                            NWChem DFT Gradient Module
                            --------------------------
 
 
                         h2o2 roa calculations at 514.5 nm, input generated by va with delta_type=2
 
 

  charge          =   0.00
  wavefunction    = closed shell



                         DFT ENERGY GRADIENTS

    atom               coordinates                        gradient
                 x          y          z           x          y          z
   1 O     -15.221756   5.761956  -0.997010   -0.001672  -0.000400   0.002413
   2 O     -15.937238   3.988267   1.072455    0.000189  -0.002841   0.000661
   3 H     -16.885004   6.132106  -1.721529    0.000729   0.001469  -0.001683
   4 H     -15.347521   5.008526   2.499284    0.000755   0.001772  -0.001391
 
                 ----------------------------------------
                 |  Time  |  1-e(secs)   |  2-e(secs)   |
                 ----------------------------------------
                 |  CPU   |       0.01   |       2.22   |
                 ----------------------------------------
                 |  WALL  |       0.01   |       2.22   |
                 ----------------------------------------

 Task  times  cpu:       37.8s     wall:       39.0s
 
 
                                NWChem Input Module
                                -------------------
 
 
                              NWChem Property Module
                              ----------------------
 
 
                         h2o2 roa calculations at 514.5 nm, input generated by va with delta_type=2
 
 
                                 NWChem DFT Module
                                 -----------------
 
 
                         h2o2 roa calculations at 514.5 nm, input generated by va with delta_type=2
 
 


 Summary of "ao basis" -> "ao basis" (spherical)
 ------------------------------------------------------------------------------
       Tag                 Description            Shells   Functions and Types
 ---------------- ------------------------------  ------  ---------------------
 O                         def2-TZVP                11       31   5s3p2d1f
 H                         def2-TZVP                 4        6   3s1p


  Caching 1-el integrals 
 
            General Information
            -------------------
          SCF calculation type: DFT
          Wavefunction type:  closed shell.
          No. of atoms     :     4
          No. of electrons :    18
           Alpha electrons :     9
            Beta electrons :     9
          Charge           :     0
          Spin multiplicity:     1
          Use of symmetry is: off; symmetry adaption is: off
          Maximum number of iterations: 250
          This is a Direct SCF calculation.
          AO basis - number of functions:    74
                     number of shells:    30
          Convergence on energy requested:  1.00D-08
          Convergence on density requested:  1.00D-05
          Convergence on gradient requested:  1.00D-08
 
              XC Information
              --------------
                    Becke 1988 Exchange Functional  1.000          
              Lee-Yang-Parr Correlation Functional  1.000          
 
             Grid Information
             ----------------
          Grid used for XC integration:  xfine     
          Radial quadrature: Mura-Knowles        
          Angular quadrature: Lebedev. 
          Tag              B.-S. Rad. Rad. Pts. Rad. Cut. Ang. Pts.
          ---              ---------- --------- --------- ---------
          O                   0.60      100           8.0      1454
          H                   0.35      100           9.0      1202
          Grid pruning is: on 
          Number of quadrature shells:   400
          Spatial weights used:  Erf1
 
          Convergence Information
          -----------------------
          Convergence aids based upon iterative change in 
          total energy or number of iterations. 
          Levelshifting, if invoked, occurs when the 
          HOMO/LUMO gap drops below (HL_TOL):  1.00D-02
          DIIS, if invoked, will attempt to extrapolate 
          using up to (NFOCK): 10 stored Fock matrices.

                    Damping( 0%)  Levelshifting(0.0)       DIIS
                  --------------- ------------------- ---------------
          dE  on:    start             N/A                start   
          dE off:    2 iters           N/A              250 iters 

 
      Screening Tolerance Information
      -------------------------------
          Density screening/tol_rho:  1.00D-11
          AO Gaussian exp screening on grid/accAOfunc:  18
          CD Gaussian exp screening on grid/accCDfunc:  20
          XC Gaussian exp screening on grid/accXCfunc:  20
          Schwarz screening/accCoul:  1.00D-09


 Loading old vectors from job with title :

h2o2 roa calculations at 514.5 nm, input generated by va with delta_type=2

   Time after variat. SCF:     39.6
   Time prior to 1st pass:     39.6

 Grid_pts file          = ./h2o2_514.5_03.inp.gridpts.0
 Record size in doubles =  12289        No. of grid_pts per rec  =   3070
 Max. records in memory =    210        Max. recs in file   =   3881480


           Memory utilization after 1st SCF pass: 
           Heap Space remaining (MW):       10.52            10522928
          Stack Space remaining (MW):       13.11            13106668

   convergence    iter        energy       DeltaE   RMS-Dens  Diis-err    time
 ---------------- ----- ----------------- --------- --------- ---------  ------
 d= 0,ls=0.0,diis     1   -151.6010500614 -1.88D+02  1.97D-08  1.39D-12    43.2
 d= 0,ls=0.0,diis     2   -151.6010500614  1.62D-12  8.17D-09  1.09D-12    46.6


         Total DFT energy =     -151.601050061415
      One electron energy =     -279.861952826638
           Coulomb energy =      110.072025714200
    Exchange-Corr. energy =      -17.811682532315
 Nuclear repulsion energy =       36.000559583339

 Numeric. integr. density =       17.999999997497

     Total iterative time =      6.9s


 
                       DFT Final Molecular Orbital Analysis
                       ------------------------------------
 
 Vector    1  Occ=2.000000D+00  E=-1.883237D+01
              MO Center= -8.4D+00,  2.1D+00,  5.7D-01, r^2= 1.6D-02
   Bfn.  Coefficient  Atom+Function         Bfn.  Coefficient  Atom+Function  
  ----- ------------  ---------------      ----- ------------  ---------------
    33      0.638694  2 O  s                 32      0.435351  2 O  s          
    34      0.037175  2 O  s                 35     -0.025123  2 O  s          
 
 Vector    2  Occ=2.000000D+00  E=-1.883145D+01
              MO Center= -8.1D+00,  3.0D+00, -5.3D-01, r^2= 1.6D-02
   Bfn.  Coefficient  Atom+Function         Bfn.  Coefficient  Atom+Function  
  ----- ------------  ---------------      ----- ------------  ---------------
     2      0.638696  1 O  s                  1      0.435351  1 O  s          
     3      0.037133  1 O  s                  4     -0.025038  1 O  s          
 
 Vector    3  Occ=2.000000D+00  E=-1.007970D+00
              MO Center= -8.3D+00,  2.6D+00,  5.6D-02, r^2= 8.2D-01
   Bfn.  Coefficient  Atom+Function         Bfn.  Coefficient  Atom+Function  
  ----- ------------  ---------------      ----- ------------  ---------------
     4      0.312075  1 O  s                 35      0.313244  2 O  s          
     3      0.238698  1 O  s                 34      0.239792  2 O  s          
     2     -0.162693  1 O  s                 33     -0.163350  2 O  s          
     5      0.096903  1 O  s                 36      0.096760  2 O  s          
    38      0.072282  2 O  py                 1     -0.069901  1 O  s          
 
 Vector    4  Occ=2.000000D+00  E=-8.190986D-01
              MO Center= -8.3D+00,  2.7D+00,  6.1D-02, r^2= 1.3D+00
   Bfn.  Coefficient  Atom+Function         Bfn.  Coefficient  Atom+Function  
  ----- ------------  ---------------      ----- ------------  ---------------
     4      0.327790  1 O  s                 35     -0.325982  2 O  s          
     3      0.254870  1 O  s                 34     -0.253279  2 O  s          
     2     -0.167773  1 O  s                 33      0.166706  2 O  s          
     5      0.141467  1 O  s                 36     -0.140504  2 O  s          
    63      0.091619  3 H  s                 69     -0.090101  4 H  s          
 
 Vector    5  Occ=2.000000D+00  E=-4.735243D-01
              MO Center= -8.3D+00,  2.7D+00,  5.1D-02, r^2= 1.3D+00
   Bfn.  Coefficient  Atom+Function         Bfn.  Coefficient  Atom+Function  
  ----- ------------  ---------------      ----- ------------  ---------------
    39      0.308487  2 O  pz                42      0.241674  2 O  pz         
     7      0.209382  1 O  py                 8     -0.200925  1 O  pz         
    10      0.168343  1 O  py                11     -0.158696  1 O  pz         
    64      0.133387  3 H  s                 70      0.127795  4 H  s          
     6     -0.122170  1 O  px                45      0.110498  2 O  pz         
 
 Vector    6  Occ=2.000000D+00  E=-4.331372D-01
              MO Center= -8.3D+00,  2.6D+00,  6.6D-02, r^2= 1.3D+00
   Bfn.  Coefficient  Atom+Function         Bfn.  Coefficient  Atom+Function  
  ----- ------------  ---------------      ----- ------------  ---------------
     6      0.244847  1 O  px                 9      0.182788  1 O  px         
    37      0.176963  2 O  px                38      0.161111  2 O  py         
    36     -0.159766  2 O  s                 35     -0.158503  2 O  s          
    39      0.156967  2 O  pz                 4      0.149106  1 O  s          
     5      0.148080  1 O  s                 70      0.140004  4 H  s          
 
 Vector    7  Occ=2.000000D+00  E=-3.654129D-01
              MO Center= -8.2D+00,  2.5D+00, -3.1D-02, r^2= 1.3D+00
   Bfn.  Coefficient  Atom+Function         Bfn.  Coefficient  Atom+Function  
  ----- ------------  ---------------      ----- ------------  ---------------
    38      0.314513  2 O  py                 6     -0.247238  1 O  px         
    41      0.246033  2 O  py                 8      0.210027  1 O  pz         
     9     -0.189361  1 O  px                11      0.170040  1 O  pz         
    44      0.162244  2 O  py                 5     -0.133347  1 O  s          
    36     -0.129221  2 O  s                 12     -0.123358  1 O  px         
 
 Vector    8  Occ=2.000000D+00  E=-2.755433D-01
              MO Center= -8.3D+00,  2.6D+00,  4.9D-02, r^2= 1.3D+00
   Bfn.  Coefficient  Atom+Function         Bfn.  Coefficient  Atom+Function  
  ----- ------------  ---------------      ----- ------------  ---------------
    37      0.343313  2 O  px                 7     -0.268908  1 O  py         
    40      0.267140  2 O  px                10     -0.215421  1 O  py         
    43      0.213452  2 O  px                13     -0.172228  1 O  py         
     8     -0.161978  1 O  pz                 6     -0.149789  1 O  px         
     5     -0.124873  1 O  s                 11     -0.121188  1 O  pz         
 
 Vector    9  Occ=2.000000D+00  E=-2.307301D-01
              MO Center= -8.2D+00,  2.6D+00,  4.6D-03, r^2= 1.2D+00
   Bfn.  Coefficient  Atom+Function         Bfn.  Coefficient  Atom+Function  
  ----- ------------  ---------------      ----- ------------  ---------------
    37      0.282831  2 O  px                 7      0.273382  1 O  py         
    40      0.223274  2 O  px                38     -0.214803  2 O  py         
    10      0.213285  1 O  py                 8      0.205412  1 O  pz         
    43      0.205366  2 O  px                13      0.188758  1 O  py         
    41     -0.164163  2 O  py                11      0.162079  1 O  pz         
 
 Vector   10  Occ=0.000000D+00  E=-6.031295D-02
              MO Center= -8.3D+00,  2.6D+00,  3.5D-02, r^2= 1.8D+00
   Bfn.  Coefficient  Atom+Function         Bfn.  Coefficient  Atom+Function  
  ----- ------------  ---------------      ----- ------------  ---------------
     5      0.512320  1 O  s                 36     -0.486106  2 O  s          
    44     -0.322329  2 O  py                65     -0.307400  3 H  s          
    14      0.291496  1 O  pz                13     -0.284041  1 O  py         
    45      0.283209  2 O  pz                71      0.276606  4 H  s          
     8      0.257158  1 O  pz                38     -0.254519  2 O  py         
 
 Vector   11  Occ=0.000000D+00  E=-3.897643D-03
              MO Center= -8.6D+00,  3.1D+00,  2.9D-01, r^2= 4.3D+00
[...]
    64      0.832877  3 H  s                 70      0.774321  4 H  s          
     9      0.662676  1 O  px                16     -0.623498  1 O  d -1       
    46      0.621491  2 O  d -2              42     -0.599005  2 O  pz         
    51     -0.562302  2 O  d -2              24     -0.509052  1 O  d  2       
     4     -0.427946  1 O  s                 66      0.422555  3 H  px         
 
 Vector   68  Occ=0.000000D+00  E= 6.614793D+00
              MO Center= -8.3D+00,  2.6D+00,  4.9D-02, r^2= 1.1D+00
   Bfn.  Coefficient  Atom+Function         Bfn.  Coefficient  Atom+Function  
  ----- ------------  ---------------      ----- ------------  ---------------
    70      0.917048  4 H  s                 24      0.851066  1 O  d  2       
    64     -0.854867  3 H  s                 35     -0.812984  2 O  s          
     4      0.792685  1 O  s                  9     -0.763912  1 O  px         
    19     -0.719276  1 O  d  2              36     -0.632195  2 O  s          
    54      0.622840  2 O  d  1              42     -0.601712  2 O  pz         
 
 Vector   69  Occ=0.000000D+00  E= 6.752996D+00
              MO Center= -8.2D+00,  2.6D+00,  3.6D-02, r^2= 1.0D+00
   Bfn.  Coefficient  Atom+Function         Bfn.  Coefficient  Atom+Function  
  ----- ------------  ---------------      ----- ------------  ---------------
    17      0.649424  1 O  d  0              48      0.648341  2 O  d  0       
    22     -0.637335  1 O  d  0              53     -0.616780  2 O  d  0       
    47     -0.437889  2 O  d -1              16     -0.360143  1 O  d -1       
    51      0.315998  2 O  d -2               9     -0.303362  1 O  px         
    52      0.292714  2 O  d -1              64     -0.293100  3 H  s          
 
 Vector   70  Occ=0.000000D+00  E= 6.817367D+00
              MO Center= -8.2D+00,  2.6D+00,  1.8D-02, r^2= 1.2D+00
   Bfn.  Coefficient  Atom+Function         Bfn.  Coefficient  Atom+Function  
  ----- ------------  ---------------      ----- ------------  ---------------
    35     -1.144343  2 O  s                  4      1.042249  1 O  s          
    70      0.975669  4 H  s                 64     -0.884473  3 H  s          
     9     -0.768915  1 O  px                23     -0.752516  1 O  d  1       
    42     -0.739060  2 O  pz                52     -0.734473  2 O  d -1       
    66     -0.650689  3 H  px                69      0.645467  4 H  s          
 
 Vector   71  Occ=0.000000D+00  E= 7.022951D+00
              MO Center= -8.2D+00,  2.6D+00, -9.4D-03, r^2= 1.1D+00
   Bfn.  Coefficient  Atom+Function         Bfn.  Coefficient  Atom+Function  
  ----- ------------  ---------------      ----- ------------  ---------------
    35      1.304662  2 O  s                  4      1.296822  1 O  s          
    64     -0.893689  3 H  s                  9     -0.847271  1 O  px         
    70     -0.827068  4 H  s                 23     -0.722472  1 O  d  1       
    52      0.722360  2 O  d -1              63     -0.702058  3 H  s          
    69     -0.656564  4 H  s                 66     -0.652313  3 H  px         
 
 Vector   72  Occ=0.000000D+00  E= 7.714778D+00
              MO Center= -8.2D+00,  2.6D+00,  2.6D-02, r^2= 1.1D+00
   Bfn.  Coefficient  Atom+Function         Bfn.  Coefficient  Atom+Function  
  ----- ------------  ---------------      ----- ------------  ---------------
    42      1.642293  2 O  pz                 4      1.633759  1 O  s          
    35     -1.550024  2 O  s                 11      1.520678  1 O  pz         
    52      1.403353  2 O  d -1              10     -1.279198  1 O  py         
    21     -1.233629  1 O  d -1              41     -1.106111  2 O  py         
     3     -1.098389  1 O  s                 34      1.065069  2 O  s          
 
 Vector   73  Occ=0.000000D+00  E= 4.266742D+01
              MO Center= -8.2D+00,  2.6D+00,  2.3D-02, r^2= 6.6D-01
   Bfn.  Coefficient  Atom+Function         Bfn.  Coefficient  Atom+Function  
  ----- ------------  ---------------      ----- ------------  ---------------
     2      1.193577  1 O  s                 33      1.197118  2 O  s          
    35      1.094203  2 O  s                  4      1.087042  1 O  s          
     3     -1.057632  1 O  s                 34     -1.061711  2 O  s          
     1     -0.980798  1 O  s                 32     -0.983676  2 O  s          
    36     -0.473023  2 O  s                  5     -0.464534  1 O  s          
 
 Vector   74  Occ=0.000000D+00  E= 4.314236D+01
              MO Center= -8.2D+00,  2.6D+00,  1.9D-02, r^2= 6.6D-01
   Bfn.  Coefficient  Atom+Function         Bfn.  Coefficient  Atom+Function  
  ----- ------------  ---------------      ----- ------------  ---------------
     4      1.435200  1 O  s                 35     -1.428751  2 O  s          
     3     -1.256375  1 O  s                 34      1.252625  2 O  s          
     2      1.217863  1 O  s                 33     -1.214341  2 O  s          
     1     -0.986899  1 O  s                 32      0.984022  2 O  s          
     5     -0.673398  1 O  s                 36      0.668428  2 O  s          
 

 center of mass
 --------------
 x = -15.61131364 y =   4.91631909 z =   0.05853715

 moments of inertia (a.u.)
 ------------------
          70.174120697465          -8.571036685293           8.928861567803
          -8.571036685293          49.293257369593          31.282229551717
           8.928861567803          31.282229551717          32.543889225818
 
     Multipole analysis of the density
     ---------------------------------
 
     L   x y z        total         alpha         beta         nuclear
     -   - - -        -----         -----         ----         -------
     0   0 0 0     -0.000000     -9.000000     -9.000000     18.000000
 
     1   1 0 0     -0.392151    140.556165    140.556165   -281.504481
     1   0 1 0      0.492657    -44.324878    -44.324878     89.142413
     1   0 0 1      0.259850     -0.560734     -0.560734      1.381318
 
     2   2 0 0      3.472369  -2201.378408  -2201.378408   4406.229184
     2   1 1 0    -10.403489    690.078983    690.078983  -1390.561456
     2   1 0 1     -2.428125     11.093768     11.093768    -24.615660
     2   0 2 0     -4.656671   -230.097994   -230.097994    455.539318
     2   0 1 1      1.229218      5.504003      5.504003     -9.778787
     2   0 0 2     -6.402977    -16.383287    -16.383287     26.363597
 
 *** CALLING NEW AORESP DRIVER FOR CLOSED AND OPEN SHELLS ***
 Entering AOResponse driver routine


--------------------------------------------------------------------------------

          ****************
          *** RESPONSE ***
          ****************

 Response module for NWChem and dynamic CPKS solver
 developed by J. Autschbach and coworkers, SUNY Buffalo
 The methodology used in this program is described in 
 ChemPhysChem 12 (2011), 3224-3235 (main reference)
 J. Chem. Phys. 123 (2005), 114103
 J. Chem. Phys. 122 (2005), 224115
 J. Chem. Phys. 122 (2005), 074105
 Comp. Lett. 3 (2007), 131-150 (contact JA for a copy)
 Please cite this work in publications based on results
 obtained with this code. Thank you!

 For extension of response module to open shell
 calculations please acknowledge:
 F. Aquino, Northwestern University, Schatz Rsrch Group
 The update to the methodology is described in
 J. Phys. Chem. A 118 (2014) 517-525



          -----------------------------------------------
          Solving response equations for perturbing field
          -----------------------------------------------

 number of frequencies:     1
 frequency in a.u.:  0.8855800E-01
 Perturbing field: electric
 Using GIAO formalism for OptRot
 Adding quadrupole terms to OptRot
 to create an origin in dependent tensor.
 Using El. Dipole Length Gauge
 
 Applying DAMPING constant of  0.003700 a.u.
 
 Setting up CPKS
 with frequency omega =      0.08855800 a.u.
 and a damping of            0.00370000 a.u.

 
                            NWChem Dynamic CPHF Module
                            --------------------------
 
 
    scftype = RHF 
    nclosed =    9
      nopen =    0
  variables =     2340
  num. vecs =        3
  tolerance =   1.0D-09
  max. iter =  100

 SCF residual:   5.151673776646029E-007


Iterative solution of linear equations
  No. of variables     1170
  No. of equations        3
  Maximum subspace       99
       Convergence  1.0D-09
        Start time     50.1


   iter   nsub   residual    time 
   ----  ------  --------  --------- 
 dft_CPHF2_read: failed to open./h2o2_514.5_03.inp.aoresp_fiao_f1
     1      3    5.12D+00      76.9
     2      6    2.15D+00     104.2
     3      9    1.61D-01     131.4
     4     12    7.86D-03     158.5
     5     15    1.92D-03     185.7
     6     18    2.68D-04     212.8
     7     21    1.46D-05     239.8
     8     24    9.07D-07     266.9
     9     27    8.57D-08     294.0
    10     30    7.15D-09     321.1
    11     33    4.15D-10     348.3

 Calculating some arrays needed for GIAO optical rotation

    0 giaofock schwarz done =      98.67%
    0 giaofock schwarz done =      98.67%
 aor_r1_tensor_giao: roadata output requested
 dip-quad polarizability Re:

              1        2        3        4        5        6      
    1 -336.1880  44.4128  -8.8287   6.0282   4.4673  -0.0757
    2  -22.0310-187.5912  55.5039 119.8907 -15.3991   3.5993
    3  -14.4708  56.7528-251.0491 -35.4337  82.1053   7.8667
 traceless dip-quad polarizability:

              1        2        3      
    1 -339.1642  66.6191 -13.2431
    2   66.6191 174.1600   6.7010
    3  -13.2431   6.7010 165.0042

              1        2        3      
    1  -83.7760-281.3868  83.2559
    2 -281.3868 129.1066 -23.0986
    3   83.2559 -23.0986 -45.3305

              1        2        3      
    1   -0.6872  85.1292-376.5737
    2   85.1292 -32.1317 123.1579
    3 -376.5737 123.1579  32.8189

 roa begin

 alpha real:
 XX       0.1066956934238E+02
 XY       0.7203012239292E+00
 XZ       0.4038554746418E+00
 YX       0.7203012239288E+00
 YY       0.1214484717447E+02
 YZ      -0.3415438699097E+01
 ZX       0.4038554748346E+00
 ZY      -0.3415438699227E+01
 ZZ       0.1599649938011E+02

 alpha im:
 XX       0.2265378722615E-01
 XY       0.2219376596492E-02
 XZ      -0.1699684131708E-02
 YX       0.2219376722546E-02
 YY       0.3045208015386E-01
 YZ      -0.1356697668212E-01
 ZX      -0.1699684012580E-02
 ZY      -0.1356697645141E-01
 ZZ       0.4150447128354E-01

 beta real:
 XX      -0.6955481962284E-01
 XY      -0.1917822429958E+00
 XZ       0.2954650905578E+01
 YX       0.7871816093229E+00
 YY       0.2197494470422E+01
 YZ       0.8462694421637E+01
 ZX      -0.3193451627714E+01
 ZY      -0.1099246741791E+02
 ZZ      -0.2132498572411E+01

 G-prime = -omega beta(real):
 XX      -0.6955481962284E-01
 XY      -0.1917822429958E+00
 XZ       0.2954650905578E+01
 YX       0.7871816093229E+00
 YY       0.2197494470422E+01
 YZ       0.8462694421637E+01
 ZX      -0.3193451627714E+01
 ZY      -0.1099246741791E+02
 ZZ      -0.2132498572411E+01

 beta im:
 XX      -0.1013306997670E-02
 XY       0.1326068238050E-03
 XZ       0.5710349878749E-01
 YX       0.3470306921172E-01
 YY       0.9515788507203E-01
 YZ       0.1332070012370E+00
 ZX      -0.6136222886714E-01
 ZY      -0.2308011755426E+00
 ZZ      -0.9654486978621E-01

 G-prime = -omega beta(imag):
 XX      -0.1013306997670E-02
 XY       0.1326068238050E-03
 XZ       0.5710349878749E-01
 YX       0.3470306921172E-01
 YY       0.9515788507203E-01
 YZ       0.1332070012370E+00
 ZX      -0.6136222886714E-01
 ZY      -0.2308011755426E+00
 ZZ      -0.9654486978621E-01

 dipole-quadrupole real (Cartesian):
 XXX     -0.3361879756459E+03
 XXY      0.4441275581880E+02
 XXZ     -0.8828721451765E+01
 XYY      0.6028177992599E+01
 XYZ      0.4467311427428E+01
 XZZ     -0.7567385877326E-01
 YXX     -0.2203103001768E+02
 YXY     -0.1875911877843E+03
 YXZ      0.5550392943006E+02
 YYY      0.1198906982028E+03
 YYZ     -0.1539906566378E+02
 YZZ      0.3599310187321E+01
 ZXX     -0.1447075414780E+02
 ZXY      0.5675281110635E+02
 ZXZ     -0.2510491050466E+03
 ZYY     -0.3543369202873E+02
 ZYZ      0.8210527193728E+02
 ZZZ      0.7866671644479E+01

 dipole-quadrupole imag (Cartesian):
 XXX     -0.7178157418033E+00
 XXY      0.8833026603203E-01
 XXZ      0.1926857939843E-01
 XYY      0.1876276997595E-01
 XYZ     -0.3079860028289E-02
 XZZ     -0.4369974744391E-02
 YXX     -0.6648045500265E-01
 YXY     -0.4738884963348E+00
 YXZ      0.2223428160417E+00
 YYY      0.3096431465844E+00
 YYZ     -0.6499498081104E-01
 YZZ      0.5151727432793E-02
 ZXX      0.4861158430838E-01
 ZXY      0.2094619732922E+00
 ZXZ     -0.6580275139270E+00
 ZYY     -0.1453878665893E+00
 ZYZ      0.2191606382949E+00
 ZZZ      0.3039011008972E-01

 dipole-quadrupole (traceless):
 XXX     -0.3391642277129E+03
 XXY      0.6661913372821E+02
 XXZ     -0.1324308217765E+02
 XYY      0.1741600027450E+03
 XYZ      0.6700967141142E+01
 XZZ      0.1650042249679E+03
 YXX     -0.8377603421274E+02
 YXY     -0.2813867816764E+03
 YXZ      0.8325589414509E+02
 YYY      0.1291065581180E+03
 YYZ     -0.2309859849566E+02
 YZZ     -0.4533052390523E+02
 ZXX     -0.6872439556765E+00
 ZXY      0.8512921665953E+02
 ZXZ     -0.3765736575699E+03
 ZYY     -0.3213165077707E+02
 ZYZ      0.1231579079059E+03
 ZZZ      0.3281889473274E+02

 roa end


 Electric Dipole Response Matrix (nonzero elements):

              1        2        3      
    1   10.6696   0.7203   0.4039
    2    0.7203  12.1448  -3.4154
    3    0.4039  -3.4154  15.9965
 
 Imaginary part:

              1        2        3      
    1    0.0227   0.0022  -0.0017
    2    0.0022   0.0305  -0.0136
    3   -0.0017  -0.0136   0.0415

 ------------------------------------------
 average:        12.93697 + I       0.03154


 DFT Linear Response polarizability / au 
 Frequency  =       0.0885580 / au
 Wavelength =     514.5029585 / nm
              X              Y              Z
 -----------------------------------------------
 X      10.6695693      0.7203012      0.4038555
 Y       0.7203012     12.1448472     -3.4154387
 Z       0.4038555     -3.4154387     15.9964994
 -----------------------------------------------
 Eigenvalues =      11.2752272      9.5440131     17.9916756
 Isotropic   =      12.9369720
 Anisotropic =       6.3105938
 -----------------------------------------------
 *************************

 DFT Linear Response IMAG polarizability / au 
 Frequency  =       0.0885580 / au
 Wavelength =     514.5029585 / nm
              X              Y              Z
 -----------------------------------------------
 X       0.0226538      0.0022194     -0.0016997
 Y       0.0022194      0.0304521     -0.0135670
 Z      -0.0016997     -0.0135670      0.0415045
 -----------------------------------------------
 Eigenvalues =       0.0229065      0.0208274      0.0508764
 Isotropic   =       0.0315368
 Anisotropic =       0.0237317
 -----------------------------------------------
 *************************

 Magnetic Dipole Response Matrix (nonzero elements):
 Optical rotation tensor Beta
 (Buckingham-Dunn version including dipole-quadrupole terms)

              1        2        3      
    1    0.1610   0.2365  -1.6673
    2    0.2365   1.3286  -0.0554
    3   -1.6673  -0.0554  -1.4381
 
 Imaginary part:

              1        2        3      
    1    0.0114  -0.0015  -0.6448
    2   -0.3919  -1.0745  -1.5042
    3    0.6929   2.6062   1.0902

 ------------------------------------------
 average:         0.01716 + I       0.00903

 Principal components and PAS (Real part)
                 -2.48925
                  1.50764
                  1.03309
 ------------------------
 average:         0.01716

              1        2        3      
    1    0.5337   0.5258   0.6623
    2   -0.0208   0.7911  -0.6113
    3    0.8454  -0.3125  -0.4332

 Chiral response tensor (Real part):

              1        2        3      
    1   -0.0547  -0.1183   0.8336
    2   -0.1183  -0.6385   0.0277
    3    0.8336   0.0277   0.7448
 
 Principal components and PAS (Real part)
                  1.27036
                 -0.72808
                 -0.49080
 ------------------------
 average:         0.01716

              1        2        3      
    1    0.5337   0.5258   0.6623
    2   -0.0208   0.7911  -0.6113
    3    0.8454  -0.3125  -0.4332
 Exiting AOResponse driver routine

 Task  times  cpu:      336.6s     wall:      337.9s
 
 
                                NWChem Input Module
                                -------------------
 
 
 Summary of allocated global arrays
-----------------------------------
  No active global arrays



                         GA Statistics for process    0
                         ------------------------------

       create   destroy   get      put      acc     scatter   gather  read&inc
calls: 2444     2444     6.44e+06 5.32e+06 4.84e+05 1938        0     1953     
number of processes/call 1.00e+00 1.00e+00 1.00e+00 0.00e+00 0.00e+00
bytes total:             1.19e+09 1.67e+08 1.12e+09 5.92e+02 0.00e+00 1.56e+04
bytes remote:            0.00e+00 0.00e+00 0.00e+00 0.00e+00 0.00e+00 0.00e+00
Max memory consumed for GA by this process: 11498464 bytes
 
MA_summarize_allocated_blocks: starting scan ...
MA_summarize_allocated_blocks: scan completed: 0 heap blocks, 0 stack blocks
MA usage statistics:

	allocation statistics:
					      heap	     stack
					      ----	     -----
	current number of blocks	         0	         0
	maximum number of blocks	        24	        52
	current total bytes		         0	         0
	maximum total bytes		  20676928	  42215048
	maximum total K-bytes		     20677	     42216
	maximum total M-bytes		        21	        43
 
 
                                     CITATION
                                     --------
                Please cite the following reference when publishing
                           results obtained with NWChem:
 
                 M. Valiev, E.J. Bylaska, N. Govind, K. Kowalski,
              T.P. Straatsma, H.J.J. van Dam, D. Wang, J. Nieplocha,
                        E. Apra, T.L. Windus, W.A. de Jong
                 "NWChem: a comprehensive and scalable open-source
                  solution for large scale molecular simulations"
                      Comput. Phys. Commun. 181, 1477 (2010)
                           doi:10.1016/j.cpc.2010.04.018
 
                                      AUTHORS
                                      -------
          E. Apra, E. J. Bylaska, W. A. de Jong, N. Govind, K. Kowalski,
       T. P. Straatsma, M. Valiev, H. J. J. van Dam, D. Wang, T. L. Windus,
        J. Hammond, J. Autschbach, K. Bhaskaran-Nair, J. Brabec, K. Lopata,
    S. A. Fischer, S. Krishnamoorthy, M. Jacquelin, W. Ma, M. Klemm, O. Villa,
      Y. Chen, V. Anisimov, F. Aquino, S. Hirata, M. T. Hackler, V. Konjkov,
            D. Mejia-Rodriguez, T. Risthaus, M. Malagoli, A. Marenich,
   A. Otero-de-la-Roza, J. Mullin, P. Nichols, R. Peverati, J. Pittner, Y. Zhao,
        P.-D. Fan, A. Fonari, M. J. Williamson, R. J. Harrison, J. R. Rehr,
      M. Dupuis, D. Silverstein, D. M. A. Smith, J. Nieplocha, V. Tipparaju,
    M. Krishnan, B. E. Van Kuiken, A. Vazquez-Mayagoitia, L. Jensen, M. Swart,
      Q. Wu, T. Van Voorhis, A. A. Auer, M. Nooijen, L. D. Crosby, E. Brown,
      G. Cisneros, G. I. Fann, H. Fruchtl, J. Garza, K. Hirao, R. A. Kendall,
      J. A. Nichols, K. Tsemekhman, K. Wolinski, J. Anchell, D. E. Bernholdt,
      P. Borowski, T. Clark, D. Clerc, H. Dachsel, M. J. O. Deegan, K. Dyall,
    D. Elwood, E. Glendening, M. Gutowski, A. C. Hess, J. Jaffe, B. G. Johnson,
     J. Ju, R. Kobayashi, R. Kutteh, Z. Lin, R. Littlefield, X. Long, B. Meng,
      T. Nakajima, S. Niu, L. Pollack, M. Rosing, K. Glaesemann, G. Sandrone,
      M. Stave, H. Taylor, G. Thomas, J. H. van Lenthe, A. T. Wong, Z. Zhang.

 Total times  cpu:      374.4s     wall:      377.5s
