 argument  1 = h2o2_514.5_02.inp
 


============================== echo of input deck ==============================
echo
start h2o2_514.5_02.inp
title "h2o2 roa calculations at 514.5 nm, input generated by va with delta_type=2"
charge 0



geometry units angstrom nocenter noautoz noautosym nucleus point;symmetry c1
 O -8.059633  3.036281 -0.513162
 O -8.428613  2.125699  0.551660
 H -8.938960  3.227139 -0.899135
 H -8.123866  2.630400  1.333343
end

basis spherical
* library def2-TZVP
end

 set prop:newaoresp 1
 set aor:roadata T
 set cphf:maxsub 100
 set cphf:acc 1.0d-10
 set cphf:maxiter 100

property
    response 1   0.088558
    bdtensor
    convergence 1e-9
    damping 0.0037
    giao
end

dft
 direct
 mult 1
 xc becke88 lyp
 iterations 250
 tolerances tight
 grid xfine
 convergence nolevelshifting
 convergence energy 1e-8
 convergence gradient 1e-8


end

task dft gradient
task dft property
================================================================================


                                         
                                         
 
 
              Northwest Computational Chemistry Package (NWChem) 6.8
              ------------------------------------------------------
 
 
                    Environmental Molecular Sciences Laboratory
                       Pacific Northwest National Laboratory
                                Richland, WA 99352
 
                              Copyright (c) 1994-2017
                       Pacific Northwest National Laboratory
                            Battelle Memorial Institute
 
             NWChem is an open-source computational chemistry package
                        distributed under the terms of the
                      Educational Community License (ECL) 2.0
             A copy of the license is included with this distribution
                              in the LICENSE.TXT file
 
                                  ACKNOWLEDGMENT
                                  --------------

            This software and its documentation were developed at the
            EMSL at Pacific Northwest National Laboratory, a multiprogram
            national laboratory, operated for the U.S. Department of Energy
            by Battelle under Contract Number DE-AC05-76RL01830. Support
            for this work was provided by the Department of Energy Office
            of Biological and Environmental Research, Office of Basic
            Energy Sciences, and the Office of Advanced Scientific Computing.


           Job information
           ---------------

    hostname        = cpn-f11-17-01.cbls.ccr.buffalo.edu
    program         = /util/academic/nwchem/nwchem-6.8/bin/LINUX64/nwchem
    date            = Thu Feb 28 18:48:56 2019

    compiled        = Tue_Nov_06_14:59:08_2018
    source          = /util/academic/nwchem/nwchem-6.8
    nwchem branch   = 6.8
    nwchem revision = v6.8-47-gdf6c956
    ga revision     = ga-5.6.3
    use scalapack   = F
    input           = h2o2_514.5_02.inp
    prefix          = h2o2_514.5_02.inp.
    data base       = ./h2o2_514.5_02.inp.db
    status          = startup
    nproc           =        1
    time left       =     -1s



           Memory information
           ------------------

    heap     =   13107200 doubles =    100.0 Mbytes
    stack    =   13107197 doubles =    100.0 Mbytes
    global   =   26214400 doubles =    200.0 Mbytes (distinct from heap & stack)
    total    =   52428797 doubles =    400.0 Mbytes
    verify   = yes
    hardfail = no 


           Directory information
           ---------------------
 
  0 permanent = .
  0 scratch   = .
 
 
 
 
                                NWChem Input Module
                                -------------------
 
 
                         h2o2 roa calculations at 514.5 nm, input generated by va with delta_type=2
                         ---------------------------------

 Scaling coordinates for geometry "geometry" by  1.889725989
 (inverse scale =  0.529177249)

 
 
                             Geometry "geometry" -> ""
                             -------------------------
 
 Output coordinates in angstroms (scale by  1.889725989 to convert to a.u.)
 
  No.       Tag          Charge          X              Y              Z
 ---- ---------------- ---------- -------------- -------------- --------------
    1 O                    8.0000    -8.05963300     3.03628100    -0.51316200
    2 O                    8.0000    -8.42861300     2.12569900     0.55166000
    3 H                    1.0000    -8.93896000     3.22713900    -0.89913500
    4 H                    1.0000    -8.12386600     2.63040000     1.33334300
 
      Atomic Mass 
      ----------- 
 
      O                 15.994910
      H                  1.007825
 

 Effective nuclear repulsion energy (a.u.)      36.7148494935

            Nuclear Dipole moment (a.u.) 
            ----------------------------
        X                 Y               Z
 ---------------- ---------------- ----------------
  -281.5102015092    89.1069657457     1.4025395109
 
 
            XYZ format geometry
            -------------------
     4
 geometry
 O                    -8.05963300     3.03628100    -0.51316200
 O                    -8.42861300     2.12569900     0.55166000
 H                    -8.93896000     3.22713900    -0.89913500
 H                    -8.12386600     2.63040000     1.33334300
 
 ==============================================================================
                                internuclear distances
 ------------------------------------------------------------------------------
       center one      |      center two      | atomic units |  angstroms
 ------------------------------------------------------------------------------
    2 O                |   1 O                |     2.73792  |     1.44884
    3 H                |   1 O                |     1.85021  |     0.97909
    4 H                |   2 O                |     1.85022  |     0.97909
 ------------------------------------------------------------------------------
                         number of included internuclear distances:          3
 ==============================================================================



 ==============================================================================
                                 internuclear angles
 ------------------------------------------------------------------------------
        center 1       |       center 2       |       center 3       |  degrees
 ------------------------------------------------------------------------------
    2 O                |   1 O                |   3 H                |   100.57
    1 O                |   2 O                |   4 H                |   100.57
 ------------------------------------------------------------------------------
                            number of included internuclear angles:          2
 ==============================================================================



  warning:::::::::::::: from_environment
  NWCHEM_BASIS_LIBRARY set to: <
 /util/academic/nwchem/nwchem-6.8/src/basis/libraries>
  but file does not exist !
  using .nwchemrc or compiled library


 Summary of "ao basis" -> "" (spherical)
 ------------------------------------------------------------------------------
       Tag                 Description            Shells   Functions and Types
 ---------------- ------------------------------  ------  ---------------------
 *                         def2-TZVP                  on all atoms 


 
                                 NWChem DFT Module
                                 -----------------
 
 
                         h2o2 roa calculations at 514.5 nm, input generated by va with delta_type=2
 
 
                      Basis "ao basis" -> "ao basis" (spherical)
                      -----
  O (Oxygen)
  ----------
            Exponent  Coefficients 
       -------------- ---------------------------------------------------------
  1 S  2.70323826E+04  0.000217
  1 S  4.05238714E+03  0.001684
  1 S  9.22327227E+02  0.008740
  1 S  2.61240710E+02  0.035240
  1 S  8.53546414E+01  0.111535
  1 S  3.10350352E+01  0.255890
 
  2 S  1.22608607E+01  0.397687
  2 S  4.99870760E+00  0.246278
 
  3 S  1.17031082E+00  1.000000
 
  4 S  4.64747410E-01  1.000000
 
  5 S  1.85045364E-01  1.000000
 
  6 P  6.32749548E+01  0.006069
  6 P  1.46270494E+01  0.041913
  6 P  4.45012235E+00  0.161538
  6 P  1.52757996E+00  0.357070
 
  7 P  5.29351179E-01  1.000000
 
  8 P  1.74784213E-01  1.000000
 
  9 D  2.31400000E+00  1.000000
 
 10 D  6.45000000E-01  1.000000
 
 11 F  1.42800000E+00  1.000000
 
  H (Hydrogen)
  ------------
            Exponent  Coefficients 
       -------------- ---------------------------------------------------------
  1 S  3.40613410E+01  0.006025
  1 S  5.12357460E+00  0.045021
  1 S  1.16466260E+00  0.201897
 
  2 S  3.27230410E-01  1.000000
 
  3 S  1.03072410E-01  1.000000
 
  4 P  8.00000000E-01  1.000000
 


 Summary of "ao basis" -> "ao basis" (spherical)
 ------------------------------------------------------------------------------
       Tag                 Description            Shells   Functions and Types
 ---------------- ------------------------------  ------  ---------------------
 O                         def2-TZVP                11       31   5s3p2d1f
 H                         def2-TZVP                 4        6   3s1p




 Summary of "ao basis" -> "ao basis" (spherical)
 ------------------------------------------------------------------------------
       Tag                 Description            Shells   Functions and Types
 ---------------- ------------------------------  ------  ---------------------
 O                         def2-TZVP                11       31   5s3p2d1f
 H                         def2-TZVP                 4        6   3s1p


  Caching 1-el integrals 
  itol2e modified to match energy
  convergence criterion.
  tol_rho modified to match energy
  convergence criterion.
 
            General Information
            -------------------
          SCF calculation type: DFT
          Wavefunction type:  closed shell.
          No. of atoms     :     4
          No. of electrons :    18
           Alpha electrons :     9
            Beta electrons :     9
          Charge           :     0
          Spin multiplicity:     1
          Use of symmetry is: off; symmetry adaption is: off
          Maximum number of iterations: 250
          This is a Direct SCF calculation.
          AO basis - number of functions:    74
                     number of shells:    30
          Convergence on energy requested:  1.00D-08
          Convergence on density requested:  1.00D-05
          Convergence on gradient requested:  1.00D-08
 
              XC Information
              --------------
                    Becke 1988 Exchange Functional  1.000          
              Lee-Yang-Parr Correlation Functional  1.000          
 
             Grid Information
             ----------------
          Grid used for XC integration:  xfine     
          Radial quadrature: Mura-Knowles        
          Angular quadrature: Lebedev. 
          Tag              B.-S. Rad. Rad. Pts. Rad. Cut. Ang. Pts.
          ---              ---------- --------- --------- ---------
          O                   0.60      100           8.0      1454
          H                   0.35      100           9.0      1202
          Grid pruning is: on 
          Number of quadrature shells:   400
          Spatial weights used:  Erf1
 
          Convergence Information
          -----------------------
          Convergence aids based upon iterative change in 
          total energy or number of iterations. 
          Levelshifting, if invoked, occurs when the 
          HOMO/LUMO gap drops below (HL_TOL):  1.00D-02
          DIIS, if invoked, will attempt to extrapolate 
          using up to (NFOCK): 10 stored Fock matrices.

                    Damping( 0%)  Levelshifting(0.0)       DIIS
                  --------------- ------------------- ---------------
          dE  on:    start             N/A                start   
          dE off:    2 iters           N/A              250 iters 

 
      Screening Tolerance Information
      -------------------------------
          Density screening/tol_rho:  1.00D-11
          AO Gaussian exp screening on grid/accAOfunc:  18
          CD Gaussian exp screening on grid/accCDfunc:  20
          XC Gaussian exp screening on grid/accXCfunc:  20
          Schwarz screening/accCoul:  1.00D-09

 
      Superposition of Atomic Density Guess
      -------------------------------------
 
 Sum of atomic energies:        -150.56823290
 
      Non-variational initial energy
      ------------------------------

 Total energy =    -150.726697
 1-e energy   =    -279.966025
 2-e energy   =      92.524479
 HOMO         =      -0.351506
 LUMO         =      -0.011974
 
   Time after variat. SCF:      1.3
   Time prior to 1st pass:      1.3

 Grid_pts file          = ./h2o2_514.5_02.inp.gridpts.0
 Record size in doubles =  12289        No. of grid_pts per rec  =   3070
 Max. records in memory =    210        Max. recs in file   =   1293931


           Memory utilization after 1st SCF pass: 
           Heap Space remaining (MW):       10.52            10522928
          Stack Space remaining (MW):       13.11            13106668

   convergence    iter        energy       DeltaE   RMS-Dens  Diis-err    time
 ---------------- ----- ----------------- --------- --------- ---------  ------
 d= 0,ls=0.0,diis     1   -151.5585296673 -1.88D+02  7.53D-03  6.86D-01     5.0
 d= 0,ls=0.0,diis     2   -151.5940343587 -3.55D-02  2.78D-03  6.26D-02     8.6
 d= 0,ls=0.0,diis     3   -151.5985651601 -4.53D-03  1.13D-03  2.05D-02    12.0
 d= 0,ls=0.0,diis     4   -151.6000145678 -1.45D-03  3.84D-04  4.28D-03    15.4
 d= 0,ls=0.0,diis     5   -151.6003756210 -3.61D-04  5.18D-05  6.25D-05    19.1
 d= 0,ls=0.0,diis     6   -151.6003819139 -6.29D-06  4.95D-06  6.46D-07    22.5
 d= 0,ls=0.0,diis     7   -151.6003819717 -5.78D-08  9.92D-07  9.65D-09    25.9
 d= 0,ls=0.0,diis     8   -151.6003819725 -7.51D-10  3.29D-07  1.22D-09    29.5


         Total DFT energy =     -151.600381972498
      One electron energy =     -281.262374470016
           Coulomb energy =      110.776775541497
    Exchange-Corr. energy =      -17.829632537454
 Nuclear repulsion energy =       36.714849493476

 Numeric. integr. density =       17.999999997147

     Total iterative time =     28.3s


 
                       DFT Final Molecular Orbital Analysis
                       ------------------------------------
 
 Vector    1  Occ=2.000000D+00  E=-1.882952D+01
              MO Center= -8.2D+00,  2.7D+00, -1.3D-01, r^2= 5.0D-01
   Bfn.  Coefficient  Atom+Function         Bfn.  Coefficient  Atom+Function  
  ----- ------------  ---------------      ----- ------------  ---------------
     2      0.510208  1 O  s                 33     -0.384070  2 O  s          
     1      0.347849  1 O  s                 32     -0.261886  2 O  s          
     3      0.030859  1 O  s          
 
 Vector    2  Occ=2.000000D+00  E=-1.882949D+01
              MO Center= -8.3D+00,  2.5D+00,  1.7D-01, r^2= 5.0D-01
   Bfn.  Coefficient  Atom+Function         Bfn.  Coefficient  Atom+Function  
  ----- ------------  ---------------      ----- ------------  ---------------
    33      0.510362  2 O  s                  2      0.384274  1 O  s          
    32      0.347829  2 O  s                  1      0.261860  1 O  s          
    34      0.028940  2 O  s          
 
 Vector    3  Occ=2.000000D+00  E=-1.022206D+00
              MO Center= -8.3D+00,  2.6D+00,  5.1D-02, r^2= 7.7D-01
   Bfn.  Coefficient  Atom+Function         Bfn.  Coefficient  Atom+Function  
  ----- ------------  ---------------      ----- ------------  ---------------
     4      0.311021  1 O  s                 35      0.311016  2 O  s          
     3      0.238787  1 O  s                 34      0.238782  2 O  s          
     2     -0.162931  1 O  s                 33     -0.162928  2 O  s          
     5      0.093122  1 O  s                 36      0.093121  2 O  s          
    38      0.074516  2 O  py                 1     -0.070013  1 O  s          
 
 Vector    4  Occ=2.000000D+00  E=-8.127044D-01
              MO Center= -8.3D+00,  2.7D+00,  7.2D-02, r^2= 1.2D+00
   Bfn.  Coefficient  Atom+Function         Bfn.  Coefficient  Atom+Function  
  ----- ------------  ---------------      ----- ------------  ---------------
     4      0.325527  1 O  s                 35     -0.325532  2 O  s          
     3      0.251798  1 O  s                 34     -0.251801  2 O  s          
     2     -0.165916  1 O  s                 33      0.165918  2 O  s          
     5      0.141620  1 O  s                 36     -0.141622  2 O  s          
    39     -0.094621  2 O  pz                63      0.092385  3 H  s          
 
 Vector    5  Occ=2.000000D+00  E=-4.825899D-01
              MO Center= -8.3D+00,  2.7D+00,  6.3D-02, r^2= 1.3D+00
   Bfn.  Coefficient  Atom+Function         Bfn.  Coefficient  Atom+Function  
  ----- ------------  ---------------      ----- ------------  ---------------
    39      0.309857  2 O  pz                42      0.241435  2 O  pz         
     7      0.211411  1 O  py                 8     -0.201555  1 O  pz         
    10      0.169097  1 O  py                11     -0.158068  1 O  pz         
    64      0.130415  3 H  s                 70      0.130412  4 H  s          
     6     -0.114045  1 O  px                63      0.107879  3 H  s          
 
 Vector    6  Occ=2.000000D+00  E=-4.355311D-01
              MO Center= -8.3D+00,  2.6D+00,  3.6D-02, r^2= 1.3D+00
   Bfn.  Coefficient  Atom+Function         Bfn.  Coefficient  Atom+Function  
  ----- ------------  ---------------      ----- ------------  ---------------
     6      0.252046  1 O  px                 9      0.188265  1 O  px         
    37      0.182635  2 O  px                 4      0.156629  1 O  s          
    35     -0.156625  2 O  s                  5      0.152442  1 O  s          
    36     -0.152438  2 O  s                 39      0.151431  2 O  pz         
    38      0.148990  2 O  py                40      0.141436  2 O  px         
 
 Vector    7  Occ=2.000000D+00  E=-3.674530D-01
              MO Center= -8.2D+00,  2.5D+00, -2.3D-02, r^2= 1.3D+00
   Bfn.  Coefficient  Atom+Function         Bfn.  Coefficient  Atom+Function  
  ----- ------------  ---------------      ----- ------------  ---------------
    38      0.317348  2 O  py                41      0.248278  2 O  py         
     6     -0.234675  1 O  px                 8      0.218921  1 O  pz         
     9     -0.180137  1 O  px                11      0.176291  1 O  pz         
    44      0.163994  2 O  py                 5     -0.126792  1 O  s          
    36     -0.126797  2 O  s                 14      0.119972  1 O  pz         
 
 Vector    8  Occ=2.000000D+00  E=-2.724963D-01
              MO Center= -8.3D+00,  2.6D+00,  5.5D-02, r^2= 1.3D+00
   Bfn.  Coefficient  Atom+Function         Bfn.  Coefficient  Atom+Function  
  ----- ------------  ---------------      ----- ------------  ---------------
    37      0.341486  2 O  px                 7     -0.265847  1 O  py         
    40      0.266014  2 O  px                10     -0.213244  1 O  py         
    43      0.213492  2 O  px                13     -0.170052  1 O  py         
     6     -0.163236  1 O  px                 8     -0.150187  1 O  pz         
     5     -0.133816  1 O  s                 36     -0.133823  2 O  s          
 
 Vector    9  Occ=2.000000D+00  E=-2.248628D-01
              MO Center= -8.2D+00,  2.6D+00,  6.6D-03, r^2= 1.2D+00
   Bfn.  Coefficient  Atom+Function         Bfn.  Coefficient  Atom+Function  
  ----- ------------  ---------------      ----- ------------  ---------------
    37      0.279102  2 O  px                 7      0.273936  1 O  py         
    38     -0.220267  2 O  py                40      0.220869  2 O  px         
    10      0.214372  1 O  py                43      0.206534  2 O  px         
     8      0.202257  1 O  pz                13      0.191494  1 O  py         
    41     -0.168492  2 O  py                11      0.159656  1 O  pz         
 
 Vector   10  Occ=0.000000D+00  E=-3.813598D-02
              MO Center= -8.3D+00,  2.7D+00,  6.9D-02, r^2= 2.1D+00
   Bfn.  Coefficient  Atom+Function         Bfn.  Coefficient  Atom+Function  
  ----- ------------  ---------------      ----- ------------  ---------------
     5      0.611075  1 O  s                 36     -0.611078  2 O  s          
    65     -0.415151  3 H  s                 71      0.415157  4 H  s          
    44     -0.355743  2 O  py                14      0.294719  1 O  pz         
    13     -0.287061  1 O  py                45      0.255645  2 O  pz         
    38     -0.254203  2 O  py                 8      0.240667  1 O  pz         
 
 Vector   11  Occ=0.000000D+00  E=-3.200852D-03
              MO Center= -8.6D+00,  3.0D+00,  2.8D-01, r^2= 4.3D+00
   Bfn.  Coefficient  Atom+Function         Bfn.  Coefficient  Atom+Function  
  ----- ------------  ---------------      ----- ------------  ---------------
    65      1.000131  3 H  s                 71      1.000117  4 H  s          
     5     -0.647414  1 O  s                 36     -0.647406  2 O  s          
    12      0.259044  1 O  px                45     -0.245741  2 O  pz         
    44     -0.138667  2 O  py                39     -0.133229  2 O  pz         
    14      0.131326  1 O  pz                 6      0.124532  1 O  px         
 
 Vector   12  Occ=0.000000D+00  E= 4.344458D-02
              MO Center= -8.6D+00,  3.0D+00,  2.4D-01, r^2= 4.1D+00
   Bfn.  Coefficient  Atom+Function         Bfn.  Coefficient  Atom+Function  
  ----- ------------  ---------------      ----- ------------  ---------------
    65      1.150960  3 H  s                 71     -1.150969  4 H  s          
    45      0.505602  2 O  pz                14      0.367378  1 O  pz         
     5     -0.305711  1 O  s                 36      0.305716  2 O  s          
    13     -0.271428  1 O  py                39      0.265091  2 O  pz         
    12      0.219430  1 O  px                 8      0.200151  1 O  pz         
 
 Vector   13  Occ=0.000000D+00  E= 3.373731D-01
              MO Center= -8.4D+00,  2.8D+00,  1.3D-01, r^2= 3.8D+00
   Bfn.  Coefficient  Atom+Function         Bfn.  Coefficient  Atom+Function  
  ----- ------------  ---------------      ----- ------------  ---------------
    64      1.169956  3 H  s                 70      1.169946  4 H  s          
    65     -0.662190  3 H  s                 71     -0.662185  4 H  s          
    45     -0.619562  2 O  pz                14      0.568778  1 O  pz         
     9      0.361110  1 O  px                 4     -0.336533  1 O  s          
    35     -0.336536  2 O  s                 41     -0.330952  2 O  py         
 
 Vector   14  Occ=0.000000D+00  E= 3.457334D-01
              MO Center= -8.3D+00,  2.7D+00,  7.4D-02, r^2= 3.6D+00
   Bfn.  Coefficient  Atom+Function         Bfn.  Coefficient  Atom+Function  
  ----- ------------  ---------------      ----- ------------  ---------------
    64      1.493465  3 H  s                 70     -1.493448  4 H  s          
    65     -0.836432  3 H  s                 71      0.836429  4 H  s          
     5     -0.770499  1 O  s                 36      0.770499  2 O  s          
    12      0.698279  1 O  px                44      0.669012  2 O  py         
    43      0.382731  2 O  px                 4     -0.362209  1 O  s          
 
 Vector   15  Occ=0.000000D+00  E= 3.527184D-01
              MO Center= -8.3D+00,  2.7D+00,  6.0D-02, r^2= 3.8D+00
   Bfn.  Coefficient  Atom+Function         Bfn.  Coefficient  Atom+Function  
  ----- ------------  ---------------      ----- ------------  ---------------
    13     -0.942311  1 O  py                 5      0.867895  1 O  s          
    36     -0.867907  2 O  s                 44     -0.852920  2 O  py         
    45      0.779735  2 O  pz                14      0.728850  1 O  pz         
    43     -0.604065  2 O  px                12     -0.530239  1 O  px         
    64      0.362364  3 H  s                 70     -0.362431  4 H  s          
 
 Vector   16  Occ=0.000000D+00  E= 3.729185D-01
              MO Center= -8.0D+00,  2.3D+00, -1.3D-01, r^2= 2.6D+00
   Bfn.  Coefficient  Atom+Function         Bfn.  Coefficient  Atom+Function  
  ----- ------------  ---------------      ----- ------------  ---------------
    44      0.597698  2 O  py                12     -0.542547  1 O  px         
     4      0.463622  1 O  s                 35      0.463623  2 O  s          
    13      0.436538  1 O  py                 5     -0.331455  1 O  s          
    36     -0.331455  2 O  s                 64     -0.327196  3 H  s          
    70     -0.327182  4 H  s                 45      0.320047  2 O  pz         
 
 Vector   17  Occ=0.000000D+00  E= 4.108783D-01
              MO Center= -8.3D+00,  2.6D+00,  4.6D-02, r^2= 2.9D+00
   Bfn.  Coefficient  Atom+Function         Bfn.  Coefficient  Atom+Function  
  ----- ------------  ---------------      ----- ------------  ---------------
    45     -0.890236  2 O  pz                14      0.880568  1 O  pz         
    12      0.724240  1 O  px                43     -0.710172  2 O  px         
    11     -0.375359  1 O  pz                 4     -0.367025  1 O  s          
    35     -0.367035  2 O  s                 42      0.368665  2 O  pz         
    40      0.269809  2 O  px                 9     -0.260103  1 O  px         
 
 Vector   18  Occ=0.000000D+00  E= 4.439463D-01
              MO Center= -8.2D+00,  2.6D+00,  1.9D-02, r^2= 3.5D+00
   Bfn.  Coefficient  Atom+Function         Bfn.  Coefficient  Atom+Function  
  ----- ------------  ---------------      ----- ------------  ---------------
    44      1.254283  2 O  py                14     -1.048288  1 O  pz         
     5     -0.919188  1 O  s                 36      0.919175  2 O  s          
    12      0.802843  1 O  px                43     -0.647729  2 O  px         
    13     -0.501704  1 O  py                64      0.419549  3 H  s          
    70     -0.419553  4 H  s                 40      0.361785  2 O  px         
 
 Vector   19  Occ=0.000000D+00  E= 4.654938D-01
              MO Center= -8.3D+00,  2.7D+00,  8.1D-02, r^2= 4.0D+00
   Bfn.  Coefficient  Atom+Function         Bfn.  Coefficient  Atom+Function  
  ----- ------------  ---------------      ----- ------------  ---------------
     5      0.938730  1 O  s                 36      0.938721  2 O  s          
    65     -0.797020  3 H  s                 71     -0.797012  4 H  s          
    13      0.778753  1 O  py                43     -0.731045  2 O  px         
    64      0.698509  3 H  s                 70      0.698505  4 H  s          
     4     -0.609578  1 O  s                 35     -0.609576  2 O  s          
 
 Vector   20  Occ=0.000000D+00  E= 5.230711D-01
              MO Center= -8.3D+00,  2.7D+00,  8.3D-02, r^2= 4.0D+00
   Bfn.  Coefficient  Atom+Function         Bfn.  Coefficient  Atom+Function  
  ----- ------------  ---------------      ----- ------------  ---------------
    45      1.581670  2 O  pz                65      1.331731  3 H  s          
    71     -1.331724  4 H  s                 12      1.055983  1 O  px         
    14      0.975855  1 O  pz                 5     -0.962156  1 O  s          
    36      0.962130  2 O  s                 13     -0.750940  1 O  py         
     4      0.519624  1 O  s                 35     -0.519606  2 O  s          
 
 Vector   21  Occ=0.000000D+00  E= 5.849653D-01
              MO Center= -8.4D+00,  2.8D+00,  1.4D-01, r^2= 3.1D+00
   Bfn.  Coefficient  Atom+Function         Bfn.  Coefficient  Atom+Function  
  ----- ------------  ---------------      ----- ------------  ---------------
     5      2.524051  1 O  s                 36      2.524002  2 O  s          
     4     -1.460627  1 O  s                 35     -1.460620  2 O  s          
    12     -1.390279  1 O  px                64     -1.058440  3 H  s          
    70     -1.058431  4 H  s                 45      0.911043  2 O  pz         
    44      0.893538  2 O  py                65     -0.851172  3 H  s          
 
 Vector   22  Occ=0.000000D+00  E= 6.748518D-01
              MO Center= -8.2D+00,  2.5D+00, -3.6D-02, r^2= 3.0D+00
   Bfn.  Coefficient  Atom+Function         Bfn.  Coefficient  Atom+Function  
  ----- ------------  ---------------      ----- ------------  ---------------
     5      5.905749  1 O  s                 36     -5.905768  2 O  s          
     4     -1.840648  1 O  s                 35      1.840663  2 O  s          
    14      1.810765  1 O  pz                44     -1.780537  2 O  py         
    45      1.716605  2 O  pz                13     -1.615036  1 O  py         
    12     -0.908986  1 O  px                64     -0.886043  3 H  s          
 
 Vector   23  Occ=0.000000D+00  E= 1.015911D+00
              MO Center= -8.4D+00,  2.7D+00,  9.4D-02, r^2= 1.5D+00
   Bfn.  Coefficient  Atom+Function         Bfn.  Coefficient  Atom+Function  
  ----- ------------  ---------------      ----- ------------  ---------------
    22      0.325487  1 O  d  0              64     -0.320111  3 H  s          
    68     -0.320665  3 H  pz                70      0.320108  4 H  s          
    53     -0.271914  2 O  d  0              74     -0.256217  4 H  pz         
    23     -0.248001  1 O  d  1              54      0.246694  2 O  d  1       
    73      0.233737  4 H  py                51      0.217417  2 O  d -2       
 
 Vector   24  Occ=0.000000D+00  E= 1.080431D+00
              MO Center= -8.3D+00,  2.7D+00,  6.4D-02, r^2= 1.5D+00
   Bfn.  Coefficient  Atom+Function         Bfn.  Coefficient  Atom+Function  
  ----- ------------  ---------------      ----- ------------  ---------------
    54      0.345534  2 O  d  1              67      0.343518  3 H  py         
    20     -0.311429  1 O  d -2              72     -0.283632  4 H  px         
    22     -0.269085  1 O  d  0              52      0.226570  2 O  d -1       
    74      0.193892  4 H  pz                24     -0.182480  1 O  d  2       
    53      0.182719  2 O  d  0              64     -0.179835  3 H  s          
 
 Vector   25  Occ=0.000000D+00  E= 1.192304D+00
              MO Center= -8.3D+00,  2.6D+00,  5.1D-02, r^2= 1.5D+00
   Bfn.  Coefficient  Atom+Function         Bfn.  Coefficient  Atom+Function  
  ----- ------------  ---------------      ----- ------------  ---------------
    55     -0.444931  2 O  d  2              23      0.432496  1 O  d  1       
     5     -0.366006  1 O  s                 36     -0.366038  2 O  s          
    64      0.280463  3 H  s                 70      0.280475  4 H  s          
    24      0.241743  1 O  d  2              12      0.238839  1 O  px         
    44     -0.235062  2 O  py                68      0.234815  3 H  pz         
 
 Vector   26  Occ=0.000000D+00  E= 1.229742D+00
              MO Center= -8.4D+00,  2.7D+00,  1.0D-01, r^2= 1.7D+00
   Bfn.  Coefficient  Atom+Function         Bfn.  Coefficient  Atom+Function  
  ----- ------------  ---------------      ----- ------------  ---------------
     5      0.711571  1 O  s                 36     -0.711560  2 O  s          
    72      0.406418  4 H  px                20     -0.388162  1 O  d -2       
    67      0.360910  3 H  py                43     -0.268950  2 O  px         
    13     -0.252276  1 O  py                51      0.247338  2 O  d -2       
    55      0.244080  2 O  d  2              68      0.227277  3 H  pz         
 
 Vector   27  Occ=0.000000D+00  E= 1.527172D+00
              MO Center= -8.4D+00,  2.8D+00,  1.2D-01, r^2= 2.5D+00
   Bfn.  Coefficient  Atom+Function         Bfn.  Coefficient  Atom+Function  
  ----- ------------  ---------------      ----- ------------  ---------------
    64      2.069063  3 H  s                 70      2.065785  4 H  s          
    45     -0.733171  2 O  pz                12      0.692622  1 O  px         
     4     -0.636742  1 O  s                 35     -0.636342  2 O  s          
    52     -0.601417  2 O  d -1               5     -0.520711  1 O  s          
    24     -0.518216  1 O  d  2              36     -0.518664  2 O  s          
 
 Vector   28  Occ=0.000000D+00  E= 1.528307D+00
              MO Center= -8.4D+00,  2.7D+00,  1.1D-01, r^2= 2.4D+00
   Bfn.  Coefficient  Atom+Function         Bfn.  Coefficient  Atom+Function  
  ----- ------------  ---------------      ----- ------------  ---------------
    64      2.140370  3 H  s                 70     -2.143486  4 H  s          
     5     -1.342710  1 O  s                 36      1.343491  2 O  s          
    12      0.738780  1 O  px                44      0.634604  2 O  py         
    24     -0.617843  1 O  d  2              52      0.514998  2 O  d -1       
    23      0.421266  1 O  d  1              65     -0.413680  3 H  s          
 
 Vector   29  Occ=0.000000D+00  E= 1.621217D+00
              MO Center= -8.4D+00,  2.8D+00,  1.2D-01, r^2= 1.8D+00
   Bfn.  Coefficient  Atom+Function         Bfn.  Coefficient  Atom+Function  
  ----- ------------  ---------------      ----- ------------  ---------------
    73      0.413177  4 H  py                68      0.408613  3 H  pz         
    54      0.378105  2 O  d  1              64      0.321290  3 H  s          
    70      0.321321  4 H  s                 74     -0.311756  4 H  pz         
    51      0.300377  2 O  d -2              24     -0.274249  1 O  d  2       
    22     -0.267037  1 O  d  0              14     -0.260477  1 O  pz         
 
 Vector   30  Occ=0.000000D+00  E= 1.671694D+00
              MO Center= -8.3D+00,  2.6D+00,  3.7D-02, r^2= 1.5D+00
   Bfn.  Coefficient  Atom+Function         Bfn.  Coefficient  Atom+Function  
  ----- ------------  ---------------      ----- ------------  ---------------
    21      0.637357  1 O  d -1               5     -0.505033  1 O  s          
    36     -0.505022  2 O  s                  4      0.472492  1 O  s          
    35      0.472487  2 O  s                 64      0.461355  3 H  s          
    70      0.461365  4 H  s                 53     -0.440769  2 O  d  0       
    44     -0.382483  2 O  py                55      0.355512  2 O  d  2       
 
 Vector   31  Occ=0.000000D+00  E= 1.758293D+00
              MO Center= -8.4D+00,  2.7D+00,  9.3D-02, r^2= 1.8D+00
   Bfn.  Coefficient  Atom+Function         Bfn.  Coefficient  Atom+Function  
  ----- ------------  ---------------      ----- ------------  ---------------
     5      1.433631  1 O  s                 36     -1.433626  2 O  s          
    13     -0.693983  1 O  py                45      0.630859  2 O  pz         
    14      0.494287  1 O  pz                51     -0.495344  2 O  d -2       
    22     -0.460764  1 O  d  0              44     -0.453904  2 O  py         
    73      0.434966  4 H  py                43     -0.406516  2 O  px         
 
 Vector   32  Occ=0.000000D+00  E= 1.847859D+00
              MO Center= -8.3D+00,  2.7D+00,  7.1D-02, r^2= 2.2D+00
   Bfn.  Coefficient  Atom+Function         Bfn.  Coefficient  Atom+Function  
  ----- ------------  ---------------      ----- ------------  ---------------
     5      2.184173  1 O  s                 36     -2.184175  2 O  s          
     4     -1.081840  1 O  s                 35      1.081836  2 O  s          
    44     -0.975797  2 O  py                14      0.872422  1 O  pz         
    64      0.824016  3 H  s                 70     -0.824009  4 H  s          
     9      0.587536  1 O  px                12     -0.582441  1 O  px         
 
 Vector   33  Occ=0.000000D+00  E= 1.950996D+00
              MO Center= -8.4D+00,  2.8D+00,  1.5D-01, r^2= 1.9D+00
   Bfn.  Coefficient  Atom+Function         Bfn.  Coefficient  Atom+Function  
  ----- ------------  ---------------      ----- ------------  ---------------
    72     -0.731971  4 H  px                64      0.702732  3 H  s          
    70      0.702725  4 H  s                 67      0.531151  3 H  py         
    68      0.488634  3 H  pz                20      0.443040  1 O  d -2       
    42     -0.378074  2 O  pz                54     -0.375380  2 O  d  1       
    55      0.343398  2 O  d  2               9      0.338321  1 O  px         
 
 Vector   34  Occ=0.000000D+00  E= 2.026200D+00
              MO Center= -8.3D+00,  2.6D+00,  5.6D-02, r^2= 1.9D+00
   Bfn.  Coefficient  Atom+Function         Bfn.  Coefficient  Atom+Function  
  ----- ------------  ---------------      ----- ------------  ---------------
     5      1.256351  1 O  s                 36     -1.256349  2 O  s          
    20      0.612512  1 O  d -2              67      0.570242  3 H  py         
    13     -0.535842  1 O  py                72      0.535629  4 H  px         
    64     -0.518019  3 H  s                 70      0.518015  4 H  s          
    44     -0.499148  2 O  py                52      0.480308  2 O  d -1       
 
 Vector   35  Occ=0.000000D+00  E= 2.087827D+00
              MO Center= -8.3D+00,  2.7D+00,  7.0D-02, r^2= 1.8D+00
   Bfn.  Coefficient  Atom+Function         Bfn.  Coefficient  Atom+Function  
  ----- ------------  ---------------      ----- ------------  ---------------
    64      0.727069  3 H  s                 70     -0.727074  4 H  s          
    68      0.545548  3 H  pz                24     -0.522599  1 O  d  2       
    55     -0.512173  2 O  d  2              53     -0.497818  2 O  d  0       
    74      0.482504  4 H  pz                23     -0.476980  1 O  d  1       
     4     -0.455394  1 O  s                 35      0.455401  2 O  s          
 
 Vector   36  Occ=0.000000D+00  E= 2.101048D+00
              MO Center= -8.3D+00,  2.6D+00,  2.8D-02, r^2= 2.1D+00
   Bfn.  Coefficient  Atom+Function         Bfn.  Coefficient  Atom+Function  
  ----- ------------  ---------------      ----- ------------  ---------------
    64      0.865674  3 H  s                 70      0.865657  4 H  s          
     9      0.766794  1 O  px                42     -0.669073  2 O  pz         
    73     -0.573278  4 H  py                 4     -0.547727  1 O  s          
    35     -0.547718  2 O  s                 66      0.532964  3 H  px         
    22     -0.492418  1 O  d  0              41     -0.417586  2 O  py         
 
 Vector   37  Occ=0.000000D+00  E= 2.192300D+00
              MO Center= -8.4D+00,  2.8D+00,  1.3D-01, r^2= 2.3D+00
   Bfn.  Coefficient  Atom+Function         Bfn.  Coefficient  Atom+Function  
  ----- ------------  ---------------      ----- ------------  ---------------
    64     -1.473331  3 H  s                 70      1.473289  4 H  s          
     5      1.373634  1 O  s                 36     -1.373635  2 O  s          
     4      0.896126  1 O  s                 35     -0.896099  2 O  s          
    42     -0.796077  2 O  pz                45      0.770243  2 O  pz         
     9     -0.729632  1 O  px                14      0.717473  1 O  pz         
 
 Vector   38  Occ=0.000000D+00  E= 2.239374D+00
              MO Center= -8.3D+00,  2.7D+00,  8.0D-02, r^2= 2.0D+00
   Bfn.  Coefficient  Atom+Function         Bfn.  Coefficient  Atom+Function  
  ----- ------------  ---------------      ----- ------------  ---------------
    64      1.359837  3 H  s                 70      1.359900  4 H  s          
    42     -0.804760  2 O  pz                 4     -0.727790  1 O  s          
    35     -0.727815  2 O  s                 74     -0.673901  4 H  pz         
    10     -0.640767  1 O  py                 9      0.571107  1 O  px         
    68      0.490150  3 H  pz                43     -0.467413  2 O  px         
 
 Vector   39  Occ=0.000000D+00  E= 2.387397D+00
              MO Center= -8.3D+00,  2.6D+00,  4.2D-02, r^2= 1.8D+00
   Bfn.  Coefficient  Atom+Function         Bfn.  Coefficient  Atom+Function  
  ----- ------------  ---------------      ----- ------------  ---------------
    64      1.111310  3 H  s                 70      1.111336  4 H  s          
    11      0.833154  1 O  pz                 4     -0.811260  1 O  s          
    35     -0.811255  2 O  s                 40     -0.677556  2 O  px         
    38     -0.623818  2 O  py                74     -0.605667  4 H  pz         
    66      0.570583  3 H  px                41      0.562588  2 O  py         
 
 Vector   40  Occ=0.000000D+00  E= 2.402793D+00
              MO Center= -8.3D+00,  2.6D+00,  4.7D-02, r^2= 1.9D+00
   Bfn.  Coefficient  Atom+Function         Bfn.  Coefficient  Atom+Function  
  ----- ------------  ---------------      ----- ------------  ---------------
    64      0.908334  3 H  s                 70     -0.908342  4 H  s          
    45      0.758439  2 O  pz                74      0.702706  4 H  pz         
    66      0.624858  3 H  px                 6      0.578238  1 O  px         
    12      0.576205  1 O  px                 4     -0.569945  1 O  s          
    35      0.569943  2 O  s                 14      0.550345  1 O  pz         
 
 Vector   41  Occ=0.000000D+00  E= 2.462481D+00
              MO Center= -8.3D+00,  2.7D+00,  6.8D-02, r^2= 1.4D+00
   Bfn.  Coefficient  Atom+Function         Bfn.  Coefficient  Atom+Function  
  ----- ------------  ---------------      ----- ------------  ---------------
     4      0.959471  1 O  s                 35      0.959447  2 O  s          
    64     -0.933849  3 H  s                 70     -0.933834  4 H  s          
    41      0.797153  2 O  py                 8     -0.648182  1 O  pz         
    39      0.644960  2 O  pz                74      0.641128  4 H  pz         
     9     -0.593714  1 O  px                66     -0.555652  3 H  px         
 
 Vector   42  Occ=0.000000D+00  E= 2.582535D+00
              MO Center= -8.5D+00,  2.8D+00,  1.7D-01, r^2= 1.5D+00
   Bfn.  Coefficient  Atom+Function         Bfn.  Coefficient  Atom+Function  
  ----- ------------  ---------------      ----- ------------  ---------------
     5      2.192250  1 O  s                 36     -2.192445  2 O  s          
    64     -1.078162  3 H  s                 70      1.078331  4 H  s          
    40     -1.011280  2 O  px                 4     -0.905427  1 O  s          
    35      0.905568  2 O  s                  3      0.800046  1 O  s          
    34     -0.800187  2 O  s                 10     -0.779405  1 O  py         
 
 Vector   43  Occ=0.000000D+00  E= 2.589875D+00
              MO Center= -8.3D+00,  2.6D+00,  4.4D-02, r^2= 1.6D+00
   Bfn.  Coefficient  Atom+Function         Bfn.  Coefficient  Atom+Function  
  ----- ------------  ---------------      ----- ------------  ---------------
     5      1.476722  1 O  s                 36      1.476383  2 O  s          
    64     -1.277362  3 H  s                 70     -1.277196  4 H  s          
     3      1.080719  1 O  s                  4     -1.083923  1 O  s          
    34      1.080591  2 O  s                 35     -1.083782  2 O  s          
    66     -0.845234  3 H  px                10      0.609413  1 O  py         
 
 Vector   44  Occ=0.000000D+00  E= 2.689655D+00
              MO Center= -8.1D+00,  2.4D+00, -9.9D-02, r^2= 1.5D+00
   Bfn.  Coefficient  Atom+Function         Bfn.  Coefficient  Atom+Function  
  ----- ------------  ---------------      ----- ------------  ---------------
     5      2.677024  1 O  s                 36     -2.676977  2 O  s          
     4     -2.020164  1 O  s                 35      2.020077  2 O  s          
     3      1.304081  1 O  s                 34     -1.304030  2 O  s          
    41     -0.990360  2 O  py                 9     -0.744195  1 O  px         
    11      0.667028  1 O  pz                13     -0.618726  1 O  py         
 
 Vector   45  Occ=0.000000D+00  E= 2.732682D+00
              MO Center= -8.3D+00,  2.7D+00,  7.6D-02, r^2= 1.6D+00
   Bfn.  Coefficient  Atom+Function         Bfn.  Coefficient  Atom+Function  
  ----- ------------  ---------------      ----- ------------  ---------------
     4      2.354345  1 O  s                 35      2.354426  2 O  s          
     3     -1.498574  1 O  s                 34     -1.498631  2 O  s          
     5     -1.378241  1 O  s                 36     -1.378370  2 O  s          
    40     -0.726601  2 O  px                10      0.542023  1 O  py         
     9      0.489631  1 O  px                37      0.471775  2 O  px         
 
 Vector   46  Occ=0.000000D+00  E= 3.572750D+00
              MO Center= -8.4D+00,  2.8D+00,  1.2D-01, r^2= 1.7D+00
   Bfn.  Coefficient  Atom+Function         Bfn.  Coefficient  Atom+Function  
  ----- ------------  ---------------      ----- ------------  ---------------
     4      2.883783  1 O  s                 35     -2.883838  2 O  s          
     9     -1.666478  1 O  px                64     -1.520790  3 H  s          
    70      1.520812  4 H  s                  3     -1.398674  1 O  s          
    34      1.398705  2 O  s                 42     -1.401761  2 O  pz         
    66     -1.162695  3 H  px                74     -1.057738  4 H  pz         
 
 Vector   47  Occ=0.000000D+00  E= 3.615728D+00
              MO Center= -8.4D+00,  2.7D+00,  1.1D-01, r^2= 1.6D+00
   Bfn.  Coefficient  Atom+Function         Bfn.  Coefficient  Atom+Function  
  ----- ------------  ---------------      ----- ------------  ---------------
     4      2.492201  1 O  s                 35      2.492131  2 O  s          
     9     -1.692581  1 O  px                42      1.522223  2 O  pz         
    64     -1.301301  3 H  s                 70     -1.301257  4 H  s          
     3     -1.115570  1 O  s                 34     -1.115543  2 O  s          
    66     -1.092147  3 H  px                74      0.982221  4 H  pz         
 
 Vector   48  Occ=0.000000D+00  E= 3.932148D+00
              MO Center= -8.2D+00,  2.6D+00,  2.3D-02, r^2= 9.2D-01
   Bfn.  Coefficient  Atom+Function         Bfn.  Coefficient  Atom+Function  
  ----- ------------  ---------------      ----- ------------  ---------------
     4      1.746722  1 O  s                 35     -1.746723  2 O  s          
    42      1.698813  2 O  pz                11      1.558685  1 O  pz         
    10     -1.243890  1 O  py                 3     -1.205125  1 O  s          
    34      1.205125  2 O  s                 41     -0.997579  2 O  py         
    52      0.829174  2 O  d -1              21     -0.669088  1 O  d -1       
 
 Vector   49  Occ=0.000000D+00  E= 4.637758D+00
              MO Center= -8.2D+00,  2.6D+00,  2.2D-02, r^2= 1.0D+00
   Bfn.  Coefficient  Atom+Function         Bfn.  Coefficient  Atom+Function  
  ----- ------------  ---------------      ----- ------------  ---------------
    26      0.330272  1 O  f -2              28      0.325008  1 O  f  0       
    30      0.324877  1 O  f  2              61      0.308836  2 O  f  2       
    59      0.296324  2 O  f  0              57      0.293427  2 O  f -2       
    60      0.291504  2 O  f  1              25     -0.285012  1 O  f -3       
     9      0.271589  1 O  px                56     -0.258206  2 O  f -3       
 
 Vector   50  Occ=0.000000D+00  E= 4.710577D+00
              MO Center= -8.2D+00,  2.6D+00,  2.2D-02, r^2= 9.2D-01
   Bfn.  Coefficient  Atom+Function         Bfn.  Coefficient  Atom+Function  
  ----- ------------  ---------------      ----- ------------  ---------------
    27      0.453496  1 O  f -1              58     -0.386078  2 O  f -1       
    57      0.347684  2 O  f -2              61     -0.319324  2 O  f  2       
    31      0.305114  1 O  f  3              30      0.264941  1 O  f  2       
    26     -0.212394  1 O  f -2              62     -0.200186  2 O  f  3       
     5     -0.199114  1 O  s                 36     -0.199115  2 O  s          
 
 Vector   51  Occ=0.000000D+00  E= 4.730809D+00
              MO Center= -8.2D+00,  2.6D+00,  2.3D-02, r^2= 1.0D+00
   Bfn.  Coefficient  Atom+Function         Bfn.  Coefficient  Atom+Function  
  ----- ------------  ---------------      ----- ------------  ---------------
     4      0.553887  1 O  s                 35     -0.553881  2 O  s          
    26     -0.484800  1 O  f -2              62      0.438947  2 O  f  3       
     9     -0.430044  1 O  px                59      0.379295  2 O  f  0       
    27     -0.336882  1 O  f -1              28      0.305676  1 O  f  0       
    41     -0.295284  2 O  py                42     -0.268736  2 O  pz         
 
 Vector   52  Occ=0.000000D+00  E= 4.822166D+00
              MO Center= -8.2D+00,  2.6D+00,  1.4D-02, r^2= 1.0D+00
   Bfn.  Coefficient  Atom+Function         Bfn.  Coefficient  Atom+Function  
  ----- ------------  ---------------      ----- ------------  ---------------
    29      0.529603  1 O  f  1              56     -0.454264  2 O  f -3       
    60     -0.395059  2 O  f  1              25      0.282620  1 O  f -3       
    28     -0.227357  1 O  f  0              62     -0.219598  2 O  f  3       
    61      0.180628  2 O  f  2              27     -0.176682  1 O  f -1       
    31      0.162340  1 O  f  3              57     -0.153891  2 O  f -2       
 
 Vector   53  Occ=0.000000D+00  E= 4.921584D+00
              MO Center= -8.3D+00,  2.6D+00,  3.4D-02, r^2= 1.0D+00
   Bfn.  Coefficient  Atom+Function         Bfn.  Coefficient  Atom+Function  
  ----- ------------  ---------------      ----- ------------  ---------------
    31      0.540798  1 O  f  3              56      0.445801  2 O  f -3       
    59      0.395997  2 O  f  0              28     -0.308184  1 O  f  0       
    42      0.296321  2 O  pz                62     -0.289827  2 O  f  3       
    11      0.269937  1 O  pz                27     -0.255139  1 O  f -1       
    10     -0.196128  1 O  py                73      0.191302  4 H  py         
 
 Vector   54  Occ=0.000000D+00  E= 5.186670D+00
              MO Center= -8.3D+00,  2.6D+00,  3.6D-02, r^2= 9.9D-01
   Bfn.  Coefficient  Atom+Function         Bfn.  Coefficient  Atom+Function  
  ----- ------------  ---------------      ----- ------------  ---------------
    25      0.590097  1 O  f -3              56      0.446281  2 O  f -3       
    30      0.353005  1 O  f  2              61      0.343778  2 O  f  2       
    62      0.258879  2 O  f  3              57      0.231023  2 O  f -2       
    67     -0.226146  3 H  py                59     -0.220176  2 O  f  0       
    72     -0.219365  4 H  px                15     -0.152064  1 O  d -2       
 
 Vector   55  Occ=0.000000D+00  E= 5.254839D+00
              MO Center= -8.3D+00,  2.6D+00,  3.9D-02, r^2= 1.0D+00
   Bfn.  Coefficient  Atom+Function         Bfn.  Coefficient  Atom+Function  
  ----- ------------  ---------------      ----- ------------  ---------------
    56      0.416584  2 O  f -3              61      0.416798  2 O  f  2       
    29      0.383799  1 O  f  1              25     -0.365992  1 O  f -3       
    30     -0.366718  1 O  f  2              60     -0.292652  2 O  f  1       
    27      0.210001  1 O  f -1              57      0.209577  2 O  f -2       
    68      0.207510  3 H  pz                72     -0.206178  4 H  px         
 
 Vector   56  Occ=0.000000D+00  E= 5.293605D+00
              MO Center= -8.2D+00,  2.6D+00,  2.1D-02, r^2= 9.9D-01
   Bfn.  Coefficient  Atom+Function         Bfn.  Coefficient  Atom+Function  
  ----- ------------  ---------------      ----- ------------  ---------------
    29      0.607931  1 O  f  1              60      0.565615  2 O  f  1       
    62      0.316552  2 O  f  3              58      0.237417  2 O  f -1       
    27      0.207403  1 O  f -1              26     -0.192480  1 O  f -2       
    61     -0.191924  2 O  f  2              68      0.170530  3 H  pz         
    28     -0.161795  1 O  f  0              30     -0.161185  1 O  f  2       
 
 Vector   57  Occ=0.000000D+00  E= 5.312357D+00
              MO Center= -8.3D+00,  2.6D+00,  3.7D-02, r^2= 9.5D-01
   Bfn.  Coefficient  Atom+Function         Bfn.  Coefficient  Atom+Function  
  ----- ------------  ---------------      ----- ------------  ---------------
    62      0.541931  2 O  f  3              31      0.438310  1 O  f  3       
    28     -0.381020  1 O  f  0              25     -0.347208  1 O  f -3       
    59     -0.292493  2 O  f  0               9     -0.268118  1 O  px         
    58     -0.230379  2 O  f -1              74      0.227630  4 H  pz         
    60     -0.213756  2 O  f  1              42      0.204682  2 O  pz         
 
 Vector   58  Occ=0.000000D+00  E= 5.656373D+00
              MO Center= -8.2D+00,  2.6D+00,  1.5D-02, r^2= 9.6D-01
   Bfn.  Coefficient  Atom+Function         Bfn.  Coefficient  Atom+Function  
  ----- ------------  ---------------      ----- ------------  ---------------
     4      0.654892  1 O  s                 35      0.654874  2 O  s          
    59      0.573657  2 O  f  0               9     -0.553065  1 O  px         
    26      0.512498  1 O  f -2              42      0.501064  2 O  pz         
    64     -0.439270  3 H  s                 70     -0.439257  4 H  s          
    66     -0.392735  3 H  px                27      0.380748  1 O  f -1       
 
 Vector   59  Occ=0.000000D+00  E= 5.678464D+00
              MO Center= -8.3D+00,  2.6D+00,  2.6D-02, r^2= 8.7D-01
   Bfn.  Coefficient  Atom+Function         Bfn.  Coefficient  Atom+Function  
  ----- ------------  ---------------      ----- ------------  ---------------
    42      0.521624  2 O  pz                 9      0.460675  1 O  px         
     4     -0.410022  1 O  s                 35      0.410044  2 O  s          
    57      0.408530  2 O  f -2              28     -0.396410  1 O  f  0       
    19     -0.335326  1 O  d  2              59      0.332547  2 O  f  0       
    66      0.327145  3 H  px                64      0.316998  3 H  s          
 
 Vector   60  Occ=0.000000D+00  E= 5.868469D+00
              MO Center= -8.3D+00,  2.6D+00,  5.0D-02, r^2= 9.8D-01
   Bfn.  Coefficient  Atom+Function         Bfn.  Coefficient  Atom+Function  
  ----- ------------  ---------------      ----- ------------  ---------------
     4      0.769036  1 O  s                 35     -0.769067  2 O  s          
     9     -0.639250  1 O  px                42     -0.642006  2 O  pz         
    47     -0.515641  2 O  d -1              66     -0.489706  3 H  px         
    63     -0.472604  3 H  s                 69      0.472619  4 H  s          
    74     -0.462359  4 H  pz                11     -0.363096  1 O  pz         
 
 Vector   61  Occ=0.000000D+00  E= 5.960223D+00
              MO Center= -8.3D+00,  2.7D+00,  6.7D-02, r^2= 9.8D-01
   Bfn.  Coefficient  Atom+Function         Bfn.  Coefficient  Atom+Function  
  ----- ------------  ---------------      ----- ------------  ---------------
     4      0.919247  1 O  s                 35      0.919206  2 O  s          
     9     -0.677830  1 O  px                42      0.603854  2 O  pz         
    66     -0.495322  3 H  px                74      0.484071  4 H  pz         
    63     -0.466723  3 H  s                 69     -0.466702  4 H  s          
    18     -0.458001  1 O  d  1              48      0.403521  2 O  d  0       
 
 Vector   62  Occ=0.000000D+00  E= 6.142906D+00
              MO Center= -8.2D+00,  2.6D+00,  1.9D-02, r^2= 8.8D-01
   Bfn.  Coefficient  Atom+Function         Bfn.  Coefficient  Atom+Function  
  ----- ------------  ---------------      ----- ------------  ---------------
    50      0.681390  2 O  d  2              18     -0.511582  1 O  d  1       
    19     -0.507299  1 O  d  2              55     -0.347440  2 O  d  2       
    23      0.313630  1 O  d  1              17     -0.290953  1 O  d  0       
    46      0.274291  2 O  d -2              48      0.231325  2 O  d  0       
    49      0.231745  2 O  d  1              24      0.201781  1 O  d  2       
 
 Vector   63  Occ=0.000000D+00  E= 6.153620D+00
              MO Center= -8.2D+00,  2.6D+00,  1.8D-02, r^2= 8.7D-01
   Bfn.  Coefficient  Atom+Function         Bfn.  Coefficient  Atom+Function  
  ----- ------------  ---------------      ----- ------------  ---------------
     5      1.376492  1 O  s                 36     -1.376490  2 O  s          
    16      0.713957  1 O  d -1               4     -0.698343  1 O  s          
    35      0.698341  2 O  s                 48      0.589577  2 O  d  0       
    44     -0.463278  2 O  py                21     -0.443565  1 O  d -1       
    14      0.436576  1 O  pz                50     -0.389300  2 O  d  2       
 
 Vector   64  Occ=0.000000D+00  E= 6.180336D+00
              MO Center= -8.2D+00,  2.6D+00,  6.1D-03, r^2= 8.8D-01
   Bfn.  Coefficient  Atom+Function         Bfn.  Coefficient  Atom+Function  
  ----- ------------  ---------------      ----- ------------  ---------------
    15      0.643325  1 O  d -2              49     -0.554692  2 O  d  1       
    54      0.384943  2 O  d  1              47     -0.370351  2 O  d -1       
    17      0.364687  1 O  d  0              20     -0.366075  1 O  d -2       
    48     -0.311406  2 O  d  0              64      0.284339  3 H  s          
    70      0.284351  4 H  s                  4     -0.271406  1 O  s          
 
 Vector   65  Occ=0.000000D+00  E= 6.222472D+00
              MO Center= -8.2D+00,  2.6D+00,  1.7D-02, r^2= 8.7D-01
   Bfn.  Coefficient  Atom+Function         Bfn.  Coefficient  Atom+Function  
  ----- ------------  ---------------      ----- ------------  ---------------
     5      0.610647  1 O  s                 36     -0.610640  2 O  s          
    17      0.565392  1 O  d  0              46      0.566182  2 O  d -2       
    49      0.408858  2 O  d  1              18     -0.374119  1 O  d  1       
    51     -0.346384  2 O  d -2              15     -0.330697  1 O  d -2       
    22     -0.315216  1 O  d  0              48     -0.295654  2 O  d  0       
 
 Vector   66  Occ=0.000000D+00  E= 6.260301D+00
              MO Center= -8.2D+00,  2.6D+00,  2.2D-02, r^2= 9.2D-01
   Bfn.  Coefficient  Atom+Function         Bfn.  Coefficient  Atom+Function  
  ----- ------------  ---------------      ----- ------------  ---------------
    15      0.653268  1 O  d -2              46     -0.513315  2 O  d -2       
    20     -0.469325  1 O  d -2              18     -0.450911  1 O  d  1       
    50     -0.415295  2 O  d  2              49      0.356472  2 O  d  1       
     4      0.330302  1 O  s                 35     -0.330291  2 O  s          
    51      0.312146  2 O  d -2              47      0.309156  2 O  d -1       
 
 Vector   67  Occ=0.000000D+00  E= 6.544664D+00
              MO Center= -8.3D+00,  2.6D+00,  2.5D-02, r^2= 1.0D+00
   Bfn.  Coefficient  Atom+Function         Bfn.  Coefficient  Atom+Function  
  ----- ------------  ---------------      ----- ------------  ---------------
    64      0.874745  3 H  s                 70      0.874741  4 H  s          
     9      0.728413  1 O  px                42     -0.704995  2 O  pz         
    46      0.634960  2 O  d -2              51     -0.600182  2 O  d -2       
    16     -0.568135  1 O  d -1              24     -0.531119  1 O  d  2       
     4     -0.518382  1 O  s                 35     -0.518361  2 O  s          
 
 Vector   68  Occ=0.000000D+00  E= 6.636813D+00
              MO Center= -8.2D+00,  2.6D+00,  2.0D-02, r^2= 1.1D+00
   Bfn.  Coefficient  Atom+Function         Bfn.  Coefficient  Atom+Function  
  ----- ------------  ---------------      ----- ------------  ---------------
    64     -0.936845  3 H  s                 70      0.936837  4 H  s          
    24      0.916471  1 O  d  2               9     -0.841070  1 O  px         
     4      0.819810  1 O  s                 35     -0.819796  2 O  s          
    19     -0.723002  1 O  d  2              42     -0.709529  2 O  pz         
    54      0.678977  2 O  d  1               5      0.555080  1 O  s          
 
 Vector   69  Occ=0.000000D+00  E= 6.824639D+00
              MO Center= -8.2D+00,  2.6D+00,  1.6D-02, r^2= 1.0D+00
   Bfn.  Coefficient  Atom+Function         Bfn.  Coefficient  Atom+Function  
  ----- ------------  ---------------      ----- ------------  ---------------
    48      0.570054  2 O  d  0              53     -0.566982  2 O  d  0       
    17      0.563323  1 O  d  0              22     -0.553669  1 O  d  0       
    47     -0.526924  2 O  d -1              16     -0.483948  1 O  d -1       
    52      0.375585  2 O  d -1              21      0.340833  1 O  d -1       
    51      0.295096  2 O  d -2              58     -0.276341  2 O  f -1       
 
 Vector   70  Occ=0.000000D+00  E= 6.870544D+00
              MO Center= -8.2D+00,  2.6D+00,  2.1D-02, r^2= 1.1D+00
   Bfn.  Coefficient  Atom+Function         Bfn.  Coefficient  Atom+Function  
  ----- ------------  ---------------      ----- ------------  ---------------
     4      0.967644  1 O  s                 35     -0.967626  2 O  s          
    64     -0.866265  3 H  s                 70      0.866255  4 H  s          
    23     -0.788226  1 O  d  1              42     -0.754768  2 O  pz         
     9     -0.724900  1 O  px                52     -0.690175  2 O  d -1       
    53     -0.639775  2 O  d  0              66     -0.627227  3 H  px         
 
 Vector   71  Occ=0.000000D+00  E= 7.075425D+00
              MO Center= -8.2D+00,  2.6D+00,  2.1D-02, r^2= 1.1D+00
   Bfn.  Coefficient  Atom+Function         Bfn.  Coefficient  Atom+Function  
  ----- ------------  ---------------      ----- ------------  ---------------
     4      1.259316  1 O  s                 35      1.259306  2 O  s          
    64     -0.798418  3 H  s                 70     -0.798415  4 H  s          
     9     -0.755255  1 O  px                52      0.735878  2 O  d -1       
    23     -0.696809  1 O  d  1              63     -0.651800  3 H  s          
    69     -0.651794  4 H  s                 42      0.643681  2 O  pz         
 
 Vector   72  Occ=0.000000D+00  E= 7.846310D+00
              MO Center= -8.2D+00,  2.6D+00,  1.9D-02, r^2= 1.0D+00
   Bfn.  Coefficient  Atom+Function         Bfn.  Coefficient  Atom+Function  
  ----- ------------  ---------------      ----- ------------  ---------------
     4      2.236575  1 O  s                 35     -2.236579  2 O  s          
    42      1.916011  2 O  pz                11      1.855098  1 O  pz         
    10     -1.561332  1 O  py                52      1.501172  2 O  d -1       
    41     -1.454258  2 O  py                21     -1.387650  1 O  d -1       
     3     -1.349915  1 O  s                 34      1.349917  2 O  s          
 
 Vector   73  Occ=0.000000D+00  E= 4.269305D+01
              MO Center= -8.2D+00,  2.6D+00,  2.0D-02, r^2= 6.3D-01
   Bfn.  Coefficient  Atom+Function         Bfn.  Coefficient  Atom+Function  
  ----- ------------  ---------------      ----- ------------  ---------------
     2      1.196183  1 O  s                 33      1.196165  2 O  s          
     4      1.086058  1 O  s                 35      1.086034  2 O  s          
     3     -1.060614  1 O  s                 34     -1.060594  2 O  s          
     1     -0.982386  1 O  s                 32     -0.982371  2 O  s          
     5     -0.467971  1 O  s                 36     -0.467959  2 O  s          
 
 Vector   74  Occ=0.000000D+00  E= 4.318914D+01
              MO Center= -8.2D+00,  2.6D+00,  2.0D-02, r^2= 6.3D-01
   Bfn.  Coefficient  Atom+Function         Bfn.  Coefficient  Atom+Function  
  ----- ------------  ---------------      ----- ------------  ---------------
     4      1.518509  1 O  s                 35     -1.518525  2 O  s          
     3     -1.291710  1 O  s                 34      1.291726  2 O  s          
     2      1.218433  1 O  s                 33     -1.218451  2 O  s          
     1     -0.985810  1 O  s                 32      0.985824  2 O  s          
     5     -0.684253  1 O  s                 36      0.684259  2 O  s          
 

 center of mass
 --------------
 x = -15.61131346 y =   4.91631941 z =   0.05853750

 moments of inertia (a.u.)
 ------------------
          66.755836011146          -8.043756531497           8.331317681741
          -8.043756531497          47.258403284838          29.622815417105
           8.331317681741          29.622815417105          30.782807727164
 
     Multipole analysis of the density
     ---------------------------------
 
     L   x y z        total         alpha         beta         nuclear
     -   - - -        -----         -----         ----         -------
     0   0 0 0     -0.000000     -9.000000     -9.000000     18.000000
 
     1   1 0 0     -0.392593    140.558804    140.558804   -281.510202
     1   0 1 0      0.475229    -44.315869    -44.315869     89.106966
     1   0 0 1      0.270381     -0.566079     -0.566079      1.402540
 
     2   2 0 0      3.520118  -2201.400595  -2201.400595   4406.321307
     2   1 1 0    -10.135422    690.076242    690.076242  -1390.287907
     2   1 0 1     -2.595513     11.031732     11.031732    -24.658978
     2   0 2 0     -4.857755   -229.609666   -229.609666    454.361578
     2   0 1 1      1.286618      5.067743      5.067743     -8.848867
     2   0 0 2     -6.371830    -15.912401    -15.912401     25.452972
 
 
            General Information
            -------------------
          SCF calculation type: DFT
          Wavefunction type:  closed shell.
          No. of atoms     :     4
          No. of electrons :    18
           Alpha electrons :     9
            Beta electrons :     9
          Charge           :     0
          Spin multiplicity:     1
          Use of symmetry is: off; symmetry adaption is: off
          Maximum number of iterations: 250
          This is a Direct SCF calculation.
          AO basis - number of functions:    74
                     number of shells:    30
          Convergence on energy requested:  1.00D-08
          Convergence on density requested:  1.00D-05
          Convergence on gradient requested:  1.00D-08
 
              XC Information
              --------------
                    Becke 1988 Exchange Functional  1.000          
              Lee-Yang-Parr Correlation Functional  1.000          
 
             Grid Information
             ----------------
          Grid used for XC integration:  xfine     
          Radial quadrature: Mura-Knowles        
          Angular quadrature: Lebedev. 
          Tag              B.-S. Rad. Rad. Pts. Rad. Cut. Ang. Pts.
          ---              ---------- --------- --------- ---------
          O                   0.60      100           8.0      1454
          H                   0.35      100           9.0      1202
          Grid pruning is: on 
          Number of quadrature shells:   400
          Spatial weights used:  Erf1
 
          Convergence Information
          -----------------------
          Convergence aids based upon iterative change in 
          total energy or number of iterations. 
          Levelshifting, if invoked, occurs when the 
          HOMO/LUMO gap drops below (HL_TOL):  1.00D-02
          DIIS, if invoked, will attempt to extrapolate 
          using up to (NFOCK): 10 stored Fock matrices.

                    Damping( 0%)  Levelshifting(0.0)       DIIS
                  --------------- ------------------- ---------------
          dE  on:    start             N/A                start   
          dE off:    2 iters           N/A              250 iters 

 
      Screening Tolerance Information
      -------------------------------
          Density screening/tol_rho:  1.00D-11
          AO Gaussian exp screening on grid/accAOfunc:  18
          CD Gaussian exp screening on grid/accCDfunc:  20
          XC Gaussian exp screening on grid/accXCfunc:  20
          Schwarz screening/accCoul:  1.00D-09

 
 
                            NWChem DFT Gradient Module
                            --------------------------
 
 
                         h2o2 roa calculations at 514.5 nm, input generated by va with delta_type=2
 
 

  charge          =   0.00
  wavefunction    = closed shell



                         DFT ENERGY GRADIENTS

    atom               coordinates                        gradient
                 x          y          z           x          y          z
   1 O     -15.230498   5.737739  -0.969736   -0.005074  -0.012210   0.014884
   2 O     -15.927769   4.016989   1.042486    0.004703   0.012658  -0.014632
   3 H     -16.892185   6.098408  -1.699119    0.000056  -0.000297  -0.000188
   4 H     -15.351881   4.970735   2.519653    0.000315  -0.000152  -0.000064
 
                 ----------------------------------------
                 |  Time  |  1-e(secs)   |  2-e(secs)   |
                 ----------------------------------------
                 |  CPU   |       0.01   |       2.25   |
                 ----------------------------------------
                 |  WALL  |       0.01   |       2.25   |
                 ----------------------------------------

 Task  times  cpu:       34.6s     wall:       36.2s
 
 
                                NWChem Input Module
                                -------------------
 
 
                              NWChem Property Module
                              ----------------------
 
 
                         h2o2 roa calculations at 514.5 nm, input generated by va with delta_type=2
 
 
                                 NWChem DFT Module
                                 -----------------
 
 
                         h2o2 roa calculations at 514.5 nm, input generated by va with delta_type=2
 
 


 Summary of "ao basis" -> "ao basis" (spherical)
 ------------------------------------------------------------------------------
       Tag                 Description            Shells   Functions and Types
 ---------------- ------------------------------  ------  ---------------------
 O                         def2-TZVP                11       31   5s3p2d1f
 H                         def2-TZVP                 4        6   3s1p


  Caching 1-el integrals 
 
            General Information
            -------------------
          SCF calculation type: DFT
          Wavefunction type:  closed shell.
          No. of atoms     :     4
          No. of electrons :    18
           Alpha electrons :     9
            Beta electrons :     9
          Charge           :     0
          Spin multiplicity:     1
          Use of symmetry is: off; symmetry adaption is: off
          Maximum number of iterations: 250
          This is a Direct SCF calculation.
          AO basis - number of functions:    74
                     number of shells:    30
          Convergence on energy requested:  1.00D-08
          Convergence on density requested:  1.00D-05
          Convergence on gradient requested:  1.00D-08
 
              XC Information
              --------------
                    Becke 1988 Exchange Functional  1.000          
              Lee-Yang-Parr Correlation Functional  1.000          
 
             Grid Information
             ----------------
          Grid used for XC integration:  xfine     
          Radial quadrature: Mura-Knowles        
          Angular quadrature: Lebedev. 
          Tag              B.-S. Rad. Rad. Pts. Rad. Cut. Ang. Pts.
          ---              ---------- --------- --------- ---------
          O                   0.60      100           8.0      1454
          H                   0.35      100           9.0      1202
          Grid pruning is: on 
          Number of quadrature shells:   400
          Spatial weights used:  Erf1
 
          Convergence Information
          -----------------------
          Convergence aids based upon iterative change in 
          total energy or number of iterations. 
          Levelshifting, if invoked, occurs when the 
          HOMO/LUMO gap drops below (HL_TOL):  1.00D-02
          DIIS, if invoked, will attempt to extrapolate 
          using up to (NFOCK): 10 stored Fock matrices.

                    Damping( 0%)  Levelshifting(0.0)       DIIS
                  --------------- ------------------- ---------------
          dE  on:    start             N/A                start   
          dE off:    2 iters           N/A              250 iters 

 
      Screening Tolerance Information
      -------------------------------
          Density screening/tol_rho:  1.00D-11
          AO Gaussian exp screening on grid/accAOfunc:  18
          CD Gaussian exp screening on grid/accCDfunc:  20
          XC Gaussian exp screening on grid/accXCfunc:  20
          Schwarz screening/accCoul:  1.00D-09


 Loading old vectors from job with title :

h2o2 roa calculations at 514.5 nm, input generated by va with delta_type=2

   Time after variat. SCF:     36.8
   Time prior to 1st pass:     36.8

 Grid_pts file          = ./h2o2_514.5_02.inp.gridpts.0
 Record size in doubles =  12289        No. of grid_pts per rec  =   3070
 Max. records in memory =    210        Max. recs in file   =   3881632


           Memory utilization after 1st SCF pass: 
           Heap Space remaining (MW):       10.52            10522928
          Stack Space remaining (MW):       13.11            13106668

   convergence    iter        energy       DeltaE   RMS-Dens  Diis-err    time
 ---------------- ----- ----------------- --------- --------- ---------  ------
 d= 0,ls=0.0,diis     1   -151.6003819725 -1.88D+02  5.54D-07  1.09D-09    40.3
 d= 0,ls=0.0,diis     2   -151.6003819718  6.81D-10  4.11D-07  9.05D-09    43.7


         Total DFT energy =     -151.600381971835
      One electron energy =     -281.262410372016
           Coulomb energy =      110.776814810263
    Exchange-Corr. energy =      -17.829635903558
 Nuclear repulsion energy =       36.714849493476

 Numeric. integr. density =       17.999999997147

     Total iterative time =      6.9s


 
                       DFT Final Molecular Orbital Analysis
                       ------------------------------------
 
 Vector    1  Occ=2.000000D+00  E=-1.882952D+01
              MO Center= -8.2D+00,  2.6D+00,  2.1D-02, r^2= 5.4D-01
   Bfn.  Coefficient  Atom+Function         Bfn.  Coefficient  Atom+Function  
  ----- ------------  ---------------      ----- ------------  ---------------
     2      0.450797  1 O  s                 33     -0.452324  2 O  s          
     1      0.307362  1 O  s                 32     -0.308403  2 O  s          
     3      0.027549  1 O  s                 34     -0.027634  2 O  s          
 
 Vector    2  Occ=2.000000D+00  E=-1.882949D+01
              MO Center= -8.2D+00,  2.6D+00,  1.7D-02, r^2= 5.4D-01
   Bfn.  Coefficient  Atom+Function         Bfn.  Coefficient  Atom+Function  
  ----- ------------  ---------------      ----- ------------  ---------------
     2      0.452505  1 O  s                 33      0.450978  2 O  s          
     1      0.308380  1 O  s                 32      0.307339  2 O  s          
     3      0.025382  1 O  s                 34      0.025289  2 O  s          
 
 Vector    3  Occ=2.000000D+00  E=-1.022206D+00
              MO Center= -8.3D+00,  2.6D+00,  5.1D-02, r^2= 7.7D-01
   Bfn.  Coefficient  Atom+Function         Bfn.  Coefficient  Atom+Function  
  ----- ------------  ---------------      ----- ------------  ---------------
     4      0.311019  1 O  s                 35      0.311018  2 O  s          
     3      0.238785  1 O  s                 34      0.238784  2 O  s          
     2     -0.162930  1 O  s                 33     -0.162930  2 O  s          
     5      0.093122  1 O  s                 36      0.093121  2 O  s          
    38      0.074516  2 O  py                 1     -0.070012  1 O  s          
 
 Vector    4  Occ=2.000000D+00  E=-8.127048D-01
              MO Center= -8.3D+00,  2.7D+00,  7.2D-02, r^2= 1.2D+00
   Bfn.  Coefficient  Atom+Function         Bfn.  Coefficient  Atom+Function  
  ----- ------------  ---------------      ----- ------------  ---------------
     4      0.325529  1 O  s                 35     -0.325530  2 O  s          
     3      0.251799  1 O  s                 34     -0.251799  2 O  s          
     2     -0.165917  1 O  s                 33      0.165917  2 O  s          
     5      0.141620  1 O  s                 36     -0.141621  2 O  s          
    39     -0.094621  2 O  pz                63      0.092385  3 H  s          
 
 Vector    5  Occ=2.000000D+00  E=-4.825903D-01
              MO Center= -8.3D+00,  2.7D+00,  6.3D-02, r^2= 1.3D+00
   Bfn.  Coefficient  Atom+Function         Bfn.  Coefficient  Atom+Function  
  ----- ------------  ---------------      ----- ------------  ---------------
    39      0.309860  2 O  pz                42      0.241437  2 O  pz         
     7      0.211410  1 O  py                 8     -0.201553  1 O  pz         
    10      0.169096  1 O  py                11     -0.158067  1 O  pz         
    64      0.130414  3 H  s                 70      0.130414  4 H  s          
     6     -0.114043  1 O  px                63      0.107878  3 H  s          
 
 Vector    6  Occ=2.000000D+00  E=-4.355314D-01
              MO Center= -8.3D+00,  2.6D+00,  3.6D-02, r^2= 1.3D+00
   Bfn.  Coefficient  Atom+Function         Bfn.  Coefficient  Atom+Function  
  ----- ------------  ---------------      ----- ------------  ---------------
     6      0.252043  1 O  px                 9      0.188263  1 O  px         
    37      0.182637  2 O  px                 4      0.156628  1 O  s          
    35     -0.156627  2 O  s                  5      0.152441  1 O  s          
    36     -0.152440  2 O  s                 39      0.151428  2 O  pz         
    38      0.148994  2 O  py                40      0.141438  2 O  px         
 
 Vector    7  Occ=2.000000D+00  E=-3.674534D-01
              MO Center= -8.2D+00,  2.5D+00, -2.3D-02, r^2= 1.3D+00
   Bfn.  Coefficient  Atom+Function         Bfn.  Coefficient  Atom+Function  
  ----- ------------  ---------------      ----- ------------  ---------------
    38      0.317350  2 O  py                41      0.248279  2 O  py         
     6     -0.234676  1 O  px                 8      0.218918  1 O  pz         
     9     -0.180138  1 O  px                11      0.176289  1 O  pz         
    44      0.163995  2 O  py                 5     -0.126794  1 O  s          
    36     -0.126795  2 O  s                 14      0.119970  1 O  pz         
 
 Vector    8  Occ=2.000000D+00  E=-2.724966D-01
              MO Center= -8.3D+00,  2.6D+00,  5.5D-02, r^2= 1.3D+00
   Bfn.  Coefficient  Atom+Function         Bfn.  Coefficient  Atom+Function  
  ----- ------------  ---------------      ----- ------------  ---------------
    37      0.341491  2 O  px                 7     -0.265841  1 O  py         
    40      0.266018  2 O  px                10     -0.213240  1 O  py         
    43      0.213495  2 O  px                13     -0.170048  1 O  py         
     6     -0.163240  1 O  px                 8     -0.150183  1 O  pz         
     5     -0.133819  1 O  s                 36     -0.133820  2 O  s          
 
 Vector    9  Occ=2.000000D+00  E=-2.248632D-01
              MO Center= -8.2D+00,  2.6D+00,  6.5D-03, r^2= 1.2D+00
   Bfn.  Coefficient  Atom+Function         Bfn.  Coefficient  Atom+Function  
  ----- ------------  ---------------      ----- ------------  ---------------
    37      0.279094  2 O  px                 7      0.273942  1 O  py         
    38     -0.220265  2 O  py                40      0.220863  2 O  px         
[...]
    64      0.874737  3 H  s                 70      0.874749  4 H  s          
     9      0.728405  1 O  px                42     -0.705002  2 O  pz         
    46      0.634959  2 O  d -2              51     -0.600183  2 O  d -2       
    16     -0.568138  1 O  d -1              24     -0.531112  1 O  d  2       
     4     -0.518372  1 O  s                 35     -0.518372  2 O  s          
 
 Vector   68  Occ=0.000000D+00  E= 6.636813D+00
              MO Center= -8.2D+00,  2.6D+00,  2.0D-02, r^2= 1.1D+00
   Bfn.  Coefficient  Atom+Function         Bfn.  Coefficient  Atom+Function  
  ----- ------------  ---------------      ----- ------------  ---------------
    64     -0.936851  3 H  s                 70      0.936832  4 H  s          
    24      0.916475  1 O  d  2               9     -0.841075  1 O  px         
     4      0.819811  1 O  s                 35     -0.819795  2 O  s          
    19     -0.723006  1 O  d  2              42     -0.709525  2 O  pz         
    54      0.678977  2 O  d  1               5      0.555083  1 O  s          
 
 Vector   69  Occ=0.000000D+00  E= 6.824638D+00
              MO Center= -8.2D+00,  2.6D+00,  1.6D-02, r^2= 1.0D+00
   Bfn.  Coefficient  Atom+Function         Bfn.  Coefficient  Atom+Function  
  ----- ------------  ---------------      ----- ------------  ---------------
    48      0.570054  2 O  d  0              53     -0.566983  2 O  d  0       
    17      0.563325  1 O  d  0              22     -0.553670  1 O  d  0       
    47     -0.526922  2 O  d -1              16     -0.483948  1 O  d -1       
    52      0.375583  2 O  d -1              21      0.340832  1 O  d -1       
    51      0.295095  2 O  d -2              58     -0.276342  2 O  f -1       
 
 Vector   70  Occ=0.000000D+00  E= 6.870544D+00
              MO Center= -8.2D+00,  2.6D+00,  2.1D-02, r^2= 1.1D+00
   Bfn.  Coefficient  Atom+Function         Bfn.  Coefficient  Atom+Function  
  ----- ------------  ---------------      ----- ------------  ---------------
     4      0.967638  1 O  s                 35     -0.967631  2 O  s          
    64     -0.866262  3 H  s                 70      0.866257  4 H  s          
    23     -0.788223  1 O  d  1              42     -0.754770  2 O  pz         
     9     -0.724897  1 O  px                52     -0.690178  2 O  d -1       
    53     -0.639775  2 O  d  0              66     -0.627225  3 H  px         
 
 Vector   71  Occ=0.000000D+00  E= 7.075425D+00
              MO Center= -8.2D+00,  2.6D+00,  2.1D-02, r^2= 1.1D+00
   Bfn.  Coefficient  Atom+Function         Bfn.  Coefficient  Atom+Function  
  ----- ------------  ---------------      ----- ------------  ---------------
     4      1.259324  1 O  s                 35      1.259298  2 O  s          
    64     -0.798424  3 H  s                 70     -0.798409  4 H  s          
     9     -0.755260  1 O  px                52      0.735875  2 O  d -1       
    23     -0.696813  1 O  d  1              63     -0.651803  3 H  s          
    69     -0.651790  4 H  s                 42      0.643678  2 O  pz         
 
 Vector   72  Occ=0.000000D+00  E= 7.846310D+00
              MO Center= -8.2D+00,  2.6D+00,  1.9D-02, r^2= 1.0D+00
   Bfn.  Coefficient  Atom+Function         Bfn.  Coefficient  Atom+Function  
  ----- ------------  ---------------      ----- ------------  ---------------
     4      2.236574  1 O  s                 35     -2.236580  2 O  s          
    42      1.916011  2 O  pz                11      1.855098  1 O  pz         
    10     -1.561332  1 O  py                52      1.501172  2 O  d -1       
    41     -1.454258  2 O  py                21     -1.387651  1 O  d -1       
     3     -1.349915  1 O  s                 34      1.349917  2 O  s          
 
 Vector   73  Occ=0.000000D+00  E= 4.269305D+01
              MO Center= -8.2D+00,  2.6D+00,  2.0D-02, r^2= 6.3D-01
   Bfn.  Coefficient  Atom+Function         Bfn.  Coefficient  Atom+Function  
  ----- ------------  ---------------      ----- ------------  ---------------
     2      1.196174  1 O  s                 33      1.196174  2 O  s          
     4      1.086047  1 O  s                 35      1.086045  2 O  s          
     3     -1.060604  1 O  s                 34     -1.060603  2 O  s          
     1     -0.982379  1 O  s                 32     -0.982378  2 O  s          
     5     -0.467966  1 O  s                 36     -0.467964  2 O  s          
 
 Vector   74  Occ=0.000000D+00  E= 4.318914D+01
              MO Center= -8.2D+00,  2.6D+00,  2.0D-02, r^2= 6.3D-01
   Bfn.  Coefficient  Atom+Function         Bfn.  Coefficient  Atom+Function  
  ----- ------------  ---------------      ----- ------------  ---------------
     4      1.518517  1 O  s                 35     -1.518517  2 O  s          
     3     -1.291718  1 O  s                 34      1.291718  2 O  s          
     2      1.218441  1 O  s                 33     -1.218442  2 O  s          
     1     -0.985817  1 O  s                 32      0.985817  2 O  s          
     5     -0.684256  1 O  s                 36      0.684256  2 O  s          
 

 center of mass
 --------------
 x = -15.61131346 y =   4.91631941 z =   0.05853750

 moments of inertia (a.u.)
 ------------------
          66.755836011146          -8.043756531497           8.331317681741
          -8.043756531497          47.258403284838          29.622815417105
           8.331317681741          29.622815417105          30.782807727164
 
     Multipole analysis of the density
     ---------------------------------
 
     L   x y z        total         alpha         beta         nuclear
     -   - - -        -----         -----         ----         -------
     0   0 0 0      0.000000     -9.000000     -9.000000     18.000000
 
     1   1 0 0     -0.392584    140.558809    140.558809   -281.510202
     1   0 1 0      0.475244    -44.315861    -44.315861     89.106966
     1   0 0 1      0.270369     -0.566085     -0.566085      1.402540
 
     2   2 0 0      3.519842  -2201.400732  -2201.400732   4406.321307
     2   1 1 0    -10.135609    690.076149    690.076149  -1390.287907
     2   1 0 1     -2.595330     11.031824     11.031824    -24.658978
     2   0 2 0     -4.857606   -229.609592   -229.609592    454.361578
     2   0 1 1      1.286561      5.067714      5.067714     -8.848867
     2   0 0 2     -6.371820    -15.912396    -15.912396     25.452972
 
 *** CALLING NEW AORESP DRIVER FOR CLOSED AND OPEN SHELLS ***
 Entering AOResponse driver routine


--------------------------------------------------------------------------------

          ****************
          *** RESPONSE ***
          ****************

 Response module for NWChem and dynamic CPKS solver
 developed by J. Autschbach and coworkers, SUNY Buffalo
 The methodology used in this program is described in 
 ChemPhysChem 12 (2011), 3224-3235 (main reference)
 J. Chem. Phys. 123 (2005), 114103
 J. Chem. Phys. 122 (2005), 224115
 J. Chem. Phys. 122 (2005), 074105
 Comp. Lett. 3 (2007), 131-150 (contact JA for a copy)
 Please cite this work in publications based on results
 obtained with this code. Thank you!

 For extension of response module to open shell
 calculations please acknowledge:
 F. Aquino, Northwestern University, Schatz Rsrch Group
 The update to the methodology is described in
 J. Phys. Chem. A 118 (2014) 517-525



          -----------------------------------------------
          Solving response equations for perturbing field
          -----------------------------------------------

 number of frequencies:     1
 frequency in a.u.:  0.8855800E-01
 Perturbing field: electric
 Using GIAO formalism for OptRot
 Adding quadrupole terms to OptRot
 to create an origin in dependent tensor.
 Using El. Dipole Length Gauge
 
 Applying DAMPING constant of  0.003700 a.u.
 
 Setting up CPKS
 with frequency omega =      0.08855800 a.u.
 and a damping of            0.00370000 a.u.

 
                            NWChem Dynamic CPHF Module
                            --------------------------
 
 
    scftype = RHF 
    nclosed =    9
      nopen =    0
  variables =     2340
  num. vecs =        3
  tolerance =   1.0D-09
  max. iter =  100

 SCF residual:   1.753478134386814E-006


Iterative solution of linear equations
  No. of variables     1170
  No. of equations        3
  Maximum subspace       99
       Convergence  1.0D-09
        Start time     47.3


   iter   nsub   residual    time 
   ----  ------  --------  --------- 
 dft_CPHF2_read: failed to open./h2o2_514.5_02.inp.aoresp_fiao_f1
     1      3    4.00D+00      74.4
     2      6    1.85D+00     102.1
     3      9    1.58D-01     129.4
     4     12    7.08D-03     156.6
     5     15    1.91D-03     183.7
     6     18    2.64D-04     211.0
     7     21    2.30D-05     238.4
     8     24    8.22D-07     265.8
     9     27    4.78D-08     293.2
    10     30    4.14D-09     320.7
    11     33    3.78D-10     348.1

 Calculating some arrays needed for GIAO optical rotation

    0 giaofock schwarz done =      98.67%
    0 giaofock schwarz done =      98.67%
 aor_r1_tensor_giao: roadata output requested
 dip-quad polarizability Re:

              1        2        3        4        5        6      
    1 -331.9739  46.0139 -11.2995   4.6000   5.1040   0.0219
    2  -17.3160-180.6306  49.3930 115.0879 -13.7531   3.6222
    3  -19.4211  51.4569-244.8270 -31.8555  80.0676   8.6145
 traceless dip-quad polarizability:

              1        2        3      
    1 -334.2848  69.0208 -16.9493
    2   69.0208 170.5760   7.6560
    3  -16.9493   7.6560 163.7089

              1        2        3      
    1  -76.6711-270.9458  74.0894
    2 -270.9458 121.9348 -20.6297
    3   74.0894 -20.6297 -45.2637

              1        2        3      
    1   -7.8006  77.1853-367.2404
    2   77.1853 -26.4522 120.1014
    3 -367.2404 120.1014  34.2528

 roa begin

 alpha real:
 XX       0.1053467322750E+02
 XY       0.5695193897361E+00
 XZ       0.5614648869060E+00
 YX       0.5695193897428E+00
 YY       0.1165204598881E+02
 YZ      -0.3028659690182E+01
 ZX       0.5614648868942E+00
 ZY      -0.3028659690166E+01
 ZZ       0.1559757378962E+02

 alpha im:
 XX       0.2197772621665E-01
 XY       0.9869531003421E-03
 XZ      -0.1633168320088E-03
 YX       0.9869532796082E-03
 YY       0.2773409600998E-01
 YZ      -0.1058756561937E-01
 ZX      -0.1633168438020E-03
 ZY      -0.1058756540985E-01
 ZZ       0.3926922820168E-01

 beta real:
 XX      -0.1034186125477E+00
 XY      -0.3014422788248E+00
 XZ       0.2823058779877E+01
 YX       0.6896490080013E+00
 YY       0.1930097890364E+01
 YZ       0.8085709458257E+01
 ZX      -0.3066929201386E+01
 ZY      -0.1070987964188E+02
 ZZ      -0.1825281307918E+01

 G-prime = -omega beta(real):
 XX      -0.1034186125477E+00
 XY      -0.3014422788248E+00
 XZ       0.2823058779877E+01
 YX       0.6896490080013E+00
 YY       0.1930097890364E+01
 YZ       0.8085709458257E+01
 ZX      -0.3066929201386E+01
 ZY      -0.1070987964188E+02
 ZZ      -0.1825281307918E+01

 beta im:
 XX      -0.2545781726916E-02
 XY      -0.5281132194778E-02
 XZ       0.5199031517569E-01
 YX       0.3025913762139E-01
 YY       0.8392981475183E-01
 YZ       0.1191353020116E+00
 ZX      -0.5652435587568E-01
 ZY      -0.2208488696074E+00
 ZZ      -0.8228924871176E-01

 G-prime = -omega beta(imag):
 XX      -0.2545781726916E-02
 XY      -0.5281132194778E-02
 XZ       0.5199031517569E-01
 YX       0.3025913762139E-01
 YY       0.8392981475183E-01
 YZ       0.1191353020116E+00
 ZX      -0.5652435587568E-01
 ZY      -0.2208488696074E+00
 ZZ      -0.8228924871176E-01

 dipole-quadrupole real (Cartesian):
 XXX     -0.3319738799808E+03
 XXY      0.4601389264223E+02
 XXZ     -0.1129951081654E+02
 XYY      0.4599983132535E+01
 XYZ      0.5103970334309E+01
 XZZ      0.2193730133410E-01
 YXX     -0.1731603425094E+02
 YXY     -0.1806305554068E+03
 YXZ      0.4939295524256E+02
 YYY      0.1150878787537E+03
 YYZ     -0.1375311047609E+02
 YZZ      0.3622242582341E+01
 ZXX     -0.1942111116381E+02
 ZXY      0.5145688360069E+02
 ZXZ     -0.2448269593107E+03
 ZYY     -0.3185548778925E+02
 ZYZ      0.8006758586907E+02
 ZZZ      0.8614547732417E+01

 dipole-quadrupole imag (Cartesian):
 XXX     -0.6966940966712E+00
 XXY      0.1045953895236E+00
 XXZ     -0.6035969800092E-02
 XYY      0.5668170165521E-02
 XYZ      0.5117849423139E-02
 XZZ     -0.4270642368847E-02
 YXX     -0.2787851236178E-01
 YXY     -0.4387865596913E+00
 YXZ      0.1772810718912E+00
 YYY      0.2826999667983E+00
 YYZ     -0.5198474255524E-01
 YZZ      0.8557053718205E-02
 ZXX      0.4393079227706E-03
 ZXY      0.1714018616991E+00
 ZXZ     -0.6247783968110E+00
 ZYY     -0.1205900586667E+00
 ZYZ      0.2103008224572E+00
 ZZZ      0.3867782715682E-01

 dipole-quadrupole (traceless):
 XXX     -0.3342848401977E+03
 XXY      0.6902083896334E+02
 XXZ     -0.1694926622481E+02
 XYY      0.1705759544723E+03
 XYZ      0.7655955501463E+01
 XZZ      0.1637088857255E+03
 YXX     -0.7667109491894E+02
 YXY     -0.2709458331101E+03
 YXZ      0.7408943286384E+02
 YYY      0.1219347745880E+03
 YYZ     -0.2062966571413E+02
 YZZ     -0.4526367966902E+02
 ZXX     -0.7800641135395E+01
 ZXY      0.7718532540104E+02
 ZXZ     -0.3672404389660E+03
 ZYY     -0.2645220607355E+02
 ZYZ      0.1201013788036E+03
 ZZZ      0.3425284720895E+02

 roa end


 Electric Dipole Response Matrix (nonzero elements):

              1        2        3      
    1   10.5347   0.5695   0.5615
    2    0.5695  11.6520  -3.0287
    3    0.5615  -3.0287  15.5976
 
 Imaginary part:

              1        2        3      
    1    0.0220   0.0010  -0.0002
    2    0.0010   0.0277  -0.0106
    3   -0.0002  -0.0106   0.0393

 ------------------------------------------
 average:        12.59476 + I       0.02966


 DFT Linear Response polarizability / au 
 Frequency  =       0.0885580 / au
 Wavelength =     514.5029585 / nm
              X              Y              Z
 -----------------------------------------------
 X      10.5346732      0.5695194      0.5614649
 Y       0.5695194     11.6520460     -3.0286597
 Z       0.5614649     -3.0286597     15.5975738
 -----------------------------------------------
 Eigenvalues =      11.0789641      9.4585771     17.2467517
 Isotropic   =      12.5947643
 Anisotropic =       5.8115667
 -----------------------------------------------
 *************************

 DFT Linear Response IMAG polarizability / au 
 Frequency  =       0.0885580 / au
 Wavelength =     514.5029585 / nm
              X              Y              Z
 -----------------------------------------------
 X       0.0219777      0.0009870     -0.0001633
 Y       0.0009870      0.0277341     -0.0105876
 Z      -0.0001633     -0.0105876      0.0392692
 -----------------------------------------------
 Eigenvalues =       0.0225096      0.0208955      0.0455759
 Isotropic   =       0.0296604
 Anisotropic =       0.0195258
 -----------------------------------------------
 *************************

 Magnetic Dipole Response Matrix (nonzero elements):
 Optical rotation tensor Beta
 (Buckingham-Dunn version including dipole-quadrupole terms)

              1        2        3      
    1    0.1358   0.3034  -1.9020
    2    0.3034   1.3817  -0.0885
    3   -1.9020  -0.0885  -1.5334
 
 Imaginary part:

              1        2        3      
    1    0.0287   0.0596  -0.5871
    2   -0.3417  -0.9477  -1.3453
    3    0.6383   2.4938   0.9292

 ------------------------------------------
 average:        -0.00526 + I       0.00341

 Principal components and PAS (Real part)
                 -2.77781
                  1.68332
                  1.07870
 ------------------------
 average:        -0.00526

              1        2        3      
    1    0.5481   0.5973   0.5855
    2   -0.0222   0.7102  -0.7037
    3    0.8361  -0.3727  -0.4025

 Chiral response tensor (Real part):

              1        2        3      
    1   -0.0758  -0.1517   0.9510
    2   -0.1517  -0.6988   0.0442
    3    0.9510   0.0442   0.7588
 
 Principal components and PAS (Real part)
                  1.38101
                 -0.84955
                 -0.54724
 ------------------------
 average:        -0.00526

              1        2        3      
    1    0.5481   0.5973   0.5855
    2   -0.0222   0.7102  -0.7037
    3    0.8361  -0.3727  -0.4025
 Exiting AOResponse driver routine

 Task  times  cpu:      337.2s     wall:      340.8s
 
 
                                NWChem Input Module
                                -------------------
 
 
 Summary of allocated global arrays
-----------------------------------
  No active global arrays



                         GA Statistics for process    0
                         ------------------------------

       create   destroy   get      put      acc     scatter   gather  read&inc
calls: 2434     2434     6.44e+06 5.32e+06 4.81e+05 1938        0     1927     
number of processes/call 1.00e+00 1.00e+00 1.00e+00 0.00e+00 0.00e+00
bytes total:             1.19e+09 1.67e+08 1.11e+09 5.92e+02 0.00e+00 1.54e+04
bytes remote:            0.00e+00 0.00e+00 0.00e+00 0.00e+00 0.00e+00 0.00e+00
Max memory consumed for GA by this process: 11498464 bytes
 
MA_summarize_allocated_blocks: starting scan ...
MA_summarize_allocated_blocks: scan completed: 0 heap blocks, 0 stack blocks
MA usage statistics:

	allocation statistics:
					      heap	     stack
					      ----	     -----
	current number of blocks	         0	         0
	maximum number of blocks	        24	        52
	current total bytes		         0	         0
	maximum total bytes		  20676928	  42215048
	maximum total K-bytes		     20677	     42216
	maximum total M-bytes		        21	        43
 
 
                                     CITATION
                                     --------
                Please cite the following reference when publishing
                           results obtained with NWChem:
 
                 M. Valiev, E.J. Bylaska, N. Govind, K. Kowalski,
              T.P. Straatsma, H.J.J. van Dam, D. Wang, J. Nieplocha,
                        E. Apra, T.L. Windus, W.A. de Jong
                 "NWChem: a comprehensive and scalable open-source
                  solution for large scale molecular simulations"
                      Comput. Phys. Commun. 181, 1477 (2010)
                           doi:10.1016/j.cpc.2010.04.018
 
                                      AUTHORS
                                      -------
          E. Apra, E. J. Bylaska, W. A. de Jong, N. Govind, K. Kowalski,
       T. P. Straatsma, M. Valiev, H. J. J. van Dam, D. Wang, T. L. Windus,
        J. Hammond, J. Autschbach, K. Bhaskaran-Nair, J. Brabec, K. Lopata,
    S. A. Fischer, S. Krishnamoorthy, M. Jacquelin, W. Ma, M. Klemm, O. Villa,
      Y. Chen, V. Anisimov, F. Aquino, S. Hirata, M. T. Hackler, V. Konjkov,
            D. Mejia-Rodriguez, T. Risthaus, M. Malagoli, A. Marenich,
   A. Otero-de-la-Roza, J. Mullin, P. Nichols, R. Peverati, J. Pittner, Y. Zhao,
        P.-D. Fan, A. Fonari, M. J. Williamson, R. J. Harrison, J. R. Rehr,
      M. Dupuis, D. Silverstein, D. M. A. Smith, J. Nieplocha, V. Tipparaju,
    M. Krishnan, B. E. Van Kuiken, A. Vazquez-Mayagoitia, L. Jensen, M. Swart,
      Q. Wu, T. Van Voorhis, A. A. Auer, M. Nooijen, L. D. Crosby, E. Brown,
      G. Cisneros, G. I. Fann, H. Fruchtl, J. Garza, K. Hirao, R. A. Kendall,
      J. A. Nichols, K. Tsemekhman, K. Wolinski, J. Anchell, D. E. Bernholdt,
      P. Borowski, T. Clark, D. Clerc, H. Dachsel, M. J. O. Deegan, K. Dyall,
    D. Elwood, E. Glendening, M. Gutowski, A. C. Hess, J. Jaffe, B. G. Johnson,
     J. Ju, R. Kobayashi, R. Kutteh, Z. Lin, R. Littlefield, X. Long, B. Meng,
      T. Nakajima, S. Niu, L. Pollack, M. Rosing, K. Glaesemann, G. Sandrone,
      M. Stave, H. Taylor, G. Thomas, J. H. van Lenthe, A. T. Wong, Z. Zhang.

 Total times  cpu:      371.8s     wall:      377.5s
