 argument  1 = h2o2_514.5_10.inp
 


============================== echo of input deck ==============================
echo
start h2o2_514.5_10.inp
title "h2o2 roa calculations at 514.5 nm, input generated by va with delta_type=2"
charge 0



geometry units angstrom nocenter noautoz noautosym nucleus point;symmetry c1
 O -8.055211  3.048913 -0.529697
 O -8.432682  2.112639  0.567952
 H -8.936052  3.243865 -0.912344
 H -8.132374  2.620478  1.350399
end

basis spherical
* library def2-TZVP
end

 set prop:newaoresp 1
 set aor:roadata T
 set cphf:maxsub 100
 set cphf:acc 1.0d-10
 set cphf:maxiter 100

property
    response 1   0.088558
    bdtensor
    convergence 1e-9
    damping 0.0037
    giao
end

dft
 direct
 mult 1
 xc becke88 lyp
 iterations 250
 tolerances tight
 grid xfine
 convergence nolevelshifting
 convergence energy 1e-8
 convergence gradient 1e-8


end

task dft gradient
task dft property
================================================================================


                                         
                                         
 
 
              Northwest Computational Chemistry Package (NWChem) 6.8
              ------------------------------------------------------
 
 
                    Environmental Molecular Sciences Laboratory
                       Pacific Northwest National Laboratory
                                Richland, WA 99352
 
                              Copyright (c) 1994-2017
                       Pacific Northwest National Laboratory
                            Battelle Memorial Institute
 
             NWChem is an open-source computational chemistry package
                        distributed under the terms of the
                      Educational Community License (ECL) 2.0
             A copy of the license is included with this distribution
                              in the LICENSE.TXT file
 
                                  ACKNOWLEDGMENT
                                  --------------

            This software and its documentation were developed at the
            EMSL at Pacific Northwest National Laboratory, a multiprogram
            national laboratory, operated for the U.S. Department of Energy
            by Battelle under Contract Number DE-AC05-76RL01830. Support
            for this work was provided by the Department of Energy Office
            of Biological and Environmental Research, Office of Basic
            Energy Sciences, and the Office of Advanced Scientific Computing.


           Job information
           ---------------

    hostname        = cpn-f11-18-02.cbls.ccr.buffalo.edu
    program         = /util/academic/nwchem/nwchem-6.8/bin/LINUX64/nwchem
    date            = Thu Feb 28 18:48:56 2019

    compiled        = Tue_Nov_06_14:59:08_2018
    source          = /util/academic/nwchem/nwchem-6.8
    nwchem branch   = 6.8
    nwchem revision = v6.8-47-gdf6c956
    ga revision     = ga-5.6.3
    use scalapack   = F
    input           = h2o2_514.5_10.inp
    prefix          = h2o2_514.5_10.inp.
    data base       = ./h2o2_514.5_10.inp.db
    status          = startup
    nproc           =        1
    time left       =     -1s



           Memory information
           ------------------

    heap     =   13107200 doubles =    100.0 Mbytes
    stack    =   13107197 doubles =    100.0 Mbytes
    global   =   26214400 doubles =    200.0 Mbytes (distinct from heap & stack)
    total    =   52428797 doubles =    400.0 Mbytes
    verify   = yes
    hardfail = no 


           Directory information
           ---------------------
 
  0 permanent = .
  0 scratch   = .
 
 
 
 
                                NWChem Input Module
                                -------------------
 
 
                         h2o2 roa calculations at 514.5 nm, input generated by va with delta_type=2
                         ---------------------------------

 Scaling coordinates for geometry "geometry" by  1.889725989
 (inverse scale =  0.529177249)

 
 
                             Geometry "geometry" -> ""
                             -------------------------
 
 Output coordinates in angstroms (scale by  1.889725989 to convert to a.u.)
 
  No.       Tag          Charge          X              Y              Z
 ---- ---------------- ---------- -------------- -------------- --------------
    1 O                    8.0000    -8.05521100     3.04891300    -0.52969700
    2 O                    8.0000    -8.43268200     2.11263900     0.56795200
    3 H                    1.0000    -8.93605200     3.24386500    -0.91234400
    4 H                    1.0000    -8.13237400     2.62047800     1.35039900
 
      Atomic Mass 
      ----------- 
 
      O                 15.994910
      H                  1.007825
 

 Effective nuclear repulsion energy (a.u.)      35.9508640264

            Nuclear Dipole moment (a.u.) 
            ----------------------------
        X                 Y               Z
 ---------------- ---------------- ----------------
  -281.5154473886    89.1133530195     1.4061356595
 
 
            XYZ format geometry
            -------------------
     4
 geometry
 O                    -8.05521100     3.04891300    -0.52969700
 O                    -8.43268200     2.11263900     0.56795200
 H                    -8.93605200     3.24386500    -0.91234400
 H                    -8.13237400     2.62047800     1.35039900
 
 ==============================================================================
                                internuclear distances
 ------------------------------------------------------------------------------
       center one      |      center two      | atomic units |  angstroms
 ------------------------------------------------------------------------------
    3 H                |   1 O                |     1.85184  |     0.97995
    4 H                |   2 O                |     1.85184  |     0.97995
 ------------------------------------------------------------------------------
                         number of included internuclear distances:          2
 ==============================================================================



  warning:::::::::::::: from_environment
  NWCHEM_BASIS_LIBRARY set to: <
 /util/academic/nwchem/nwchem-6.8/src/basis/libraries>
  but file does not exist !
  using .nwchemrc or compiled library


 Summary of "ao basis" -> "" (spherical)
 ------------------------------------------------------------------------------
       Tag                 Description            Shells   Functions and Types
 ---------------- ------------------------------  ------  ---------------------
 *                         def2-TZVP                  on all atoms 


 
                                 NWChem DFT Module
                                 -----------------
 
 
                         h2o2 roa calculations at 514.5 nm, input generated by va with delta_type=2
 
 
                      Basis "ao basis" -> "ao basis" (spherical)
                      -----
  O (Oxygen)
  ----------
            Exponent  Coefficients 
       -------------- ---------------------------------------------------------
  1 S  2.70323826E+04  0.000217
  1 S  4.05238714E+03  0.001684
  1 S  9.22327227E+02  0.008740
  1 S  2.61240710E+02  0.035240
  1 S  8.53546414E+01  0.111535
  1 S  3.10350352E+01  0.255890
 
  2 S  1.22608607E+01  0.397687
  2 S  4.99870760E+00  0.246278
 
  3 S  1.17031082E+00  1.000000
 
  4 S  4.64747410E-01  1.000000
 
  5 S  1.85045364E-01  1.000000
 
  6 P  6.32749548E+01  0.006069
  6 P  1.46270494E+01  0.041913
  6 P  4.45012235E+00  0.161538
  6 P  1.52757996E+00  0.357070
 
  7 P  5.29351179E-01  1.000000
 
  8 P  1.74784213E-01  1.000000
 
  9 D  2.31400000E+00  1.000000
 
 10 D  6.45000000E-01  1.000000
 
 11 F  1.42800000E+00  1.000000
 
  H (Hydrogen)
  ------------
            Exponent  Coefficients 
       -------------- ---------------------------------------------------------
  1 S  3.40613410E+01  0.006025
  1 S  5.12357460E+00  0.045021
  1 S  1.16466260E+00  0.201897
 
  2 S  3.27230410E-01  1.000000
 
  3 S  1.03072410E-01  1.000000
 
  4 P  8.00000000E-01  1.000000
 


 Summary of "ao basis" -> "ao basis" (spherical)
 ------------------------------------------------------------------------------
       Tag                 Description            Shells   Functions and Types
 ---------------- ------------------------------  ------  ---------------------
 O                         def2-TZVP                11       31   5s3p2d1f
 H                         def2-TZVP                 4        6   3s1p




 Summary of "ao basis" -> "ao basis" (spherical)
 ------------------------------------------------------------------------------
       Tag                 Description            Shells   Functions and Types
 ---------------- ------------------------------  ------  ---------------------
 O                         def2-TZVP                11       31   5s3p2d1f
 H                         def2-TZVP                 4        6   3s1p


  Caching 1-el integrals 
  itol2e modified to match energy
  convergence criterion.
  tol_rho modified to match energy
  convergence criterion.
 
            General Information
            -------------------
          SCF calculation type: DFT
          Wavefunction type:  closed shell.
          No. of atoms     :     4
          No. of electrons :    18
           Alpha electrons :     9
            Beta electrons :     9
          Charge           :     0
          Spin multiplicity:     1
          Use of symmetry is: off; symmetry adaption is: off
          Maximum number of iterations: 250
          This is a Direct SCF calculation.
          AO basis - number of functions:    74
                     number of shells:    30
          Convergence on energy requested:  1.00D-08
          Convergence on density requested:  1.00D-05
          Convergence on gradient requested:  1.00D-08
 
              XC Information
              --------------
                    Becke 1988 Exchange Functional  1.000          
              Lee-Yang-Parr Correlation Functional  1.000          
 
             Grid Information
             ----------------
          Grid used for XC integration:  xfine     
          Radial quadrature: Mura-Knowles        
          Angular quadrature: Lebedev. 
          Tag              B.-S. Rad. Rad. Pts. Rad. Cut. Ang. Pts.
          ---              ---------- --------- --------- ---------
          O                   0.60      100           8.0      1454
          H                   0.35      100          10.0      1202
          Grid pruning is: on 
          Number of quadrature shells:   400
          Spatial weights used:  Erf1
 
          Convergence Information
          -----------------------
          Convergence aids based upon iterative change in 
          total energy or number of iterations. 
          Levelshifting, if invoked, occurs when the 
          HOMO/LUMO gap drops below (HL_TOL):  1.00D-02
          DIIS, if invoked, will attempt to extrapolate 
          using up to (NFOCK): 10 stored Fock matrices.

                    Damping( 0%)  Levelshifting(0.0)       DIIS
                  --------------- ------------------- ---------------
          dE  on:    start             N/A                start   
          dE off:    2 iters           N/A              250 iters 

 
      Screening Tolerance Information
      -------------------------------
          Density screening/tol_rho:  1.00D-11
          AO Gaussian exp screening on grid/accAOfunc:  18
          CD Gaussian exp screening on grid/accCDfunc:  20
          XC Gaussian exp screening on grid/accXCfunc:  20
          Schwarz screening/accCoul:  1.00D-09

 
      Superposition of Atomic Density Guess
      -------------------------------------
 
 Sum of atomic energies:        -150.56823290
 
      Non-variational initial energy
      ------------------------------

 Total energy =    -150.650375
 1-e energy   =    -278.468297
 2-e energy   =      91.867058
 HOMO         =      -0.359486
 LUMO         =      -0.046198
 
   Time after variat. SCF:      1.3
   Time prior to 1st pass:      1.3

 Grid_pts file          = ./h2o2_514.5_10.inp.gridpts.0
 Record size in doubles =  12289        No. of grid_pts per rec  =   3070
 Max. records in memory =    210        Max. recs in file   =   3725034


           Memory utilization after 1st SCF pass: 
           Heap Space remaining (MW):       10.52            10522928
          Stack Space remaining (MW):       13.11            13106668

   convergence    iter        energy       DeltaE   RMS-Dens  Diis-err    time
 ---------------- ----- ----------------- --------- --------- ---------  ------
 d= 0,ls=0.0,diis     1   -151.5596374208 -1.88D+02  7.38D-03  6.80D-01     4.8
 d= 0,ls=0.0,diis     2   -151.5948897822 -3.53D-02  2.67D-03  6.01D-02     8.1
 d= 0,ls=0.0,diis     3   -151.5994391886 -4.55D-03  1.06D-03  1.78D-02    11.4
 d= 0,ls=0.0,diis     4   -151.6006875542 -1.25D-03  3.68D-04  3.99D-03    14.7
 d= 0,ls=0.0,diis     5   -151.6010232240 -3.36D-04  5.08D-05  6.37D-05    17.9
 d= 0,ls=0.0,diis     6   -151.6010296477 -6.42D-06  5.20D-06  7.18D-07    21.2
 d= 0,ls=0.0,diis     7   -151.6010297118 -6.41D-08  1.17D-06  1.19D-08    24.5
 d= 0,ls=0.0,diis     8   -151.6010297127 -9.36D-10  4.08D-07  1.86D-09    27.8


         Total DFT energy =     -151.601029712736
      One electron energy =     -279.769894515540
           Coulomb energy =      110.028087770853
    Exchange-Corr. energy =      -17.810086994491
 Nuclear repulsion energy =       35.950864026442

 Numeric. integr. density =       17.999999998392

     Total iterative time =     26.5s


 
                       DFT Final Molecular Orbital Analysis
                       ------------------------------------
 
 Vector    1  Occ=2.000000D+00  E=-1.883183D+01
              MO Center= -8.2D+00,  2.7D+00, -1.7D-01, r^2= 5.1D-01
   Bfn.  Coefficient  Atom+Function         Bfn.  Coefficient  Atom+Function  
  ----- ------------  ---------------      ----- ------------  ---------------
     2      0.523575  1 O  s                 33     -0.365705  2 O  s          
     1      0.356938  1 O  s                 32     -0.249354  2 O  s          
     3      0.031237  1 O  s          
 
 Vector    2  Occ=2.000000D+00  E=-1.883181D+01
              MO Center= -8.3D+00,  2.4D+00,  2.1D-01, r^2= 5.1D-01
   Bfn.  Coefficient  Atom+Function         Bfn.  Coefficient  Atom+Function  
  ----- ------------  ---------------      ----- ------------  ---------------
    33      0.523714  2 O  s                  2      0.365904  1 O  s          
    32      0.356920  2 O  s                  1      0.249329  1 O  s          
    34      0.029657  2 O  s          
 
 Vector    3  Occ=2.000000D+00  E=-1.006428D+00
              MO Center= -8.3D+00,  2.6D+00,  5.3D-02, r^2= 8.2D-01
   Bfn.  Coefficient  Atom+Function         Bfn.  Coefficient  Atom+Function  
  ----- ------------  ---------------      ----- ------------  ---------------
     4      0.313176  1 O  s                 35      0.313168  2 O  s          
     3      0.239695  1 O  s                 34      0.239689  2 O  s          
     2     -0.163273  1 O  s                 33     -0.163269  2 O  s          
     5      0.097192  1 O  s                 36      0.097189  2 O  s          
    38      0.071028  2 O  py                 1     -0.070145  1 O  s          
 
 Vector    4  Occ=2.000000D+00  E=-8.197567D-01
              MO Center= -8.3D+00,  2.7D+00,  7.2D-02, r^2= 1.3D+00
   Bfn.  Coefficient  Atom+Function         Bfn.  Coefficient  Atom+Function  
  ----- ------------  ---------------      ----- ------------  ---------------
     4      0.326468  1 O  s                 35     -0.326474  2 O  s          
     3      0.253747  1 O  s                 34     -0.253751  2 O  s          
     2     -0.167037  1 O  s                 33      0.167040  2 O  s          
     5      0.139983  1 O  s                 36     -0.139985  2 O  s          
    63      0.090977  3 H  s                 69     -0.090977  4 H  s          
 
 Vector    5  Occ=2.000000D+00  E=-4.764134D-01
              MO Center= -8.3D+00,  2.7D+00,  6.0D-02, r^2= 1.3D+00
   Bfn.  Coefficient  Atom+Function         Bfn.  Coefficient  Atom+Function  
  ----- ------------  ---------------      ----- ------------  ---------------
    39      0.309783  2 O  pz                42      0.242118  2 O  pz         
     7      0.207095  1 O  py                 8     -0.202326  1 O  pz         
    10      0.166456  1 O  py                11     -0.159705  1 O  pz         
    64      0.131433  3 H  s                 70      0.131427  4 H  s          
     6     -0.118008  1 O  px                45      0.109623  2 O  pz         
 
 Vector    6  Occ=2.000000D+00  E=-4.307216D-01
              MO Center= -8.3D+00,  2.6D+00,  3.6D-02, r^2= 1.3D+00
   Bfn.  Coefficient  Atom+Function         Bfn.  Coefficient  Atom+Function  
  ----- ------------  ---------------      ----- ------------  ---------------
     6      0.254237  1 O  px                 9      0.189766  1 O  px         
    37      0.177417  2 O  px                39      0.156066  2 O  pz         
     4      0.154311  1 O  s                 35     -0.154312  2 O  s          
     5      0.152639  1 O  s                 36     -0.152639  2 O  s          
    38      0.151048  2 O  py                40      0.137211  2 O  px         
 
 Vector    7  Occ=2.000000D+00  E=-3.636308D-01
              MO Center= -8.2D+00,  2.5D+00, -2.0D-02, r^2= 1.3D+00
   Bfn.  Coefficient  Atom+Function         Bfn.  Coefficient  Atom+Function  
  ----- ------------  ---------------      ----- ------------  ---------------
    38      0.319075  2 O  py                41      0.249661  2 O  py         
     6     -0.239515  1 O  px                 8      0.214884  1 O  pz         
     9     -0.183492  1 O  px                11      0.173813  1 O  pz         
    44      0.166252  2 O  py                 5     -0.129581  1 O  s          
    36     -0.129587  2 O  s                 12     -0.119416  1 O  px         
 
 Vector    8  Occ=2.000000D+00  E=-2.748335D-01
              MO Center= -8.3D+00,  2.6D+00,  5.4D-02, r^2= 1.3D+00
   Bfn.  Coefficient  Atom+Function         Bfn.  Coefficient  Atom+Function  
  ----- ------------  ---------------      ----- ------------  ---------------
    37      0.343979  2 O  px                 7     -0.270194  1 O  py         
    40      0.267729  2 O  px                10     -0.216475  1 O  py         
    43      0.214295  2 O  px                13     -0.172453  1 O  py         
     8     -0.155532  1 O  pz                 6     -0.152028  1 O  px         
     5     -0.123402  1 O  s                 36     -0.123409  2 O  s          
 
 Vector    9  Occ=2.000000D+00  E=-2.306202D-01
              MO Center= -8.2D+00,  2.6D+00,  7.1D-03, r^2= 1.2D+00
   Bfn.  Coefficient  Atom+Function         Bfn.  Coefficient  Atom+Function  
  ----- ------------  ---------------      ----- ------------  ---------------
    37      0.282524  2 O  px                 7      0.275806  1 O  py         
    40      0.222911  2 O  px                10      0.215199  1 O  py         
    38     -0.215450  2 O  py                43      0.205804  2 O  px         
     8      0.202266  1 O  pz                13      0.190289  1 O  py         
    41     -0.164645  2 O  py                11      0.159455  1 O  pz         
 
 Vector   10  Occ=0.000000D+00  E=-6.123233D-02
              MO Center= -8.3D+00,  2.6D+00,  5.2D-02, r^2= 1.8D+00
   Bfn.  Coefficient  Atom+Function         Bfn.  Coefficient  Atom+Function  
  ----- ------------  ---------------      ----- ------------  ---------------
     5      0.509684  1 O  s                 36     -0.509672  2 O  s          
    44     -0.329590  2 O  py                65     -0.300172  3 H  s          
    71      0.300159  4 H  s                 14      0.295472  1 O  pz         
    13     -0.279862  1 O  py                45      0.267191  2 O  pz         
     8      0.259998  1 O  pz                38     -0.259059  2 O  py         
 
 Vector   11  Occ=0.000000D+00  E=-3.486024D-03
              MO Center= -8.6D+00,  3.0D+00,  2.8D-01, r^2= 4.3D+00
   Bfn.  Coefficient  Atom+Function         Bfn.  Coefficient  Atom+Function  
  ----- ------------  ---------------      ----- ------------  ---------------
    65      1.000687  3 H  s                 71      1.000675  4 H  s          
     5     -0.644890  1 O  s                 36     -0.644896  2 O  s          
    12      0.260467  1 O  px                45     -0.241642  2 O  pz         
    44     -0.143753  2 O  py                39     -0.131752  2 O  pz         
     6      0.125696  1 O  px                14      0.124450  1 O  pz         
 
 Vector   12  Occ=0.000000D+00  E= 3.967639D-02
              MO Center= -8.6D+00,  3.0D+00,  2.6D-01, r^2= 4.3D+00
   Bfn.  Coefficient  Atom+Function         Bfn.  Coefficient  Atom+Function  
  ----- ------------  ---------------      ----- ------------  ---------------
    65      1.179939  3 H  s                 71     -1.179954  4 H  s          
    45      0.455411  2 O  pz                 5     -0.408256  1 O  s          
    36      0.408266  2 O  s                 14      0.315899  1 O  pz         
    12      0.248001  1 O  px                39      0.242588  2 O  pz         
    13     -0.220815  1 O  py                 8      0.176187  1 O  pz         
 
 Vector   13  Occ=0.000000D+00  E= 3.386437D-01
              MO Center= -8.4D+00,  2.8D+00,  1.4D-01, r^2= 3.8D+00
   Bfn.  Coefficient  Atom+Function         Bfn.  Coefficient  Atom+Function  
  ----- ------------  ---------------      ----- ------------  ---------------
    64      1.188230  3 H  s                 70      1.188243  4 H  s          
    65     -0.666260  3 H  s                 71     -0.666276  4 H  s          
    45     -0.587914  2 O  pz                14      0.530972  1 O  pz         
     9      0.370032  1 O  px                41     -0.332383  2 O  py         
     4     -0.311286  1 O  s                 35     -0.311299  2 O  s          
 
 Vector   14  Occ=0.000000D+00  E= 3.451379D-01
              MO Center= -8.4D+00,  2.7D+00,  9.7D-02, r^2= 3.6D+00
   Bfn.  Coefficient  Atom+Function         Bfn.  Coefficient  Atom+Function  
  ----- ------------  ---------------      ----- ------------  ---------------
    64      1.505417  3 H  s                 70     -1.505394  4 H  s          
    65     -0.852063  3 H  s                 71      0.852044  4 H  s          
    12      0.596966  1 O  px                 5     -0.538805  1 O  s          
    36      0.538790  2 O  s                 44      0.502175  2 O  py         
     4     -0.362869  1 O  s                 35      0.362878  2 O  s          
 
 Vector   15  Occ=0.000000D+00  E= 3.517220D-01
              MO Center= -8.3D+00,  2.6D+00,  3.7D-02, r^2= 3.8D+00
   Bfn.  Coefficient  Atom+Function         Bfn.  Coefficient  Atom+Function  
  ----- ------------  ---------------      ----- ------------  ---------------
    13      0.947972  1 O  py                44      0.910148  2 O  py         
     5     -0.826717  1 O  s                 36      0.826716  2 O  s          
    45     -0.746314  2 O  pz                14     -0.724717  1 O  pz         
    43      0.633759  2 O  px                12      0.602532  1 O  px         
     9     -0.329003  1 O  px                41     -0.308031  2 O  py         
 
 Vector   16  Occ=0.000000D+00  E= 3.734936D-01
              MO Center= -8.0D+00,  2.3D+00, -1.3D-01, r^2= 2.6D+00
   Bfn.  Coefficient  Atom+Function         Bfn.  Coefficient  Atom+Function  
  ----- ------------  ---------------      ----- ------------  ---------------
    44      0.597728  2 O  py                12     -0.526507  1 O  px         
     4      0.462646  1 O  s                 35      0.462636  2 O  s          
    13      0.434275  1 O  py                 5     -0.344361  1 O  s          
    36     -0.344362  2 O  s                 43     -0.326000  2 O  px         
    64     -0.322494  3 H  s                 70     -0.322455  4 H  s          
 
 Vector   17  Occ=0.000000D+00  E= 4.114345D-01
              MO Center= -8.3D+00,  2.6D+00,  3.2D-02, r^2= 3.0D+00
   Bfn.  Coefficient  Atom+Function         Bfn.  Coefficient  Atom+Function  
  ----- ------------  ---------------      ----- ------------  ---------------
    45     -0.908610  2 O  pz                14      0.882341  1 O  pz         
    12      0.742029  1 O  px                43     -0.703808  2 O  px         
     4     -0.395348  1 O  s                 35     -0.395318  2 O  s          
    11     -0.375380  1 O  pz                42      0.368457  2 O  pz         
    40      0.256430  2 O  px                 9     -0.246372  1 O  px         
 
 Vector   18  Occ=0.000000D+00  E= 4.432352D-01
              MO Center= -8.2D+00,  2.6D+00,  1.9D-02, r^2= 3.5D+00
   Bfn.  Coefficient  Atom+Function         Bfn.  Coefficient  Atom+Function  
  ----- ------------  ---------------      ----- ------------  ---------------
    44      1.221076  2 O  py                14     -1.022228  1 O  pz         
     5     -0.828694  1 O  s                 36      0.828656  2 O  s          
    12      0.780436  1 O  px                43     -0.645084  2 O  px         
    13     -0.504646  1 O  py                64      0.444038  3 H  s          
    70     -0.444067  4 H  s                 40      0.363803  2 O  px         
 
 Vector   19  Occ=0.000000D+00  E= 4.652468D-01
              MO Center= -8.3D+00,  2.7D+00,  8.5D-02, r^2= 4.1D+00
   Bfn.  Coefficient  Atom+Function         Bfn.  Coefficient  Atom+Function  
  ----- ------------  ---------------      ----- ------------  ---------------
     5      0.980574  1 O  s                 36      0.980570  2 O  s          
    65     -0.804255  3 H  s                 71     -0.804223  4 H  s          
    13      0.770402  1 O  py                43     -0.702194  2 O  px         
    64      0.661390  3 H  s                 70      0.661388  4 H  s          
     4     -0.629221  1 O  s                 35     -0.629216  2 O  s          
 
 Vector   20  Occ=0.000000D+00  E= 5.224401D-01
              MO Center= -8.3D+00,  2.7D+00,  8.6D-02, r^2= 4.0D+00
   Bfn.  Coefficient  Atom+Function         Bfn.  Coefficient  Atom+Function  
  ----- ------------  ---------------      ----- ------------  ---------------
    45      1.569601  2 O  pz                65      1.329473  3 H  s          
    71     -1.329472  4 H  s                 12      1.052837  1 O  px         
     5     -0.989913  1 O  s                 36      0.989895  2 O  s          
    14      0.960698  1 O  pz                13     -0.750413  1 O  py         
     4      0.525606  1 O  s                 35     -0.525605  2 O  s          
 
 Vector   21  Occ=0.000000D+00  E= 5.861885D-01
              MO Center= -8.4D+00,  2.8D+00,  1.4D-01, r^2= 3.1D+00
   Bfn.  Coefficient  Atom+Function         Bfn.  Coefficient  Atom+Function  
  ----- ------------  ---------------      ----- ------------  ---------------
     5      2.496612  1 O  s                 36      2.496619  2 O  s          
     4     -1.446239  1 O  s                 35     -1.446233  2 O  s          
    12     -1.377569  1 O  px                64     -1.036234  3 H  s          
    70     -1.036242  4 H  s                 44      0.893025  2 O  py         
    45      0.891645  2 O  pz                65     -0.848229  3 H  s          
 
 Vector   22  Occ=0.000000D+00  E= 6.715026D-01
              MO Center= -8.2D+00,  2.5D+00, -3.3D-02, r^2= 3.0D+00
   Bfn.  Coefficient  Atom+Function         Bfn.  Coefficient  Atom+Function  
  ----- ------------  ---------------      ----- ------------  ---------------
     5      5.577544  1 O  s                 36     -5.577563  2 O  s          
     4     -1.832084  1 O  s                 35      1.832108  2 O  s          
    14      1.719187  1 O  pz                44     -1.714894  2 O  py         
    45      1.611084  2 O  pz                13     -1.524830  1 O  py         
    64     -0.897827  3 H  s                 70      0.897833  4 H  s          
 
 Vector   23  Occ=0.000000D+00  E= 1.017482D+00
              MO Center= -8.3D+00,  2.7D+00,  9.1D-02, r^2= 1.5D+00
   Bfn.  Coefficient  Atom+Function         Bfn.  Coefficient  Atom+Function  
  ----- ------------  ---------------      ----- ------------  ---------------
    64     -0.341599  3 H  s                 70      0.341599  4 H  s          
    22      0.329828  1 O  d  0              68     -0.317814  3 H  pz         
    53     -0.279614  2 O  d  0              23     -0.253226  1 O  d  1       
    74     -0.252516  4 H  pz                54      0.246574  2 O  d  1       
    73      0.231158  4 H  py                 5      0.228424  1 O  s          
 
 Vector   24  Occ=0.000000D+00  E= 1.080890D+00
              MO Center= -8.3D+00,  2.7D+00,  6.3D-02, r^2= 1.5D+00
   Bfn.  Coefficient  Atom+Function         Bfn.  Coefficient  Atom+Function  
  ----- ------------  ---------------      ----- ------------  ---------------
    54      0.346999  2 O  d  1              67      0.338191  3 H  py         
    20     -0.308678  1 O  d -2              72     -0.281068  4 H  px         
    22     -0.270406  1 O  d  0              52      0.225546  2 O  d -1       
    64     -0.204175  3 H  s                 70     -0.204141  4 H  s          
    24     -0.198723  1 O  d  2              53      0.195137  2 O  d  0       
 
 Vector   25  Occ=0.000000D+00  E= 1.189902D+00
              MO Center= -8.3D+00,  2.6D+00,  5.3D-02, r^2= 1.5D+00
   Bfn.  Coefficient  Atom+Function         Bfn.  Coefficient  Atom+Function  
  ----- ------------  ---------------      ----- ------------  ---------------
    55     -0.446746  2 O  d  2              23      0.431369  1 O  d  1       
     5     -0.348016  1 O  s                 36     -0.347964  2 O  s          
    64      0.247076  3 H  s                 70      0.247049  4 H  s          
    24      0.240517  1 O  d  2              68      0.237391  3 H  pz         
    44     -0.228013  2 O  py                12      0.225390  1 O  px         
 
 Vector   26  Occ=0.000000D+00  E= 1.226199D+00
              MO Center= -8.4D+00,  2.7D+00,  1.0D-01, r^2= 1.7D+00
   Bfn.  Coefficient  Atom+Function         Bfn.  Coefficient  Atom+Function  
  ----- ------------  ---------------      ----- ------------  ---------------
     5      0.629172  1 O  s                 36     -0.629179  2 O  s          
    72      0.406348  4 H  px                20     -0.388317  1 O  d -2       
    67      0.360837  3 H  py                43     -0.258645  2 O  px         
    51      0.255264  2 O  d -2              13     -0.240308  1 O  py         
    55      0.238794  2 O  d  2              68      0.225786  3 H  pz         
 
 Vector   27  Occ=0.000000D+00  E= 1.520383D+00
              MO Center= -8.4D+00,  2.8D+00,  1.2D-01, r^2= 2.5D+00
   Bfn.  Coefficient  Atom+Function         Bfn.  Coefficient  Atom+Function  
  ----- ------------  ---------------      ----- ------------  ---------------
    64      2.001857  3 H  s                 70      2.000802  4 H  s          
    45     -0.727877  2 O  pz                12      0.661112  1 O  px         
     4     -0.620892  1 O  s                 35     -0.620750  2 O  s          
    52     -0.620966  2 O  d -1              14      0.510968  1 O  pz         
     5     -0.501129  1 O  s                 36     -0.500543  2 O  s          
 
 Vector   28  Occ=0.000000D+00  E= 1.529764D+00
              MO Center= -8.4D+00,  2.7D+00,  1.1D-01, r^2= 2.5D+00
   Bfn.  Coefficient  Atom+Function         Bfn.  Coefficient  Atom+Function  
  ----- ------------  ---------------      ----- ------------  ---------------
    64      2.121926  3 H  s                 70     -2.122929  4 H  s          
     5     -1.244653  1 O  s                 36      1.244895  2 O  s          
    12      0.721967  1 O  px                24     -0.613531  1 O  d  2       
    44      0.601231  2 O  py                52      0.507292  2 O  d -1       
    23      0.414674  1 O  d  1              45      0.406539  2 O  pz         
 
 Vector   29  Occ=0.000000D+00  E= 1.598037D+00
              MO Center= -8.4D+00,  2.7D+00,  1.1D-01, r^2= 1.8D+00
   Bfn.  Coefficient  Atom+Function         Bfn.  Coefficient  Atom+Function  
  ----- ------------  ---------------      ----- ------------  ---------------
    73      0.395070  4 H  py                68      0.390049  3 H  pz         
    54      0.362008  2 O  d  1              51      0.348290  2 O  d -2       
    74     -0.295063  4 H  pz                21     -0.289323  1 O  d -1       
    22     -0.262767  1 O  d  0              20      0.254556  1 O  d -2       
    14     -0.238690  1 O  pz                24     -0.228773  1 O  d  2       
 
 Vector   30  Occ=0.000000D+00  E= 1.642380D+00
              MO Center= -8.3D+00,  2.6D+00,  4.8D-02, r^2= 1.5D+00
   Bfn.  Coefficient  Atom+Function         Bfn.  Coefficient  Atom+Function  
  ----- ------------  ---------------      ----- ------------  ---------------
    64      0.716286  3 H  s                 70      0.716248  4 H  s          
    21      0.597677  1 O  d -1               5     -0.485753  1 O  s          
    36     -0.485658  2 O  s                 53     -0.460249  2 O  d  0       
    44     -0.374889  2 O  py                55      0.372767  2 O  d  2       
    12      0.357365  1 O  px                24     -0.329514  1 O  d  2       
 
 Vector   31  Occ=0.000000D+00  E= 1.736498D+00
              MO Center= -8.3D+00,  2.7D+00,  9.2D-02, r^2= 1.8D+00
   Bfn.  Coefficient  Atom+Function         Bfn.  Coefficient  Atom+Function  
  ----- ------------  ---------------      ----- ------------  ---------------
     5      1.177034  1 O  s                 36     -1.177063  2 O  s          
    13     -0.620040  1 O  py                45      0.551572  2 O  pz         
    22     -0.494001  1 O  d  0              51     -0.475385  2 O  d -2       
    14      0.405581  1 O  pz                73      0.396501  4 H  py         
    43     -0.371680  2 O  px                44     -0.363493  2 O  py         
 
 Vector   32  Occ=0.000000D+00  E= 1.848026D+00
              MO Center= -8.3D+00,  2.7D+00,  6.7D-02, r^2= 2.3D+00
   Bfn.  Coefficient  Atom+Function         Bfn.  Coefficient  Atom+Function  
  ----- ------------  ---------------      ----- ------------  ---------------
     5      2.248273  1 O  s                 36     -2.248268  2 O  s          
     4     -1.145823  1 O  s                 35      1.145810  2 O  s          
    44     -1.007193  2 O  py                14      0.900746  1 O  pz         
    64      0.759299  3 H  s                 70     -0.759300  4 H  s          
    45      0.607442  2 O  pz                12     -0.600826  1 O  px         
 
 Vector   33  Occ=0.000000D+00  E= 1.950352D+00
              MO Center= -8.4D+00,  2.8D+00,  1.5D-01, r^2= 1.9D+00
   Bfn.  Coefficient  Atom+Function         Bfn.  Coefficient  Atom+Function  
  ----- ------------  ---------------      ----- ------------  ---------------
    72      0.732458  4 H  px                64     -0.655629  3 H  s          
    70     -0.655615  4 H  s                 67     -0.535298  3 H  py         
    68     -0.487397  3 H  pz                20     -0.460163  1 O  d -2       
    54      0.380175  2 O  d  1               4      0.350486  1 O  s          
    35      0.350461  2 O  s                 42      0.343280  2 O  pz         
 
 Vector   34  Occ=0.000000D+00  E= 2.023953D+00
              MO Center= -8.3D+00,  2.7D+00,  5.9D-02, r^2= 1.9D+00
   Bfn.  Coefficient  Atom+Function         Bfn.  Coefficient  Atom+Function  
  ----- ------------  ---------------      ----- ------------  ---------------
     5      1.134324  1 O  s                 36     -1.134337  2 O  s          
    20      0.605595  1 O  d -2              67      0.593238  3 H  py         
    72      0.554050  4 H  px                64     -0.532752  3 H  s          
    70      0.532753  4 H  s                 13     -0.523459  1 O  py         
    54      0.472611  2 O  d  1              44     -0.455330  2 O  py         
 
 Vector   35  Occ=0.000000D+00  E= 2.073786D+00
              MO Center= -8.3D+00,  2.7D+00,  7.4D-02, r^2= 1.9D+00
   Bfn.  Coefficient  Atom+Function         Bfn.  Coefficient  Atom+Function  
  ----- ------------  ---------------      ----- ------------  ---------------
    64      0.725025  3 H  s                 70     -0.724833  4 H  s          
    68      0.551236  3 H  pz                24     -0.513309  1 O  d  2       
    55     -0.503492  2 O  d  2              53     -0.491919  2 O  d  0       
    74      0.479046  4 H  pz                23     -0.470459  1 O  d  1       
     4     -0.440326  1 O  s                 35      0.440162  2 O  s          
 
 Vector   36  Occ=0.000000D+00  E= 2.096153D+00
              MO Center= -8.3D+00,  2.6D+00,  3.5D-02, r^2= 2.2D+00
   Bfn.  Coefficient  Atom+Function         Bfn.  Coefficient  Atom+Function  
  ----- ------------  ---------------      ----- ------------  ---------------
    64      0.909131  3 H  s                 70      0.909246  4 H  s          
     9      0.791685  1 O  px                42     -0.663205  2 O  pz         
     4     -0.625358  1 O  s                 35     -0.625439  2 O  s          
    73     -0.588033  4 H  py                66      0.558396  3 H  px         
    22     -0.472219  1 O  d  0              41     -0.447180  2 O  py         
 
 Vector   37  Occ=0.000000D+00  E= 2.185082D+00
              MO Center= -8.4D+00,  2.8D+00,  1.3D-01, r^2= 2.3D+00
   Bfn.  Coefficient  Atom+Function         Bfn.  Coefficient  Atom+Function  
  ----- ------------  ---------------      ----- ------------  ---------------
    64      1.495803  3 H  s                 70     -1.495804  4 H  s          
     5     -1.332747  1 O  s                 36      1.332740  2 O  s          
     4     -0.832143  1 O  s                 35      0.832135  2 O  s          
    42      0.831089  2 O  pz                45     -0.758136  2 O  pz         
     9      0.724641  1 O  px                66      0.722758  3 H  px         
 
 Vector   38  Occ=0.000000D+00  E= 2.234485D+00
              MO Center= -8.3D+00,  2.7D+00,  8.9D-02, r^2= 2.0D+00
   Bfn.  Coefficient  Atom+Function         Bfn.  Coefficient  Atom+Function  
  ----- ------------  ---------------      ----- ------------  ---------------
    64      1.330766  3 H  s                 70      1.330778  4 H  s          
     4     -0.806439  1 O  s                 35     -0.806446  2 O  s          
    42     -0.752066  2 O  pz                74     -0.669320  4 H  pz         
    10     -0.616924  1 O  py                 9      0.580637  1 O  px         
    68      0.502039  3 H  pz                43     -0.443949  2 O  px         
 
 Vector   39  Occ=0.000000D+00  E= 2.389914D+00
              MO Center= -8.3D+00,  2.6D+00,  4.0D-02, r^2= 1.8D+00
   Bfn.  Coefficient  Atom+Function         Bfn.  Coefficient  Atom+Function  
  ----- ------------  ---------------      ----- ------------  ---------------
    64      1.136789  3 H  s                 70      1.136871  4 H  s          
     4     -0.853302  1 O  s                 35     -0.853349  2 O  s          
    11      0.844670  1 O  pz                40     -0.648906  2 O  px         
    38     -0.631657  2 O  py                74     -0.612027  4 H  pz         
    41      0.575775  2 O  py                66      0.570391  3 H  px         
 
 Vector   40  Occ=0.000000D+00  E= 2.403712D+00
              MO Center= -8.3D+00,  2.6D+00,  4.8D-02, r^2= 1.9D+00
   Bfn.  Coefficient  Atom+Function         Bfn.  Coefficient  Atom+Function  
  ----- ------------  ---------------      ----- ------------  ---------------
    64      0.929970  3 H  s                 70     -0.929722  4 H  s          
    45      0.737595  2 O  pz                74      0.706301  4 H  pz         
    66      0.635537  3 H  px                 4     -0.598608  1 O  s          
    35      0.598323  2 O  s                 12      0.588646  1 O  px         
     6      0.585013  1 O  px                14      0.521415  1 O  pz         
 
 Vector   41  Occ=0.000000D+00  E= 2.422217D+00
              MO Center= -8.3D+00,  2.6D+00,  5.2D-02, r^2= 1.4D+00
   Bfn.  Coefficient  Atom+Function         Bfn.  Coefficient  Atom+Function  
  ----- ------------  ---------------      ----- ------------  ---------------
     4      1.030872  1 O  s                 35      1.030980  2 O  s          
    41      0.729613  2 O  py                64     -0.701671  3 H  s          
    70     -0.701774  4 H  s                 39      0.668068  2 O  pz         
     8     -0.630110  1 O  pz                11      0.590208  1 O  pz         
     3     -0.534197  1 O  s                 34     -0.534226  2 O  s          
 
 Vector   42  Occ=0.000000D+00  E= 2.566579D+00
              MO Center= -8.5D+00,  2.8D+00,  1.7D-01, r^2= 1.5D+00
   Bfn.  Coefficient  Atom+Function         Bfn.  Coefficient  Atom+Function  
  ----- ------------  ---------------      ----- ------------  ---------------
     5      1.936516  1 O  s                 36     -1.938037  2 O  s          
    70      1.024856  4 H  s                 40     -1.019653  2 O  px         
    64     -1.023253  3 H  s                  4     -0.811160  1 O  s          
    35      0.811943  2 O  s                 10     -0.788590  1 O  py         
     3      0.729365  1 O  s                 34     -0.730315  2 O  s          
 
 Vector   43  Occ=0.000000D+00  E= 2.568995D+00
              MO Center= -8.3D+00,  2.6D+00,  5.1D-02, r^2= 1.8D+00
   Bfn.  Coefficient  Atom+Function         Bfn.  Coefficient  Atom+Function  
  ----- ------------  ---------------      ----- ------------  ---------------
     5      1.377820  1 O  s                 64     -1.382520  3 H  s          
    36      1.375563  2 O  s                 70     -1.381375  4 H  s          
    66     -0.914460  3 H  px                 3      0.889596  1 O  s          
    34      0.888721  2 O  s                  4     -0.777931  1 O  s          
    35     -0.776929  2 O  s                 74      0.657105  4 H  pz         
 
 Vector   44  Occ=0.000000D+00  E= 2.677007D+00
              MO Center= -8.1D+00,  2.4D+00, -9.8D-02, r^2= 1.5D+00
   Bfn.  Coefficient  Atom+Function         Bfn.  Coefficient  Atom+Function  
  ----- ------------  ---------------      ----- ------------  ---------------
     5      2.671312  1 O  s                 36     -2.671351  2 O  s          
     4     -2.065631  1 O  s                 35      2.065687  2 O  s          
     3      1.345608  1 O  s                 34     -1.345647  2 O  s          
    41     -0.977446  2 O  py                 9     -0.756824  1 O  px         
    11      0.625718  1 O  pz                13     -0.585764  1 O  py         
 
 Vector   45  Occ=0.000000D+00  E= 2.719474D+00
              MO Center= -8.3D+00,  2.7D+00,  8.0D-02, r^2= 1.7D+00
   Bfn.  Coefficient  Atom+Function         Bfn.  Coefficient  Atom+Function  
  ----- ------------  ---------------      ----- ------------  ---------------
     4      2.350512  1 O  s                 35      2.350560  2 O  s          
     3     -1.547631  1 O  s                 34     -1.547656  2 O  s          
     5     -1.473545  1 O  s                 36     -1.473562  2 O  s          
    40     -0.707924  2 O  px                 9      0.533041  1 O  px         
    10      0.490717  1 O  py                37      0.448239  2 O  px         
 
 Vector   46  Occ=0.000000D+00  E= 3.562310D+00
              MO Center= -8.4D+00,  2.8D+00,  1.2D-01, r^2= 1.7D+00
   Bfn.  Coefficient  Atom+Function         Bfn.  Coefficient  Atom+Function  
  ----- ------------  ---------------      ----- ------------  ---------------
     4      2.993463  1 O  s                 35     -2.993332  2 O  s          
     9     -1.672655  1 O  px                64     -1.503483  3 H  s          
    70      1.503420  4 H  s                  3     -1.480328  1 O  s          
    34      1.480277  2 O  s                 42     -1.293324  2 O  pz         
    66     -1.145260  3 H  px                41     -1.105285  2 O  py         
 
 Vector   47  Occ=0.000000D+00  E= 3.611914D+00
              MO Center= -8.4D+00,  2.7D+00,  1.1D-01, r^2= 1.7D+00
   Bfn.  Coefficient  Atom+Function         Bfn.  Coefficient  Atom+Function  
  ----- ------------  ---------------      ----- ------------  ---------------
     4      2.541898  1 O  s                 35      2.541962  2 O  s          
     9     -1.696416  1 O  px                42      1.512038  2 O  pz         
    64     -1.318735  3 H  s                 70     -1.318794  4 H  s          
     3     -1.152869  1 O  s                 34     -1.152887  2 O  s          
    66     -1.103700  3 H  px                74      0.991295  4 H  pz         
 
 Vector   48  Occ=0.000000D+00  E= 3.852068D+00
              MO Center= -8.3D+00,  2.6D+00,  2.4D-02, r^2= 9.5D-01
   Bfn.  Coefficient  Atom+Function         Bfn.  Coefficient  Atom+Function  
  ----- ------------  ---------------      ----- ------------  ---------------
    42      1.660216  2 O  pz                11      1.463510  1 O  pz         
     4      1.351460  1 O  s                 35     -1.351547  2 O  s          
    10     -1.156069  1 O  py                 3     -1.043394  1 O  s          
    34      1.043436  2 O  s                 41     -0.810235  2 O  py         
    52      0.802623  2 O  d -1              21     -0.585904  1 O  d -1       
 
 Vector   49  Occ=0.000000D+00  E= 4.659770D+00
              MO Center= -8.2D+00,  2.6D+00,  2.2D-02, r^2= 1.0D+00
   Bfn.  Coefficient  Atom+Function         Bfn.  Coefficient  Atom+Function  
  ----- ------------  ---------------      ----- ------------  ---------------
    26      0.332934  1 O  f -2              28      0.329291  1 O  f  0       
    30      0.328918  1 O  f  2              61      0.308492  2 O  f  2       
    59      0.298233  2 O  f  0              57      0.294827  2 O  f -2       
    60      0.294412  2 O  f  1              25     -0.280224  1 O  f -3       
    56     -0.264904  2 O  f -3               9      0.262016  1 O  px         
 
 Vector   50  Occ=0.000000D+00  E= 4.719388D+00
              MO Center= -8.2D+00,  2.6D+00,  2.3D-02, r^2= 9.6D-01
   Bfn.  Coefficient  Atom+Function         Bfn.  Coefficient  Atom+Function  
  ----- ------------  ---------------      ----- ------------  ---------------
    27      0.479817  1 O  f -1              58     -0.388890  2 O  f -1       
    57      0.366057  2 O  f -2              61     -0.345658  2 O  f  2       
    31      0.285950  1 O  f  3              30      0.264736  1 O  f  2       
     5     -0.238329  1 O  s                 36     -0.238337  2 O  s          
    26     -0.215258  1 O  f -2              62     -0.178591  2 O  f  3       
 
 Vector   51  Occ=0.000000D+00  E= 4.742844D+00
              MO Center= -8.2D+00,  2.6D+00,  2.2D-02, r^2= 1.1D+00
   Bfn.  Coefficient  Atom+Function         Bfn.  Coefficient  Atom+Function  
  ----- ------------  ---------------      ----- ------------  ---------------
    26     -0.487619  1 O  f -2               4      0.484879  1 O  s          
    35     -0.484909  2 O  s                 62      0.439363  2 O  f  3       
     9     -0.397143  1 O  px                59      0.381808  2 O  f  0       
    27     -0.339469  1 O  f -1              28      0.308193  1 O  f  0       
    41     -0.267481  2 O  py                42     -0.256276  2 O  pz         
 
 Vector   52  Occ=0.000000D+00  E= 4.844363D+00
              MO Center= -8.2D+00,  2.6D+00,  1.3D-02, r^2= 1.0D+00
   Bfn.  Coefficient  Atom+Function         Bfn.  Coefficient  Atom+Function  
  ----- ------------  ---------------      ----- ------------  ---------------
    29      0.524095  1 O  f  1              56     -0.471558  2 O  f -3       
    60     -0.402946  2 O  f  1              25      0.294106  1 O  f -3       
    62     -0.233573  2 O  f  3              28     -0.227015  1 O  f  0       
    31      0.205782  1 O  f  3              61      0.141269  2 O  f  2       
    27     -0.134733  1 O  f -1              73      0.120814  4 H  py         
 
 Vector   53  Occ=0.000000D+00  E= 4.946238D+00
              MO Center= -8.3D+00,  2.6D+00,  3.3D-02, r^2= 1.1D+00
   Bfn.  Coefficient  Atom+Function         Bfn.  Coefficient  Atom+Function  
  ----- ------------  ---------------      ----- ------------  ---------------
    31      0.542936  1 O  f  3              56      0.469858  2 O  f -3       
    59      0.381077  2 O  f  0              28     -0.315955  1 O  f  0       
    62     -0.273219  2 O  f  3              27     -0.257845  1 O  f -1       
    42      0.237353  2 O  pz                11      0.219460  1 O  pz         
    73      0.175137  4 H  py                10     -0.155688  1 O  py         
 
 Vector   54  Occ=0.000000D+00  E= 5.181240D+00
              MO Center= -8.3D+00,  2.6D+00,  3.3D-02, r^2= 1.0D+00
   Bfn.  Coefficient  Atom+Function         Bfn.  Coefficient  Atom+Function  
  ----- ------------  ---------------      ----- ------------  ---------------
    25      0.603429  1 O  f -3              56      0.423538  2 O  f -3       
    62      0.342195  2 O  f  3              30      0.303407  1 O  f  2       
    61      0.291148  2 O  f  2              59     -0.251142  2 O  f  0       
    57      0.221414  2 O  f -2              67     -0.209341  3 H  py         
    72     -0.190945  4 H  px                15     -0.158486  1 O  d -2       
 
 Vector   55  Occ=0.000000D+00  E= 5.247567D+00
              MO Center= -8.3D+00,  2.6D+00,  4.0D-02, r^2= 1.0D+00
   Bfn.  Coefficient  Atom+Function         Bfn.  Coefficient  Atom+Function  
  ----- ------------  ---------------      ----- ------------  ---------------
    56      0.421966  2 O  f -3              29      0.409261  1 O  f  1       
    61      0.403688  2 O  f  2              30     -0.340791  1 O  f  2       
    25     -0.282586  1 O  f -3              60     -0.251157  2 O  f  1       
    68      0.227265  3 H  pz                27      0.214705  1 O  f -1       
    57      0.204216  2 O  f -2              28      0.201034  1 O  f  0       
 
 Vector   56  Occ=0.000000D+00  E= 5.263789D+00
              MO Center= -8.3D+00,  2.6D+00,  2.4D-02, r^2= 1.0D+00
   Bfn.  Coefficient  Atom+Function         Bfn.  Coefficient  Atom+Function  
  ----- ------------  ---------------      ----- ------------  ---------------
    29      0.580201  1 O  f  1              60      0.566781  2 O  f  1       
    61     -0.255814  2 O  f  2              62      0.254232  2 O  f  3       
    30     -0.248534  1 O  f  2              58      0.249045  2 O  f -1       
    26     -0.222554  1 O  f -2              27      0.221061  1 O  f -1       
    68      0.180032  3 H  pz                72      0.156834  4 H  px         
 
 Vector   57  Occ=0.000000D+00  E= 5.274669D+00
              MO Center= -8.3D+00,  2.6D+00,  3.5D-02, r^2= 9.9D-01
   Bfn.  Coefficient  Atom+Function         Bfn.  Coefficient  Atom+Function  
  ----- ------------  ---------------      ----- ------------  ---------------
    62      0.523538  2 O  f  3              25     -0.416761  1 O  f -3       
    31      0.408159  1 O  f  3              28     -0.351127  1 O  f  0       
    58     -0.265280  2 O  f -1              60     -0.264336  2 O  f  1       
    59     -0.254507  2 O  f  0               9     -0.227435  1 O  px         
    67      0.197757  3 H  py                74      0.197866  4 H  pz         
 
 Vector   58  Occ=0.000000D+00  E= 5.583469D+00
              MO Center= -8.2D+00,  2.6D+00,  1.3D-02, r^2= 9.7D-01
   Bfn.  Coefficient  Atom+Function         Bfn.  Coefficient  Atom+Function  
  ----- ------------  ---------------      ----- ------------  ---------------
    59      0.585554  2 O  f  0               4      0.530811  1 O  s          
    35      0.531059  2 O  s                 26      0.508379  1 O  f -2       
     9     -0.451267  1 O  px                42      0.414259  2 O  pz         
    27      0.385507  1 O  f -1              64     -0.372336  3 H  s          
    70     -0.372542  4 H  s                 66     -0.332329  3 H  px         
 
 Vector   59  Occ=0.000000D+00  E= 5.597313D+00
              MO Center= -8.2D+00,  2.6D+00,  2.3D-02, r^2= 8.8D-01
   Bfn.  Coefficient  Atom+Function         Bfn.  Coefficient  Atom+Function  
  ----- ------------  ---------------      ----- ------------  ---------------
    42      0.427765  2 O  pz                28     -0.393589  1 O  f  0       
    57      0.389473  2 O  f -2               9      0.363622  1 O  px         
    59      0.346738  2 O  f  0               4     -0.293113  1 O  s          
    35      0.292716  2 O  s                 29     -0.286930  1 O  f  1       
    19     -0.281678  1 O  d  2              49     -0.273620  2 O  d  1       
 
 Vector   60  Occ=0.000000D+00  E= 5.842677D+00
              MO Center= -8.3D+00,  2.6D+00,  5.1D-02, r^2= 1.0D+00
   Bfn.  Coefficient  Atom+Function         Bfn.  Coefficient  Atom+Function  
  ----- ------------  ---------------      ----- ------------  ---------------
    42     -0.701527  2 O  pz                 4      0.654786  1 O  s          
    35     -0.654739  2 O  s                  9     -0.640797  1 O  px         
    47     -0.531545  2 O  d -1              66     -0.495641  3 H  px         
    63     -0.470206  3 H  s                 69      0.470185  4 H  s          
    74     -0.465597  4 H  pz                11     -0.407072  1 O  pz         
 
 Vector   61  Occ=0.000000D+00  E= 5.948124D+00
              MO Center= -8.3D+00,  2.7D+00,  7.0D-02, r^2= 1.0D+00
   Bfn.  Coefficient  Atom+Function         Bfn.  Coefficient  Atom+Function  
  ----- ------------  ---------------      ----- ------------  ---------------
     4      0.978082  1 O  s                 35      0.978128  2 O  s          
     9     -0.729193  1 O  px                42      0.654054  2 O  pz         
    66     -0.536578  3 H  px                74      0.513034  4 H  pz         
    63     -0.495934  3 H  s                 69     -0.495950  4 H  s          
    64     -0.449122  3 H  s                 70     -0.449132  4 H  s          
 
 Vector   62  Occ=0.000000D+00  E= 6.100484D+00
              MO Center= -8.2D+00,  2.6D+00,  2.3D-02, r^2= 8.9D-01
   Bfn.  Coefficient  Atom+Function         Bfn.  Coefficient  Atom+Function  
  ----- ------------  ---------------      ----- ------------  ---------------
     5      1.250096  1 O  s                 36     -1.250093  2 O  s          
     4     -0.952561  1 O  s                 35      0.952547  2 O  s          
    16      0.694029  1 O  d -1              48      0.575334  2 O  d  0       
     3      0.426630  1 O  s                 34     -0.426626  2 O  s          
    44     -0.427970  2 O  py                14      0.388301  1 O  pz         
 
 Vector   63  Occ=0.000000D+00  E= 6.116243D+00
              MO Center= -8.2D+00,  2.6D+00,  2.0D-02, r^2= 8.9D-01
   Bfn.  Coefficient  Atom+Function         Bfn.  Coefficient  Atom+Function  
  ----- ------------  ---------------      ----- ------------  ---------------
    50      0.628572  2 O  d  2              19     -0.519056  1 O  d  2       
    18     -0.482519  1 O  d  1              17     -0.359811  1 O  d  0       
    49      0.326883  2 O  d  1              55     -0.313582  2 O  d  2       
    48      0.287841  2 O  d  0              23      0.273313  1 O  d  1       
    46      0.241155  2 O  d -2              24      0.228549  1 O  d  2       
 
 Vector   64  Occ=0.000000D+00  E= 6.168482D+00
              MO Center= -8.2D+00,  2.6D+00,  4.6D-03, r^2= 9.1D-01
   Bfn.  Coefficient  Atom+Function         Bfn.  Coefficient  Atom+Function  
  ----- ------------  ---------------      ----- ------------  ---------------
    15      0.664116  1 O  d -2              49     -0.516518  2 O  d  1       
    20     -0.375181  1 O  d -2              54      0.370323  2 O  d  1       
    47     -0.357707  2 O  d -1              17      0.313288  1 O  d  0       
    50      0.308728  2 O  d  2              46      0.295366  2 O  d -2       
    64      0.283285  3 H  s                 70      0.283239  4 H  s          
 
 Vector   65  Occ=0.000000D+00  E= 6.189351D+00
              MO Center= -8.2D+00,  2.6D+00,  1.6D-02, r^2= 9.0D-01
   Bfn.  Coefficient  Atom+Function         Bfn.  Coefficient  Atom+Function  
  ----- ------------  ---------------      ----- ------------  ---------------
    46      0.600377  2 O  d -2              17      0.574024  1 O  d  0       
     5      0.484135  1 O  s                 36     -0.484154  2 O  s          
    15     -0.398443  1 O  d -2              49      0.382844  2 O  d  1       
    51     -0.350485  2 O  d -2              48     -0.321414  2 O  d  0       
    18     -0.316881  1 O  d  1              22     -0.314674  1 O  d  0       
 
 Vector   66  Occ=0.000000D+00  E= 6.249718D+00
              MO Center= -8.2D+00,  2.6D+00,  2.1D-02, r^2= 9.4D-01
   Bfn.  Coefficient  Atom+Function         Bfn.  Coefficient  Atom+Function  
  ----- ------------  ---------------      ----- ------------  ---------------
    15      0.622226  1 O  d -2              18     -0.493620  1 O  d  1       
    50     -0.470204  2 O  d  2              20     -0.444562  1 O  d -2       
    46     -0.442022  2 O  d -2              49      0.407067  2 O  d  1       
    55      0.328687  2 O  d  2               4      0.312038  1 O  s          
    35     -0.312016  2 O  s                 47      0.281514  2 O  d -1       
 
 Vector   67  Occ=0.000000D+00  E= 6.510412D+00
              MO Center= -8.3D+00,  2.6D+00,  2.5D-02, r^2= 1.0D+00
   Bfn.  Coefficient  Atom+Function         Bfn.  Coefficient  Atom+Function  
  ----- ------------  ---------------      ----- ------------  ---------------
    64      0.803883  3 H  s                 70      0.803842  4 H  s          
    42     -0.650522  2 O  pz                 9      0.641135  1 O  px         
    16     -0.631561  1 O  d -1              46      0.614335  2 O  d -2       
    51     -0.548889  2 O  d -2              24     -0.471073  1 O  d  2       
    74     -0.440958  4 H  pz                 4     -0.429461  1 O  s          
 
 Vector   68  Occ=0.000000D+00  E= 6.610680D+00
              MO Center= -8.2D+00,  2.6D+00,  2.0D-02, r^2= 1.1D+00
   Bfn.  Coefficient  Atom+Function         Bfn.  Coefficient  Atom+Function  
  ----- ------------  ---------------      ----- ------------  ---------------
    64     -0.872867  3 H  s                 70      0.872897  4 H  s          
    24      0.864464  1 O  d  2               9     -0.770873  1 O  px         
     4      0.761805  1 O  s                 35     -0.761804  2 O  s          
    19     -0.724454  1 O  d  2              54      0.627061  2 O  d  1       
    42     -0.596348  2 O  pz                 5      0.593126  1 O  s          
 
 Vector   69  Occ=0.000000D+00  E= 6.756277D+00
              MO Center= -8.2D+00,  2.6D+00,  1.5D-02, r^2= 1.0D+00
   Bfn.  Coefficient  Atom+Function         Bfn.  Coefficient  Atom+Function  
  ----- ------------  ---------------      ----- ------------  ---------------
    17      0.603401  1 O  d  0              22     -0.570377  1 O  d  0       
    48      0.569039  2 O  d  0              47     -0.526461  2 O  d -1       
    53     -0.515280  2 O  d  0              16     -0.429246  1 O  d -1       
    52      0.406284  2 O  d -1              51      0.339414  2 O  d -2       
    21      0.286503  1 O  d -1              19     -0.281186  1 O  d  2       
 
 Vector   70  Occ=0.000000D+00  E= 6.826909D+00
              MO Center= -8.2D+00,  2.6D+00,  2.1D-02, r^2= 1.2D+00
   Bfn.  Coefficient  Atom+Function         Bfn.  Coefficient  Atom+Function  
  ----- ------------  ---------------      ----- ------------  ---------------
     4      1.085763  1 O  s                 35     -1.085787  2 O  s          
    64     -0.947218  3 H  s                 70      0.947244  4 H  s          
     9     -0.830093  1 O  px                42     -0.779014  2 O  pz         
    23     -0.763946  1 O  d  1              52     -0.674298  2 O  d -1       
    66     -0.668495  3 H  px                53     -0.647718  2 O  d  0       
 
 Vector   71  Occ=0.000000D+00  E= 7.023123D+00
              MO Center= -8.2D+00,  2.6D+00,  2.1D-02, r^2= 1.1D+00
   Bfn.  Coefficient  Atom+Function         Bfn.  Coefficient  Atom+Function  
  ----- ------------  ---------------      ----- ------------  ---------------
     4      1.294833  1 O  s                 35      1.294847  2 O  s          
    64     -0.861742  3 H  s                 70     -0.861715  4 H  s          
     9     -0.825387  1 O  px                52      0.747012  2 O  d -1       
    42      0.698584  2 O  pz                23     -0.694284  1 O  d  1       
    63     -0.680257  3 H  s                 69     -0.680235  4 H  s          
 
 Vector   72  Occ=0.000000D+00  E= 7.709473D+00
              MO Center= -8.2D+00,  2.6D+00,  1.9D-02, r^2= 1.1D+00
   Bfn.  Coefficient  Atom+Function         Bfn.  Coefficient  Atom+Function  
  ----- ------------  ---------------      ----- ------------  ---------------
     4      1.625613  1 O  s                 35     -1.625570  2 O  s          
    42      1.600488  2 O  pz                11      1.524175  1 O  pz         
    52      1.368704  2 O  d -1              10     -1.275427  1 O  py         
    21     -1.234883  1 O  d -1              41     -1.141309  2 O  py         
     3     -1.095916  1 O  s                 34      1.095899  2 O  s          
 
 Vector   73  Occ=0.000000D+00  E= 4.266561D+01
              MO Center= -8.2D+00,  2.6D+00,  2.0D-02, r^2= 6.6D-01
   Bfn.  Coefficient  Atom+Function         Bfn.  Coefficient  Atom+Function  
  ----- ------------  ---------------      ----- ------------  ---------------
     2      1.195281  1 O  s                 33      1.195259  2 O  s          
     4      1.088304  1 O  s                 35      1.088278  2 O  s          
     3     -1.058969  1 O  s                 34     -1.058945  2 O  s          
     1     -0.982233  1 O  s                 32     -0.982215  2 O  s          
     5     -0.466979  1 O  s                 36     -0.466970  2 O  s          
 
 Vector   74  Occ=0.000000D+00  E= 4.314035D+01
              MO Center= -8.2D+00,  2.6D+00,  1.9D-02, r^2= 6.6D-01
   Bfn.  Coefficient  Atom+Function         Bfn.  Coefficient  Atom+Function  
  ----- ------------  ---------------      ----- ------------  ---------------
     4      1.430429  1 O  s                 35     -1.430447  2 O  s          
     3     -1.253704  1 O  s                 34      1.253723  2 O  s          
     2      1.216005  1 O  s                 33     -1.216027  2 O  s          
     1     -0.985438  1 O  s                 32      0.985456  2 O  s          
     5     -0.668648  1 O  s                 36      0.668655  2 O  s          
 

 center of mass
 --------------
 x = -15.61131333 y =   4.91632005 z =   0.05853696

 moments of inertia (a.u.)
 ------------------
          70.464279698891          -8.501143062858           8.953521101028
          -8.501143062858          49.695489163471          31.413197987810
           8.953521101028          31.413197987810          32.372963348984
 
     Multipole analysis of the density
     ---------------------------------
 
     L   x y z        total         alpha         beta         nuclear
     -   - - -        -----         -----         ----         -------
     0   0 0 0     -0.000000     -9.000000     -9.000000     18.000000
 
     1   1 0 0     -0.396592    140.559427    140.559427   -281.515447
     1   0 1 0      0.480066    -44.316643    -44.316643     89.113353
     1   0 0 1      0.273136     -0.566500     -0.566500      1.406136
 
     2   2 0 0      3.604206  -2201.474820  -2201.474820   4406.553846
     2   1 1 0    -10.242338    689.980887    689.980887  -1390.204112
     2   1 0 1     -2.648355     11.191504     11.191504    -25.031362
     2   0 2 0     -4.804355   -229.990529   -229.990529    455.176704
     2   0 1 1      1.238114      5.514647      5.514647     -9.791180
     2   0 0 2     -6.295874    -16.505746    -16.505746     26.715618
 
 
            General Information
            -------------------
          SCF calculation type: DFT
          Wavefunction type:  closed shell.
          No. of atoms     :     4
          No. of electrons :    18
           Alpha electrons :     9
            Beta electrons :     9
          Charge           :     0
          Spin multiplicity:     1
          Use of symmetry is: off; symmetry adaption is: off
          Maximum number of iterations: 250
          This is a Direct SCF calculation.
          AO basis - number of functions:    74
                     number of shells:    30
          Convergence on energy requested:  1.00D-08
          Convergence on density requested:  1.00D-05
          Convergence on gradient requested:  1.00D-08
 
              XC Information
              --------------
                    Becke 1988 Exchange Functional  1.000          
              Lee-Yang-Parr Correlation Functional  1.000          
 
             Grid Information
             ----------------
          Grid used for XC integration:  xfine     
          Radial quadrature: Mura-Knowles        
          Angular quadrature: Lebedev. 
          Tag              B.-S. Rad. Rad. Pts. Rad. Cut. Ang. Pts.
          ---              ---------- --------- --------- ---------
          O                   0.60      100           8.0      1454
          H                   0.35      100          10.0      1202
          Grid pruning is: on 
          Number of quadrature shells:   400
          Spatial weights used:  Erf1
 
          Convergence Information
          -----------------------
          Convergence aids based upon iterative change in 
          total energy or number of iterations. 
          Levelshifting, if invoked, occurs when the 
          HOMO/LUMO gap drops below (HL_TOL):  1.00D-02
          DIIS, if invoked, will attempt to extrapolate 
          using up to (NFOCK): 10 stored Fock matrices.

                    Damping( 0%)  Levelshifting(0.0)       DIIS
                  --------------- ------------------- ---------------
          dE  on:    start             N/A                start   
          dE off:    2 iters           N/A              250 iters 

 
      Screening Tolerance Information
      -------------------------------
          Density screening/tol_rho:  1.00D-11
          AO Gaussian exp screening on grid/accAOfunc:  18
          CD Gaussian exp screening on grid/accCDfunc:  20
          XC Gaussian exp screening on grid/accXCfunc:  20
          Schwarz screening/accCoul:  1.00D-09

 
 
                            NWChem DFT Gradient Module
                            --------------------------
 
 
                         h2o2 roa calculations at 514.5 nm, input generated by va with delta_type=2
 
 

  charge          =   0.00
  wavefunction    = closed shell



                         DFT ENERGY GRADIENTS

    atom               coordinates                        gradient
                 x          y          z           x          y          z
   1 O     -15.222142   5.761610  -1.000982   -0.002548  -0.000845  -0.001604
   2 O     -15.935458   3.992309   1.073274    0.002261   0.001189   0.001799
   3 H     -16.886690   6.130016  -1.724080    0.000839   0.001611  -0.002223
   4 H     -15.367958   4.951985   2.551884   -0.000552  -0.001955   0.002027
 
                 ----------------------------------------
                 |  Time  |  1-e(secs)   |  2-e(secs)   |
                 ----------------------------------------
                 |  CPU   |       0.01   |       2.20   |
                 ----------------------------------------
                 |  WALL  |       0.01   |       2.21   |
                 ----------------------------------------

 Task  times  cpu:       34.0s     wall:       34.8s
 
 
                                NWChem Input Module
                                -------------------
 
 
                              NWChem Property Module
                              ----------------------
 
 
                         h2o2 roa calculations at 514.5 nm, input generated by va with delta_type=2
 
 
                                 NWChem DFT Module
                                 -----------------
 
 
                         h2o2 roa calculations at 514.5 nm, input generated by va with delta_type=2
 
 


 Summary of "ao basis" -> "ao basis" (spherical)
 ------------------------------------------------------------------------------
       Tag                 Description            Shells   Functions and Types
 ---------------- ------------------------------  ------  ---------------------
 O                         def2-TZVP                11       31   5s3p2d1f
 H                         def2-TZVP                 4        6   3s1p


  Caching 1-el integrals 
 
            General Information
            -------------------
          SCF calculation type: DFT
          Wavefunction type:  closed shell.
          No. of atoms     :     4
          No. of electrons :    18
           Alpha electrons :     9
            Beta electrons :     9
          Charge           :     0
          Spin multiplicity:     1
          Use of symmetry is: off; symmetry adaption is: off
          Maximum number of iterations: 250
          This is a Direct SCF calculation.
          AO basis - number of functions:    74
                     number of shells:    30
          Convergence on energy requested:  1.00D-08
          Convergence on density requested:  1.00D-05
          Convergence on gradient requested:  1.00D-08
 
              XC Information
              --------------
                    Becke 1988 Exchange Functional  1.000          
              Lee-Yang-Parr Correlation Functional  1.000          
 
             Grid Information
             ----------------
          Grid used for XC integration:  xfine     
          Radial quadrature: Mura-Knowles        
          Angular quadrature: Lebedev. 
          Tag              B.-S. Rad. Rad. Pts. Rad. Cut. Ang. Pts.
          ---              ---------- --------- --------- ---------
          O                   0.60      100           8.0      1454
          H                   0.35      100          10.0      1202
          Grid pruning is: on 
          Number of quadrature shells:   400
          Spatial weights used:  Erf1
 
          Convergence Information
          -----------------------
          Convergence aids based upon iterative change in 
          total energy or number of iterations. 
          Levelshifting, if invoked, occurs when the 
          HOMO/LUMO gap drops below (HL_TOL):  1.00D-02
          DIIS, if invoked, will attempt to extrapolate 
          using up to (NFOCK): 10 stored Fock matrices.

                    Damping( 0%)  Levelshifting(0.0)       DIIS
                  --------------- ------------------- ---------------
          dE  on:    start             N/A                start   
          dE off:    2 iters           N/A              250 iters 

 
      Screening Tolerance Information
      -------------------------------
          Density screening/tol_rho:  1.00D-11
          AO Gaussian exp screening on grid/accAOfunc:  18
          CD Gaussian exp screening on grid/accCDfunc:  20
          XC Gaussian exp screening on grid/accXCfunc:  20
          Schwarz screening/accCoul:  1.00D-09


 Loading old vectors from job with title :

h2o2 roa calculations at 514.5 nm, input generated by va with delta_type=2

   Time after variat. SCF:     35.4
   Time prior to 1st pass:     35.4

 Grid_pts file          = ./h2o2_514.5_10.inp.gridpts.0
 Record size in doubles =  12289        No. of grid_pts per rec  =   3070
 Max. records in memory =    210        Max. recs in file   =   3725034


           Memory utilization after 1st SCF pass: 
           Heap Space remaining (MW):       10.52            10522928
          Stack Space remaining (MW):       13.11            13106668

   convergence    iter        energy       DeltaE   RMS-Dens  Diis-err    time
 ---------------- ----- ----------------- --------- --------- ---------  ------
 d= 0,ls=0.0,diis     1   -151.6010297127 -1.88D+02  8.35D-07  2.19D-09    38.9
 d= 0,ls=0.0,diis     2   -151.6010297111  1.65D-09  6.31D-07  2.10D-08    42.2
 d= 0,ls=0.0,diis     3   -151.6010297129 -1.84D-09  1.91D-08  5.20D-12    45.5


         Total DFT energy =     -151.601029712904
      One electron energy =     -279.769929033720
           Coulomb energy =      110.028125509615
    Exchange-Corr. energy =      -17.810090215240
 Nuclear repulsion energy =       35.950864026442

 Numeric. integr. density =       17.999999998392

     Total iterative time =     10.1s


 
                       DFT Final Molecular Orbital Analysis
                       ------------------------------------
 
 Vector    1  Occ=2.000000D+00  E=-1.883183D+01
              MO Center= -8.2D+00,  2.6D+00,  3.3D-02, r^2= 5.7D-01
   Bfn.  Coefficient  Atom+Function         Bfn.  Coefficient  Atom+Function  
  ----- ------------  ---------------      ----- ------------  ---------------
    33     -0.457145  2 O  s                  2      0.445959  1 O  s          
    32     -0.311670  2 O  s                  1      0.304047  1 O  s          
    34     -0.027549  2 O  s                  3      0.026923  1 O  s          
 
 Vector    2  Occ=2.000000D+00  E=-1.883181D+01
              MO Center= -8.2D+00,  2.6D+00,  5.6D-03, r^2= 5.7D-01
   Bfn.  Coefficient  Atom+Function         Bfn.  Coefficient  Atom+Function  
  ----- ------------  ---------------      ----- ------------  ---------------
     2      0.457315  1 O  s                 33      0.446133  2 O  s          
     1      0.311649  1 O  s                 32      0.304025  2 O  s          
     3      0.025622  1 O  s          
 
 Vector    3  Occ=2.000000D+00  E=-1.006428D+00
              MO Center= -8.3D+00,  2.6D+00,  5.3D-02, r^2= 8.2D-01
   Bfn.  Coefficient  Atom+Function         Bfn.  Coefficient  Atom+Function  
  ----- ------------  ---------------      ----- ------------  ---------------
     4      0.313172  1 O  s                 35      0.313172  2 O  s          
     3      0.239692  1 O  s                 34      0.239692  2 O  s          
     2     -0.163271  1 O  s                 33     -0.163271  2 O  s          
     5      0.097191  1 O  s                 36      0.097190  2 O  s          
    38      0.071029  2 O  py                 1     -0.070145  1 O  s          
 
 Vector    4  Occ=2.000000D+00  E=-8.197570D-01
              MO Center= -8.3D+00,  2.7D+00,  7.2D-02, r^2= 1.3D+00
   Bfn.  Coefficient  Atom+Function         Bfn.  Coefficient  Atom+Function  
  ----- ------------  ---------------      ----- ------------  ---------------
     4      0.326471  1 O  s                 35     -0.326471  2 O  s          
     3      0.253749  1 O  s                 34     -0.253749  2 O  s          
     2     -0.167038  1 O  s                 33      0.167038  2 O  s          
     5      0.139984  1 O  s                 36     -0.139984  2 O  s          
    63      0.090978  3 H  s                 69     -0.090977  4 H  s          
 
 Vector    5  Occ=2.000000D+00  E=-4.764139D-01
              MO Center= -8.3D+00,  2.7D+00,  6.0D-02, r^2= 1.3D+00
   Bfn.  Coefficient  Atom+Function         Bfn.  Coefficient  Atom+Function  
  ----- ------------  ---------------      ----- ------------  ---------------
    39      0.309788  2 O  pz                42      0.242121  2 O  pz         
     7      0.207095  1 O  py                 8     -0.202323  1 O  pz         
    10      0.166456  1 O  py                11     -0.159703  1 O  pz         
    64      0.131431  3 H  s                 70      0.131429  4 H  s          
     6     -0.118004  1 O  px                45      0.109625  2 O  pz         
 
 Vector    6  Occ=2.000000D+00  E=-4.307218D-01
              MO Center= -8.3D+00,  2.6D+00,  3.6D-02, r^2= 1.3D+00
   Bfn.  Coefficient  Atom+Function         Bfn.  Coefficient  Atom+Function  
  ----- ------------  ---------------      ----- ------------  ---------------
     6      0.254233  1 O  px                 9      0.189763  1 O  px         
    37      0.177421  2 O  px                39      0.156061  2 O  pz         
     4      0.154309  1 O  s                 35     -0.154313  2 O  s          
     5      0.152636  1 O  s                 36     -0.152641  2 O  s          
    38      0.151054  2 O  py                40      0.137213  2 O  px         
 
 Vector    7  Occ=2.000000D+00  E=-3.636311D-01
              MO Center= -8.2D+00,  2.5D+00, -2.0D-02, r^2= 1.3D+00
   Bfn.  Coefficient  Atom+Function         Bfn.  Coefficient  Atom+Function  
  ----- ------------  ---------------      ----- ------------  ---------------
    38      0.319077  2 O  py                41      0.249663  2 O  py         
     6     -0.239517  1 O  px                 8      0.214879  1 O  pz         
     9     -0.183493  1 O  px                11      0.173809  1 O  pz         
    44      0.166253  2 O  py                 5     -0.129585  1 O  s          
    36     -0.129583  2 O  s                 12     -0.119417  1 O  px         
 
 Vector    8  Occ=2.000000D+00  E=-2.748337D-01
              MO Center= -8.3D+00,  2.6D+00,  5.4D-02, r^2= 1.3D+00
   Bfn.  Coefficient  Atom+Function         Bfn.  Coefficient  Atom+Function  
  ----- ------------  ---------------      ----- ------------  ---------------
    37      0.343988  2 O  px                 7     -0.270184  1 O  py         
    40      0.267736  2 O  px                10     -0.216468  1 O  py         
    43      0.214301  2 O  px                13     -0.172448  1 O  py         
     8     -0.155526  1 O  pz                 6     -0.152034  1 O  px         
     5     -0.123407  1 O  s                 36     -0.123404  2 O  s          
 
 Vector    9  Occ=2.000000D+00  E=-2.306206D-01
              MO Center= -8.2D+00,  2.6D+00,  7.1D-03, r^2= 1.2D+00
   Bfn.  Coefficient  Atom+Function         Bfn.  Coefficient  Atom+Function  
  ----- ------------  ---------------      ----- ------------  ---------------
    37      0.282513  2 O  px                 7      0.275815  1 O  py         
    40      0.222902  2 O  px                10      0.215207  1 O  py         
    38     -0.215447  2 O  py                43      0.205795  2 O  px         
     8      0.202272  1 O  pz                13      0.190296  1 O  py         
    41     -0.164643  2 O  py                11      0.159460  1 O  pz         
 
 Vector   10  Occ=0.000000D+00  E=-6.123266D-02
              MO Center= -8.3D+00,  2.6D+00,  5.2D-02, r^2= 1.8D+00
   Bfn.  Coefficient  Atom+Function         Bfn.  Coefficient  Atom+Function  
  ----- ------------  ---------------      ----- ------------  ---------------
     5      0.509683  1 O  s                 36     -0.509671  2 O  s          
    44     -0.329588  2 O  py                65     -0.300171  3 H  s          
    71      0.300159  4 H  s                 14      0.295473  1 O  pz         
    13     -0.279863  1 O  py                45      0.267190  2 O  pz         
[...]
    64      0.803873  3 H  s                 70      0.803852  4 H  s          
    42     -0.650529  2 O  pz                 9      0.641124  1 O  px         
    16     -0.631564  1 O  d -1              46      0.614333  2 O  d -2       
    51     -0.548891  2 O  d -2              24     -0.471064  1 O  d  2       
    74     -0.440964  4 H  pz                 4     -0.429446  1 O  s          
 
 Vector   68  Occ=0.000000D+00  E= 6.610680D+00
              MO Center= -8.2D+00,  2.6D+00,  2.0D-02, r^2= 1.1D+00
   Bfn.  Coefficient  Atom+Function         Bfn.  Coefficient  Atom+Function  
  ----- ------------  ---------------      ----- ------------  ---------------
    64     -0.872873  3 H  s                 70      0.872892  4 H  s          
    24      0.864467  1 O  d  2               9     -0.770877  1 O  px         
     4      0.761805  1 O  s                 35     -0.761804  2 O  s          
    19     -0.724458  1 O  d  2              54      0.627061  2 O  d  1       
    42     -0.596345  2 O  pz                 5      0.593129  1 O  s          
 
 Vector   69  Occ=0.000000D+00  E= 6.756276D+00
              MO Center= -8.2D+00,  2.6D+00,  1.5D-02, r^2= 1.0D+00
   Bfn.  Coefficient  Atom+Function         Bfn.  Coefficient  Atom+Function  
  ----- ------------  ---------------      ----- ------------  ---------------
    17      0.603404  1 O  d  0              22     -0.570378  1 O  d  0       
    48      0.569038  2 O  d  0              47     -0.526460  2 O  d -1       
    53     -0.515280  2 O  d  0              16     -0.429247  1 O  d -1       
    52      0.406283  2 O  d -1              51      0.339412  2 O  d -2       
    21      0.286501  1 O  d -1              19     -0.281187  1 O  d  2       
 
 Vector   70  Occ=0.000000D+00  E= 6.826909D+00
              MO Center= -8.2D+00,  2.6D+00,  2.1D-02, r^2= 1.2D+00
   Bfn.  Coefficient  Atom+Function         Bfn.  Coefficient  Atom+Function  
  ----- ------------  ---------------      ----- ------------  ---------------
     4      1.085754  1 O  s                 35     -1.085795  2 O  s          
    64     -0.947213  3 H  s                 70      0.947249  4 H  s          
     9     -0.830088  1 O  px                42     -0.779018  2 O  pz         
    23     -0.763942  1 O  d  1              52     -0.674303  2 O  d -1       
    66     -0.668491  3 H  px                53     -0.647720  2 O  d  0       
 
 Vector   71  Occ=0.000000D+00  E= 7.023123D+00
              MO Center= -8.2D+00,  2.6D+00,  2.1D-02, r^2= 1.1D+00
   Bfn.  Coefficient  Atom+Function         Bfn.  Coefficient  Atom+Function  
  ----- ------------  ---------------      ----- ------------  ---------------
     4      1.294846  1 O  s                 35      1.294834  2 O  s          
    64     -0.861750  3 H  s                 70     -0.861707  4 H  s          
     9     -0.825395  1 O  px                52      0.747009  2 O  d -1       
    42      0.698579  2 O  pz                23     -0.694289  1 O  d  1       
    63     -0.680262  3 H  s                 69     -0.680230  4 H  s          
 
 Vector   72  Occ=0.000000D+00  E= 7.709473D+00
              MO Center= -8.2D+00,  2.6D+00,  1.9D-02, r^2= 1.1D+00
   Bfn.  Coefficient  Atom+Function         Bfn.  Coefficient  Atom+Function  
  ----- ------------  ---------------      ----- ------------  ---------------
     4      1.625612  1 O  s                 35     -1.625572  2 O  s          
    42      1.600488  2 O  pz                11      1.524175  1 O  pz         
    52      1.368703  2 O  d -1              10     -1.275427  1 O  py         
    21     -1.234884  1 O  d -1              41     -1.141310  2 O  py         
     3     -1.095915  1 O  s                 34      1.095899  2 O  s          
 
 Vector   73  Occ=0.000000D+00  E= 4.266561D+01
              MO Center= -8.2D+00,  2.6D+00,  2.0D-02, r^2= 6.6D-01
   Bfn.  Coefficient  Atom+Function         Bfn.  Coefficient  Atom+Function  
  ----- ------------  ---------------      ----- ------------  ---------------
     2      1.195269  1 O  s                 33      1.195271  2 O  s          
     4      1.088290  1 O  s                 35      1.088293  2 O  s          
     3     -1.058956  1 O  s                 34     -1.058958  2 O  s          
     1     -0.982223  1 O  s                 32     -0.982224  2 O  s          
     5     -0.466972  1 O  s                 36     -0.466976  2 O  s          
 
 Vector   74  Occ=0.000000D+00  E= 4.314035D+01
              MO Center= -8.2D+00,  2.6D+00,  1.9D-02, r^2= 6.6D-01
   Bfn.  Coefficient  Atom+Function         Bfn.  Coefficient  Atom+Function  
  ----- ------------  ---------------      ----- ------------  ---------------
     4      1.430440  1 O  s                 35     -1.430436  2 O  s          
     3     -1.253715  1 O  s                 34      1.253713  2 O  s          
     2      1.216017  1 O  s                 33     -1.216015  2 O  s          
     1     -0.985448  1 O  s                 32      0.985446  2 O  s          
     5     -0.668653  1 O  s                 36      0.668650  2 O  s          
 

 center of mass
 --------------
 x = -15.61131333 y =   4.91632005 z =   0.05853696

 moments of inertia (a.u.)
 ------------------
          70.464279698891          -8.501143062858           8.953521101028
          -8.501143062858          49.695489163471          31.413197987810
           8.953521101028          31.413197987810          32.372963348984
 
     Multipole analysis of the density
     ---------------------------------
 
     L   x y z        total         alpha         beta         nuclear
     -   - - -        -----         -----         ----         -------
     0   0 0 0     -0.000000     -9.000000     -9.000000     18.000000
 
     1   1 0 0     -0.396579    140.559434    140.559434   -281.515447
     1   0 1 0      0.480090    -44.316632    -44.316632     89.113353
     1   0 0 1      0.273116     -0.566510     -0.566510      1.406136
 
     2   2 0 0      3.603804  -2201.475021  -2201.475021   4406.553846
     2   1 1 0    -10.242638    689.980737    689.980737  -1390.204112
     2   1 0 1     -2.648049     11.191657     11.191657    -25.031362
     2   0 2 0     -4.804124   -229.990414   -229.990414    455.176704
     2   0 1 1      1.238019      5.514600      5.514600     -9.791180
     2   0 0 2     -6.295864    -16.505741    -16.505741     26.715618
 
 *** CALLING NEW AORESP DRIVER FOR CLOSED AND OPEN SHELLS ***
 Entering AOResponse driver routine


--------------------------------------------------------------------------------

          ****************
          *** RESPONSE ***
          ****************

 Response module for NWChem and dynamic CPKS solver
 developed by J. Autschbach and coworkers, SUNY Buffalo
 The methodology used in this program is described in 
 ChemPhysChem 12 (2011), 3224-3235 (main reference)
 J. Chem. Phys. 123 (2005), 114103
 J. Chem. Phys. 122 (2005), 224115
 J. Chem. Phys. 122 (2005), 074105
 Comp. Lett. 3 (2007), 131-150 (contact JA for a copy)
 Please cite this work in publications based on results
 obtained with this code. Thank you!

 For extension of response module to open shell
 calculations please acknowledge:
 F. Aquino, Northwestern University, Schatz Rsrch Group
 The update to the methodology is described in
 J. Phys. Chem. A 118 (2014) 517-525



          -----------------------------------------------
          Solving response equations for perturbing field
          -----------------------------------------------

 number of frequencies:     1
 frequency in a.u.:  0.8855800E-01
 Perturbing field: electric
 Using GIAO formalism for OptRot
 Adding quadrupole terms to OptRot
 to create an origin in dependent tensor.
 Using El. Dipole Length Gauge
 
 Applying DAMPING constant of  0.003700 a.u.
 
 Setting up CPKS
 with frequency omega =      0.08855800 a.u.
 and a damping of            0.00370000 a.u.

 
                            NWChem Dynamic CPHF Module
                            --------------------------
 
 
    scftype = RHF 
    nclosed =    9
      nopen =    0
  variables =     2340
  num. vecs =        3
  tolerance =   1.0D-09
  max. iter =  100

 SCF residual:   1.050877935658721E-006


Iterative solution of linear equations
  No. of variables     1170
  No. of equations        3
  Maximum subspace       99
       Convergence  1.0D-09
        Start time     49.0


   iter   nsub   residual    time 
   ----  ------  --------  --------- 
 dft_CPHF2_read: failed to open./h2o2_514.5_10.inp.aoresp_fiao_f1
     1      3    5.08D+00      75.2
     2      6    2.12D+00     101.8
     3      9    1.63D-01     128.3
     4     12    8.08D-03     154.8
     5     15    2.09D-03     181.3
     6     18    3.06D-04     207.9
     7     21    2.85D-05     234.4
     8     24    8.63D-07     260.9
     9     27    5.50D-08     287.4
    10     30    4.64D-09     313.9
    11     33    3.40D-10     340.4

 Calculating some arrays needed for GIAO optical rotation

    0 giaofock schwarz done =      98.66%
    0 giaofock schwarz done =      98.66%
 aor_r1_tensor_giao: roadata output requested
 dip-quad polarizability Re:

              1        2        3        4        5        6      
    1 -335.8117  44.8078  -8.8367   5.7404   4.3563   0.0071
    2  -21.0277-186.7299  56.0075 119.2637 -15.7763   3.6725
    3  -14.4760  57.2840-254.2133 -35.9690  83.0084   8.6934
 traceless dip-quad polarizability:

              1        2        3      
    1 -338.6854  67.2117 -13.2550
    2   67.2117 173.6426   6.5344
    3  -13.2550   6.5344 165.0428

              1        2        3      
    1  -82.4958-280.0948  84.0113
    2 -280.0948 127.9412 -23.6644
    3   84.0113 -23.6644 -45.4455

              1        2        3      
    1   -0.8382  85.9260-381.3199
    2   85.9260 -33.0777 124.5126
    3 -381.3199 124.5126  33.9159

 roa begin

 alpha real:
 XX       0.1065621667002E+02
 XY       0.6886861439878E+00
 XZ       0.4022917229603E+00
 YX       0.6886861440325E+00
 YY       0.1207917572740E+02
 YZ      -0.3453576808991E+01
 ZX       0.4022917228530E+00
 ZY      -0.3453576808911E+01
 ZZ       0.1620018078538E+02

 alpha im:
 XX       0.2283434642994E-01
 XY       0.2338934202608E-02
 XZ      -0.1834681169531E-02
 YX       0.2338934172398E-02
 YY       0.3097278192599E-01
 YZ      -0.1366536335730E-01
 ZX      -0.1834681006625E-02
 ZY      -0.1366536323899E-01
 ZZ       0.4262271011776E-01

 beta real:
 XX      -0.7132096394038E-01
 XY      -0.1943965426707E+00
 XZ       0.2932716252448E+01
 YX       0.7916099940862E+00
 YY       0.2226987283155E+01
 YZ       0.8412339539822E+01
 ZX      -0.3217693769440E+01
 ZY      -0.1113645402779E+02
 ZZ      -0.2162260713627E+01

 G-prime = -omega beta(real):
 XX      -0.7132096394038E-01
 XY      -0.1943965426707E+00
 XZ       0.2932716252448E+01
 YX       0.7916099940862E+00
 YY       0.2226987283155E+01
 YZ       0.8412339539822E+01
 ZX      -0.3217693769440E+01
 ZY      -0.1113645402779E+02
 ZZ      -0.2162260713627E+01

 beta im:
 XX      -0.1023606156992E-02
 XY       0.2470378380150E-04
 XZ       0.5672444300111E-01
 YX       0.3509470101292E-01
 YY       0.9608672319478E-01
 YZ       0.1320837796224E+00
 ZX      -0.6222007081987E-01
 ZY      -0.2362547812628E+00
 ZZ      -0.9776744788901E-01

 G-prime = -omega beta(imag):
 XX      -0.1023606156992E-02
 XY       0.2470378380150E-04
 XZ       0.5672444300111E-01
 YX       0.3509470101292E-01
 YY       0.9608672319478E-01
 YZ       0.1320837796224E+00
 ZX      -0.6222007081987E-01
 ZY      -0.2362547812628E+00
 ZZ      -0.9776744788901E-01

 dipole-quadrupole real (Cartesian):
 XXX     -0.3358116634340E+03
 XXY      0.4480779816256E+02
 XXZ     -0.8836668675881E+01
 XYY      0.5740375500648E+01
 XYZ      0.4356295526681E+01
 XZZ      0.7119740302567E-02
 YXX     -0.2102765566997E+02
 YXY     -0.1867298551420E+03
 YXZ      0.5600752067207E+02
 YYY      0.1192636918848E+03
 YYZ     -0.1577629581724E+02
 YZZ      0.3672545182986E+01
 ZXX     -0.1447599574079E+02
 ZXY      0.5728399137483E+02
 ZXZ     -0.2542132667344E+03
 ZYY     -0.3596904634641E+02
 ZYZ      0.8300842235992E+02
 ZZZ      0.8693380048472E+01

 dipole-quadrupole imag (Cartesian):
 XXX     -0.7237822391246E+00
 XXY      0.8697633214800E-01
 XXZ      0.2155563876028E-01
 XYY      0.1987373173365E-01
 XYZ     -0.3890743527141E-02
 XZZ     -0.3908017004983E-02
 YXX     -0.7016394556575E-01
 YXY     -0.4817943702842E+00
 YXZ      0.2239369157921E+00
 YYY      0.3140870469989E+00
 YYZ     -0.6582765920255E-01
 YZZ      0.7360898707595E-02
 ZXX      0.5280035248930E-01
 ZXY      0.2101926263935E+00
 ZXZ     -0.6754797174140E+00
 ZYY     -0.1476655637792E+00
 ZYZ      0.2249913642927E+00
 ZZZ      0.3492744215613E-01

 dipole-quadrupole (traceless):
 XXX     -0.3386854110545E+03
 XXY      0.6721169724384E+02
 XXZ     -0.1325500301382E+02
 XYY      0.1736426473475E+03
 XYZ      0.6534443290022E+01
 XZZ      0.1650427637070E+03
 YXX     -0.8249577420385E+02
 YXY     -0.2800947827130E+03
 YXZ      0.8401128100810E+02
 YYY      0.1279412471283E+03
 YYZ     -0.2366444372587E+02
 YZZ     -0.4544547292442E+02
 ZXX     -0.8381625918265E+00
 ZXY      0.8592598706224E+02
 ZXZ     -0.3813199001016E+03
 ZYY     -0.3307773850025E+02
 ZYZ      0.1245126335399E+03
 ZZZ      0.3391590109207E+02

 roa end


 Electric Dipole Response Matrix (nonzero elements):

              1        2        3      
    1   10.6562   0.6887   0.4023
    2    0.6887  12.0792  -3.4536
    3    0.4023  -3.4536  16.2002
 
 Imaginary part:

              1        2        3      
    1    0.0228   0.0023  -0.0018
    2    0.0023   0.0310  -0.0137
    3   -0.0018  -0.0137   0.0426

 ------------------------------------------
 average:        12.97852 + I       0.03214


 DFT Linear Response polarizability / au 
 Frequency  =       0.0885580 / au
 Wavelength =     514.5029585 / nm
              X              Y              Z
 -----------------------------------------------
 X      10.6562167      0.6886861      0.4022917
 Y       0.6886861     12.0791757     -3.4535768
 Z       0.4022917     -3.4535768     16.2001808
 -----------------------------------------------
 Eigenvalues =      11.2288383      9.5454939     18.1612410
 Isotropic   =      12.9785244
 Anisotropic =       6.4581461
 -----------------------------------------------
 *************************

 DFT Linear Response IMAG polarizability / au 
 Frequency  =       0.0885580 / au
 Wavelength =     514.5029585 / nm
              X              Y              Z
 -----------------------------------------------
 X       0.0228343      0.0023389     -0.0018347
 Y       0.0023389      0.0309728     -0.0136654
 Z      -0.0018347     -0.0136654      0.0426227
 -----------------------------------------------
 Eigenvalues =       0.0232370      0.0212664      0.0519264
 Isotropic   =       0.0321433
 Anisotropic =       0.0242694
 -----------------------------------------------
 *************************

 Magnetic Dipole Response Matrix (nonzero elements):
 Optical rotation tensor Beta
 (Buckingham-Dunn version including dipole-quadrupole terms)

              1        2        3      
    1    0.1671   0.2665  -1.7661
    2    0.2665   1.3166  -0.0571
    3   -1.7661  -0.0571  -1.4093
 
 Imaginary part:

              1        2        3      
    1    0.0116  -0.0003  -0.6405
    2   -0.3963  -1.0850  -1.4915
    3    0.7026   2.6678   1.1040

 ------------------------------------------
 average:         0.02482 + I       0.01018

 Principal components and PAS (Real part)
                 -2.55755
                  1.57060
                  1.06142
 ------------------------
 average:         0.02482

              1        2        3      
    1    0.5455   0.5987   0.5865
    2   -0.0252   0.7111  -0.7026
    3    0.8377  -0.3685  -0.4030

 Chiral response tensor (Real part):

              1        2        3      
    1   -0.0463  -0.1332   0.8831
    2   -0.1332  -0.6211   0.0286
    3    0.8831   0.0286   0.7419
 
 Principal components and PAS (Real part)
                  1.31601
                 -0.74807
                 -0.49348
 ------------------------
 average:         0.02482

              1        2        3      
    1    0.5455   0.5987   0.5865
    2   -0.0252   0.7111  -0.7026
    3    0.8377  -0.3685  -0.4030
 Exiting AOResponse driver routine

 Task  times  cpu:      331.8s     wall:      333.4s
 
 
                                NWChem Input Module
                                -------------------
 
 
 Summary of allocated global arrays
-----------------------------------
  No active global arrays



                         GA Statistics for process    0
                         ------------------------------

       create   destroy   get      put      acc     scatter   gather  read&inc
calls: 2444     2444     6.44e+06 5.32e+06 4.77e+05 1938        0     1953     
number of processes/call 1.00e+00 1.00e+00 1.00e+00 0.00e+00 0.00e+00
bytes total:             1.17e+09 1.67e+08 1.11e+09 5.92e+02 0.00e+00 1.56e+04
bytes remote:            0.00e+00 0.00e+00 0.00e+00 0.00e+00 0.00e+00 0.00e+00
Max memory consumed for GA by this process: 11498464 bytes
 
MA_summarize_allocated_blocks: starting scan ...
MA_summarize_allocated_blocks: scan completed: 0 heap blocks, 0 stack blocks
MA usage statistics:

	allocation statistics:
					      heap	     stack
					      ----	     -----
	current number of blocks	         0	         0
	maximum number of blocks	        24	        52
	current total bytes		         0	         0
	maximum total bytes		  20676928	  42215048
	maximum total K-bytes		     20677	     42216
	maximum total M-bytes		        21	        43
 
 
                                     CITATION
                                     --------
                Please cite the following reference when publishing
                           results obtained with NWChem:
 
                 M. Valiev, E.J. Bylaska, N. Govind, K. Kowalski,
              T.P. Straatsma, H.J.J. van Dam, D. Wang, J. Nieplocha,
                        E. Apra, T.L. Windus, W.A. de Jong
                 "NWChem: a comprehensive and scalable open-source
                  solution for large scale molecular simulations"
                      Comput. Phys. Commun. 181, 1477 (2010)
                           doi:10.1016/j.cpc.2010.04.018
 
                                      AUTHORS
                                      -------
          E. Apra, E. J. Bylaska, W. A. de Jong, N. Govind, K. Kowalski,
       T. P. Straatsma, M. Valiev, H. J. J. van Dam, D. Wang, T. L. Windus,
        J. Hammond, J. Autschbach, K. Bhaskaran-Nair, J. Brabec, K. Lopata,
    S. A. Fischer, S. Krishnamoorthy, M. Jacquelin, W. Ma, M. Klemm, O. Villa,
      Y. Chen, V. Anisimov, F. Aquino, S. Hirata, M. T. Hackler, V. Konjkov,
            D. Mejia-Rodriguez, T. Risthaus, M. Malagoli, A. Marenich,
   A. Otero-de-la-Roza, J. Mullin, P. Nichols, R. Peverati, J. Pittner, Y. Zhao,
        P.-D. Fan, A. Fonari, M. J. Williamson, R. J. Harrison, J. R. Rehr,
      M. Dupuis, D. Silverstein, D. M. A. Smith, J. Nieplocha, V. Tipparaju,
    M. Krishnan, B. E. Van Kuiken, A. Vazquez-Mayagoitia, L. Jensen, M. Swart,
      Q. Wu, T. Van Voorhis, A. A. Auer, M. Nooijen, L. D. Crosby, E. Brown,
      G. Cisneros, G. I. Fann, H. Fruchtl, J. Garza, K. Hirao, R. A. Kendall,
      J. A. Nichols, K. Tsemekhman, K. Wolinski, J. Anchell, D. E. Bernholdt,
      P. Borowski, T. Clark, D. Clerc, H. Dachsel, M. J. O. Deegan, K. Dyall,
    D. Elwood, E. Glendening, M. Gutowski, A. C. Hess, J. Jaffe, B. G. Johnson,
     J. Ju, R. Kobayashi, R. Kutteh, Z. Lin, R. Littlefield, X. Long, B. Meng,
      T. Nakajima, S. Niu, L. Pollack, M. Rosing, K. Glaesemann, G. Sandrone,
      M. Stave, H. Taylor, G. Thomas, J. H. van Lenthe, A. T. Wong, Z. Zhang.

 Total times  cpu:      365.8s     wall:      368.8s
