 argument  1 = h2o2_514.5_07.inp
 


============================== echo of input deck ==============================
echo
start h2o2_514.5_07.inp
title "h2o2 roa calculations at 514.5 nm, input generated by va with delta_type=2"
charge 0



geometry units angstrom nocenter noautoz noautosym nucleus point;symmetry c1
 O -8.054092  3.047925 -0.529534
 O -8.432303  2.111814  0.566757
 H -8.945154  3.248862 -0.883624
 H -8.147042  2.644237  1.338056
end

basis spherical
* library def2-TZVP
end

 set prop:newaoresp 1
 set aor:roadata T
 set cphf:maxsub 100
 set cphf:acc 1.0d-10
 set cphf:maxiter 100

property
    response 1   0.088558
    bdtensor
    convergence 1e-9
    damping 0.0037
    giao
end

dft
 direct
 mult 1
 xc becke88 lyp
 iterations 250
 tolerances tight
 grid xfine
 convergence nolevelshifting
 convergence energy 1e-8
 convergence gradient 1e-8


end

task dft gradient
task dft property
================================================================================


                                         
                                         
 
 
              Northwest Computational Chemistry Package (NWChem) 6.8
              ------------------------------------------------------
 
 
                    Environmental Molecular Sciences Laboratory
                       Pacific Northwest National Laboratory
                                Richland, WA 99352
 
                              Copyright (c) 1994-2017
                       Pacific Northwest National Laboratory
                            Battelle Memorial Institute
 
             NWChem is an open-source computational chemistry package
                        distributed under the terms of the
                      Educational Community License (ECL) 2.0
             A copy of the license is included with this distribution
                              in the LICENSE.TXT file
 
                                  ACKNOWLEDGMENT
                                  --------------

            This software and its documentation were developed at the
            EMSL at Pacific Northwest National Laboratory, a multiprogram
            national laboratory, operated for the U.S. Department of Energy
            by Battelle under Contract Number DE-AC05-76RL01830. Support
            for this work was provided by the Department of Energy Office
            of Biological and Environmental Research, Office of Basic
            Energy Sciences, and the Office of Advanced Scientific Computing.


           Job information
           ---------------

    hostname        = cpn-f11-18-01.cbls.ccr.buffalo.edu
    program         = /util/academic/nwchem/nwchem-6.8/bin/LINUX64/nwchem
    date            = Thu Feb 28 18:48:56 2019

    compiled        = Tue_Nov_06_14:59:08_2018
    source          = /util/academic/nwchem/nwchem-6.8
    nwchem branch   = 6.8
    nwchem revision = v6.8-47-gdf6c956
    ga revision     = ga-5.6.3
    use scalapack   = F
    input           = h2o2_514.5_07.inp
    prefix          = h2o2_514.5_07.inp.
    data base       = ./h2o2_514.5_07.inp.db
    status          = startup
    nproc           =        1
    time left       =     -1s



           Memory information
           ------------------

    heap     =   13107200 doubles =    100.0 Mbytes
    stack    =   13107197 doubles =    100.0 Mbytes
    global   =   26214400 doubles =    200.0 Mbytes (distinct from heap & stack)
    total    =   52428797 doubles =    400.0 Mbytes
    verify   = yes
    hardfail = no 


           Directory information
           ---------------------
 
  0 permanent = .
  0 scratch   = .
 
 
 
 
                                NWChem Input Module
                                -------------------
 
 
                         h2o2 roa calculations at 514.5 nm, input generated by va with delta_type=2
                         ---------------------------------

 Scaling coordinates for geometry "geometry" by  1.889725989
 (inverse scale =  0.529177249)

 
 
                             Geometry "geometry" -> ""
                             -------------------------
 
 Output coordinates in angstroms (scale by  1.889725989 to convert to a.u.)
 
  No.       Tag          Charge          X              Y              Z
 ---- ---------------- ---------- -------------- -------------- --------------
    1 O                    8.0000    -8.05409200     3.04792500    -0.52953400
    2 O                    8.0000    -8.43230300     2.11181400     0.56675700
    3 H                    1.0000    -8.94515400     3.24886200    -0.88362400
    4 H                    1.0000    -8.14704200     2.64423700     1.33805600
 
      Atomic Mass 
      ----------- 
 
      O                 15.994910
      H                  1.007825
 

 Effective nuclear repulsion energy (a.u.)      36.0098283037

            Nuclear Dipole moment (a.u.) 
            ----------------------------
        X                 Y               Z
 ---------------- ---------------- ----------------
  -281.5377196991    89.1402853943     1.4214821242
 
 
            XYZ format geometry
            -------------------
     4
 geometry
 O                    -8.05409200     3.04792500    -0.52953400
 O                    -8.43230300     2.11181400     0.56675700
 H                    -8.94515400     3.24886200    -0.88362400
 H                    -8.14704200     2.64423700     1.33805600
 
 ==============================================================================
                                internuclear distances
 ------------------------------------------------------------------------------
       center one      |      center two      | atomic units |  angstroms
 ------------------------------------------------------------------------------
    3 H                |   1 O                |     1.85130  |     0.97967
    4 H                |   2 O                |     1.85130  |     0.97967
 ------------------------------------------------------------------------------
                         number of included internuclear distances:          2
 ==============================================================================



  warning:::::::::::::: from_environment
  NWCHEM_BASIS_LIBRARY set to: <
 /util/academic/nwchem/nwchem-6.8/src/basis/libraries>
  but file does not exist !
  using .nwchemrc or compiled library


 Summary of "ao basis" -> "" (spherical)
 ------------------------------------------------------------------------------
       Tag                 Description            Shells   Functions and Types
 ---------------- ------------------------------  ------  ---------------------
 *                         def2-TZVP                  on all atoms 


 
                                 NWChem DFT Module
                                 -----------------
 
 
                         h2o2 roa calculations at 514.5 nm, input generated by va with delta_type=2
 
 
                      Basis "ao basis" -> "ao basis" (spherical)
                      -----
  O (Oxygen)
  ----------
            Exponent  Coefficients 
       -------------- ---------------------------------------------------------
  1 S  2.70323826E+04  0.000217
  1 S  4.05238714E+03  0.001684
  1 S  9.22327227E+02  0.008740
  1 S  2.61240710E+02  0.035240
  1 S  8.53546414E+01  0.111535
  1 S  3.10350352E+01  0.255890
 
  2 S  1.22608607E+01  0.397687
  2 S  4.99870760E+00  0.246278
 
  3 S  1.17031082E+00  1.000000
 
  4 S  4.64747410E-01  1.000000
 
  5 S  1.85045364E-01  1.000000
 
  6 P  6.32749548E+01  0.006069
  6 P  1.46270494E+01  0.041913
  6 P  4.45012235E+00  0.161538
  6 P  1.52757996E+00  0.357070
 
  7 P  5.29351179E-01  1.000000
 
  8 P  1.74784213E-01  1.000000
 
  9 D  2.31400000E+00  1.000000
 
 10 D  6.45000000E-01  1.000000
 
 11 F  1.42800000E+00  1.000000
 
  H (Hydrogen)
  ------------
            Exponent  Coefficients 
       -------------- ---------------------------------------------------------
  1 S  3.40613410E+01  0.006025
  1 S  5.12357460E+00  0.045021
  1 S  1.16466260E+00  0.201897
 
  2 S  3.27230410E-01  1.000000
 
  3 S  1.03072410E-01  1.000000
 
  4 P  8.00000000E-01  1.000000
 


 Summary of "ao basis" -> "ao basis" (spherical)
 ------------------------------------------------------------------------------
       Tag                 Description            Shells   Functions and Types
 ---------------- ------------------------------  ------  ---------------------
 O                         def2-TZVP                11       31   5s3p2d1f
 H                         def2-TZVP                 4        6   3s1p




 Summary of "ao basis" -> "ao basis" (spherical)
 ------------------------------------------------------------------------------
       Tag                 Description            Shells   Functions and Types
 ---------------- ------------------------------  ------  ---------------------
 O                         def2-TZVP                11       31   5s3p2d1f
 H                         def2-TZVP                 4        6   3s1p


  Caching 1-el integrals 
  itol2e modified to match energy
  convergence criterion.
  tol_rho modified to match energy
  convergence criterion.
 
            General Information
            -------------------
          SCF calculation type: DFT
          Wavefunction type:  closed shell.
          No. of atoms     :     4
          No. of electrons :    18
           Alpha electrons :     9
            Beta electrons :     9
          Charge           :     0
          Spin multiplicity:     1
          Use of symmetry is: off; symmetry adaption is: off
          Maximum number of iterations: 250
          This is a Direct SCF calculation.
          AO basis - number of functions:    74
                     number of shells:    30
          Convergence on energy requested:  1.00D-08
          Convergence on density requested:  1.00D-05
          Convergence on gradient requested:  1.00D-08
 
              XC Information
              --------------
                    Becke 1988 Exchange Functional  1.000          
              Lee-Yang-Parr Correlation Functional  1.000          
 
             Grid Information
             ----------------
          Grid used for XC integration:  xfine     
          Radial quadrature: Mura-Knowles        
          Angular quadrature: Lebedev. 
          Tag              B.-S. Rad. Rad. Pts. Rad. Cut. Ang. Pts.
          ---              ---------- --------- --------- ---------
          O                   0.60      100           8.0      1454
          H                   0.35      100           9.0      1202
          Grid pruning is: on 
          Number of quadrature shells:   400
          Spatial weights used:  Erf1
 
          Convergence Information
          -----------------------
          Convergence aids based upon iterative change in 
          total energy or number of iterations. 
          Levelshifting, if invoked, occurs when the 
          HOMO/LUMO gap drops below (HL_TOL):  1.00D-02
          DIIS, if invoked, will attempt to extrapolate 
          using up to (NFOCK): 10 stored Fock matrices.

                    Damping( 0%)  Levelshifting(0.0)       DIIS
                  --------------- ------------------- ---------------
          dE  on:    start             N/A                start   
          dE off:    2 iters           N/A              250 iters 

 
      Screening Tolerance Information
      -------------------------------
          Density screening/tol_rho:  1.00D-11
          AO Gaussian exp screening on grid/accAOfunc:  18
          CD Gaussian exp screening on grid/accCDfunc:  20
          XC Gaussian exp screening on grid/accXCfunc:  20
          Schwarz screening/accCoul:  1.00D-09

 
      Superposition of Atomic Density Guess
      -------------------------------------
 
 Sum of atomic energies:        -150.56823290
 
      Non-variational initial energy
      ------------------------------

 Total energy =    -150.656381
 1-e energy   =    -278.583649
 2-e energy   =      91.917440
 HOMO         =      -0.361743
 LUMO         =      -0.044774
 
   Time after variat. SCF:      1.3
   Time prior to 1st pass:      1.3

 Grid_pts file          = ./h2o2_514.5_07.inp.gridpts.0
 Record size in doubles =  12289        No. of grid_pts per rec  =   3070
 Max. records in memory =    210        Max. recs in file   =   3881815


           Memory utilization after 1st SCF pass: 
           Heap Space remaining (MW):       10.52            10522928
          Stack Space remaining (MW):       13.11            13106668

   convergence    iter        energy       DeltaE   RMS-Dens  Diis-err    time
 ---------------- ----- ----------------- --------- --------- ---------  ------
 d= 0,ls=0.0,diis     1   -151.5596043383 -1.88D+02  7.41D-03  6.81D-01     5.1
 d= 0,ls=0.0,diis     2   -151.5947569566 -3.52D-02  2.72D-03  6.25D-02     8.8
 d= 0,ls=0.0,diis     3   -151.5995144693 -4.76D-03  1.07D-03  1.82D-02    12.3
 d= 0,ls=0.0,diis     4   -151.6007982452 -1.28D-03  3.70D-04  4.05D-03    15.7
 d= 0,ls=0.0,diis     5   -151.6011387997 -3.41D-04  5.09D-05  6.46D-05    19.4
 d= 0,ls=0.0,diis     6   -151.6011453022 -6.50D-06  5.24D-06  7.22D-07    22.9
 d= 0,ls=0.0,diis     7   -151.6011453666 -6.44D-08  1.19D-06  1.29D-08    26.3
 d= 0,ls=0.0,diis     8   -151.6011453676 -1.02D-09  4.14D-07  1.93D-09    29.9


         Total DFT energy =     -151.601145367610
      One electron energy =     -279.878779595037
           Coulomb energy =      110.079505883270
    Exchange-Corr. energy =      -17.811699959500
 Nuclear repulsion energy =       36.009828303657

 Numeric. integr. density =       17.999999999962

     Total iterative time =     28.6s


 
                       DFT Final Molecular Orbital Analysis
                       ------------------------------------
 
 Vector    1  Occ=2.000000D+00  E=-1.883205D+01
              MO Center= -8.2D+00,  2.8D+00, -1.8D-01, r^2= 5.0D-01
   Bfn.  Coefficient  Atom+Function         Bfn.  Coefficient  Atom+Function  
  ----- ------------  ---------------      ----- ------------  ---------------
     2      0.528155  1 O  s                  1      0.360059  1 O  s          
    33     -0.359057  2 O  s                 32     -0.244824  2 O  s          
     3      0.031509  1 O  s          
 
 Vector    2  Occ=2.000000D+00  E=-1.883202D+01
              MO Center= -8.3D+00,  2.4D+00,  2.2D-01, r^2= 5.0D-01
   Bfn.  Coefficient  Atom+Function         Bfn.  Coefficient  Atom+Function  
  ----- ------------  ---------------      ----- ------------  ---------------
    33      0.528292  2 O  s                  2      0.359259  1 O  s          
    32      0.360042  2 O  s                  1      0.244798  1 O  s          
    34      0.029949  2 O  s          
 
 Vector    3  Occ=2.000000D+00  E=-1.008267D+00
              MO Center= -8.3D+00,  2.6D+00,  5.4D-02, r^2= 8.1D-01
   Bfn.  Coefficient  Atom+Function         Bfn.  Coefficient  Atom+Function  
  ----- ------------  ---------------      ----- ------------  ---------------
     4      0.312564  1 O  s                 35      0.312556  2 O  s          
     3      0.239257  1 O  s                 34      0.239250  2 O  s          
     2     -0.163017  1 O  s                 33     -0.163013  2 O  s          
     5      0.096846  1 O  s                 36      0.096843  2 O  s          
    38      0.072148  2 O  py                 1     -0.070039  1 O  s          
 
 Vector    4  Occ=2.000000D+00  E=-8.190212D-01
              MO Center= -8.3D+00,  2.7D+00,  7.4D-02, r^2= 1.3D+00
   Bfn.  Coefficient  Atom+Function         Bfn.  Coefficient  Atom+Function  
  ----- ------------  ---------------      ----- ------------  ---------------
     4      0.326968  1 O  s                 35     -0.326975  2 O  s          
     3      0.254132  1 O  s                 34     -0.254137  2 O  s          
     2     -0.167275  1 O  s                 33      0.167278  2 O  s          
     5      0.141188  1 O  s                 36     -0.141191  2 O  s          
    63      0.090839  3 H  s                 69     -0.090839  4 H  s          
 
 Vector    5  Occ=2.000000D+00  E=-4.748523D-01
              MO Center= -8.3D+00,  2.7D+00,  6.1D-02, r^2= 1.3D+00
   Bfn.  Coefficient  Atom+Function         Bfn.  Coefficient  Atom+Function  
  ----- ------------  ---------------      ----- ------------  ---------------
    39      0.309397  2 O  pz                42      0.242014  2 O  pz         
     7      0.211143  1 O  py                 8     -0.195230  1 O  pz         
    10      0.169674  1 O  py                11     -0.154385  1 O  pz         
    64      0.131222  3 H  s                 70      0.131217  4 H  s          
     6     -0.122541  1 O  px                45      0.109987  2 O  pz         
 
 Vector    6  Occ=2.000000D+00  E=-4.317471D-01
              MO Center= -8.3D+00,  2.6D+00,  3.7D-02, r^2= 1.3D+00
   Bfn.  Coefficient  Atom+Function         Bfn.  Coefficient  Atom+Function  
  ----- ------------  ---------------      ----- ------------  ---------------
     6      0.255594  1 O  px                 9      0.190636  1 O  px         
    37      0.175227  2 O  px                39      0.155847  2 O  pz         
     5      0.154423  1 O  s                 36     -0.154418  2 O  s          
     4      0.153143  1 O  s                 35     -0.153140  2 O  s          
    38      0.153662  2 O  py                40      0.135728  2 O  px         
 
 Vector    7  Occ=2.000000D+00  E=-3.664748D-01
              MO Center= -8.2D+00,  2.5D+00, -2.0D-02, r^2= 1.3D+00
   Bfn.  Coefficient  Atom+Function         Bfn.  Coefficient  Atom+Function  
  ----- ------------  ---------------      ----- ------------  ---------------
    38      0.318236  2 O  py                41      0.248871  2 O  py         
     6     -0.235689  1 O  px                 8      0.218910  1 O  pz         
     9     -0.180395  1 O  px                11      0.176873  1 O  pz         
    44      0.164821  2 O  py                 5     -0.131867  1 O  s          
    36     -0.131874  2 O  s                 14      0.120865  1 O  pz         
 
 Vector    8  Occ=2.000000D+00  E=-2.731389D-01
              MO Center= -8.3D+00,  2.6D+00,  5.3D-02, r^2= 1.3D+00
   Bfn.  Coefficient  Atom+Function         Bfn.  Coefficient  Atom+Function  
  ----- ------------  ---------------      ----- ------------  ---------------
    37      0.344748  2 O  px                 7     -0.267313  1 O  py         
    40      0.268522  2 O  px                43      0.216420  2 O  px         
    10     -0.214276  1 O  py                13     -0.171610  1 O  py         
     8     -0.161598  1 O  pz                 6     -0.152971  1 O  px         
    11     -0.121077  1 O  pz                 5     -0.119850  1 O  s          
 
 Vector    9  Occ=2.000000D+00  E=-2.325857D-01
              MO Center= -8.2D+00,  2.6D+00,  6.6D-03, r^2= 1.2D+00
   Bfn.  Coefficient  Atom+Function         Bfn.  Coefficient  Atom+Function  
  ----- ------------  ---------------      ----- ------------  ---------------
    37      0.284052  2 O  px                 7      0.274606  1 O  py         
    40      0.224141  2 O  px                10      0.214254  1 O  py         
    38     -0.213903  2 O  py                 8      0.205041  1 O  pz         
    43      0.205953  2 O  px                13      0.188368  1 O  py         
    41     -0.163358  2 O  py                11      0.161640  1 O  pz         
 
 Vector   10  Occ=0.000000D+00  E=-5.997905D-02
              MO Center= -8.3D+00,  2.6D+00,  5.1D-02, r^2= 1.8D+00
   Bfn.  Coefficient  Atom+Function         Bfn.  Coefficient  Atom+Function  
  ----- ------------  ---------------      ----- ------------  ---------------
     5      0.500529  1 O  s                 36     -0.500527  2 O  s          
    44     -0.326667  2 O  py                14      0.298999  1 O  pz         
    65     -0.295072  3 H  s                 71      0.295071  4 H  s          
    13     -0.283141  1 O  py                45      0.274241  2 O  pz         
     8      0.262421  1 O  pz                38     -0.257333  2 O  py         
 
 Vector   11  Occ=0.000000D+00  E=-4.267493D-03
              MO Center= -8.6D+00,  3.1D+00,  2.9D-01, r^2= 4.3D+00
   Bfn.  Coefficient  Atom+Function         Bfn.  Coefficient  Atom+Function  
  ----- ------------  ---------------      ----- ------------  ---------------
    65      0.997333  3 H  s                 71      0.997312  4 H  s          
     5     -0.644282  1 O  s                 36     -0.644277  2 O  s          
    12      0.261597  1 O  px                45     -0.238223  2 O  pz         
    44     -0.149816  2 O  py                39     -0.130744  2 O  pz         
     6      0.126645  1 O  px                 3     -0.122351  1 O  s          
 
 Vector   12  Occ=0.000000D+00  E= 3.971824D-02
              MO Center= -8.6D+00,  3.0D+00,  2.7D-01, r^2= 4.3D+00
   Bfn.  Coefficient  Atom+Function         Bfn.  Coefficient  Atom+Function  
  ----- ------------  ---------------      ----- ------------  ---------------
    65      1.188829  3 H  s                 71     -1.188849  4 H  s          
    45      0.449943  2 O  pz                 5     -0.416743  1 O  s          
    36      0.416755  2 O  s                 14      0.304359  1 O  pz         
    12      0.256196  1 O  px                39      0.240134  2 O  pz         
    13     -0.218179  1 O  py                 8      0.170870  1 O  pz         
 
 Vector   13  Occ=0.000000D+00  E= 3.382803D-01
              MO Center= -8.4D+00,  2.8D+00,  1.4D-01, r^2= 3.7D+00
   Bfn.  Coefficient  Atom+Function         Bfn.  Coefficient  Atom+Function  
  ----- ------------  ---------------      ----- ------------  ---------------
    64      1.172025  3 H  s                 70      1.171920  4 H  s          
    65     -0.670460  3 H  s                 71     -0.670401  4 H  s          
    45     -0.587941  2 O  pz                14      0.529566  1 O  pz         
     9      0.365898  1 O  px                41     -0.337697  2 O  py         
     4     -0.322739  1 O  s                 35     -0.322727  2 O  s          
 
 Vector   14  Occ=0.000000D+00  E= 3.433666D-01
              MO Center= -8.3D+00,  2.7D+00,  9.2D-02, r^2= 3.6D+00
   Bfn.  Coefficient  Atom+Function         Bfn.  Coefficient  Atom+Function  
  ----- ------------  ---------------      ----- ------------  ---------------
    64      1.520707  3 H  s                 70     -1.520766  4 H  s          
    65     -0.847187  3 H  s                 71      0.847220  4 H  s          
    12      0.657338  1 O  px                 5     -0.642659  1 O  s          
    36      0.642664  2 O  s                 44      0.585916  2 O  py         
     4     -0.351159  1 O  s                 35      0.351174  2 O  s          
 
 Vector   15  Occ=0.000000D+00  E= 3.516155D-01
              MO Center= -8.3D+00,  2.6D+00,  4.5D-02, r^2= 3.8D+00
   Bfn.  Coefficient  Atom+Function         Bfn.  Coefficient  Atom+Function  
  ----- ------------  ---------------      ----- ------------  ---------------
    13      0.943911  1 O  py                44      0.883717  2 O  py         
     5     -0.793711  1 O  s                 36      0.793722  2 O  s          
    45     -0.752830  2 O  pz                14     -0.718519  1 O  pz         
    43      0.624439  2 O  px                12      0.574738  1 O  px         
     9     -0.334420  1 O  px                41     -0.313399  2 O  py         
 
 Vector   16  Occ=0.000000D+00  E= 3.726504D-01
              MO Center= -8.0D+00,  2.3D+00, -1.4D-01, r^2= 2.6D+00
   Bfn.  Coefficient  Atom+Function         Bfn.  Coefficient  Atom+Function  
  ----- ------------  ---------------      ----- ------------  ---------------
    44      0.606425  2 O  py                12     -0.541266  1 O  px         
     4      0.485627  1 O  s                 35      0.485626  2 O  s          
    13      0.426400  1 O  py                 5     -0.360061  1 O  s          
    36     -0.360063  2 O  s                 64     -0.335862  3 H  s          
    70     -0.335836  4 H  s                 43     -0.311900  2 O  px         
 
 Vector   17  Occ=0.000000D+00  E= 4.133147D-01
              MO Center= -8.3D+00,  2.6D+00,  3.7D-02, r^2= 3.0D+00
   Bfn.  Coefficient  Atom+Function         Bfn.  Coefficient  Atom+Function  
  ----- ------------  ---------------      ----- ------------  ---------------
    45     -0.890531  2 O  pz                14      0.872262  1 O  pz         
    12      0.751401  1 O  px                43     -0.724816  2 O  px         
    11     -0.374110  1 O  pz                 4     -0.366074  1 O  s          
    35     -0.366075  2 O  s                 42      0.364962  2 O  pz         
    40      0.270540  2 O  px                 9     -0.257270  1 O  px         
 
 Vector   18  Occ=0.000000D+00  E= 4.413555D-01
              MO Center= -8.2D+00,  2.6D+00,  1.8D-02, r^2= 3.5D+00
   Bfn.  Coefficient  Atom+Function         Bfn.  Coefficient  Atom+Function  
  ----- ------------  ---------------      ----- ------------  ---------------
    44      1.243686  2 O  py                14     -1.043914  1 O  pz         
     5     -0.903901  1 O  s                 36      0.903877  2 O  s          
    12      0.792926  1 O  px                43     -0.638275  2 O  px         
    13     -0.488861  1 O  py                64      0.437678  3 H  s          
    70     -0.437690  4 H  s                 40      0.362692  2 O  px         
 
 Vector   19  Occ=0.000000D+00  E= 4.652494D-01
              MO Center= -8.3D+00,  2.7D+00,  8.8D-02, r^2= 4.0D+00
   Bfn.  Coefficient  Atom+Function         Bfn.  Coefficient  Atom+Function  
  ----- ------------  ---------------      ----- ------------  ---------------
     5      0.981760  1 O  s                 36      0.981743  2 O  s          
    65     -0.808025  3 H  s                 71     -0.808003  4 H  s          
    13      0.775522  1 O  py                43     -0.690631  2 O  px         
    64      0.657252  3 H  s                 70      0.657253  4 H  s          
     4     -0.619774  1 O  s                 35     -0.619770  2 O  s          
 
 Vector   20  Occ=0.000000D+00  E= 5.203621D-01
              MO Center= -8.4D+00,  2.7D+00,  9.3D-02, r^2= 4.0D+00
   Bfn.  Coefficient  Atom+Function         Bfn.  Coefficient  Atom+Function  
  ----- ------------  ---------------      ----- ------------  ---------------
    45      1.524579  2 O  pz                65      1.345455  3 H  s          
    71     -1.345454  4 H  s                  5     -1.067370  1 O  s          
    12      1.063241  1 O  px                36      1.067349  2 O  s          
    14      0.914242  1 O  pz                13     -0.717873  1 O  py         
     4      0.553737  1 O  s                 35     -0.553725  2 O  s          
 
 Vector   21  Occ=0.000000D+00  E= 5.899137D-01
              MO Center= -8.4D+00,  2.8D+00,  1.4D-01, r^2= 3.0D+00
   Bfn.  Coefficient  Atom+Function         Bfn.  Coefficient  Atom+Function  
  ----- ------------  ---------------      ----- ------------  ---------------
     5      2.504671  1 O  s                 36      2.504626  2 O  s          
     4     -1.453547  1 O  s                 35     -1.453536  2 O  s          
    12     -1.380667  1 O  px                64     -1.060453  3 H  s          
    70     -1.060446  4 H  s                 44      0.923371  2 O  py         
    45      0.866936  2 O  pz                65     -0.838386  3 H  s          
 
 Vector   22  Occ=0.000000D+00  E= 6.686389D-01
              MO Center= -8.2D+00,  2.5D+00, -4.2D-02, r^2= 3.0D+00
   Bfn.  Coefficient  Atom+Function         Bfn.  Coefficient  Atom+Function  
  ----- ------------  ---------------      ----- ------------  ---------------
     5      5.562896  1 O  s                 36     -5.562923  2 O  s          
     4     -1.819866  1 O  s                 35      1.819887  2 O  s          
    14      1.738094  1 O  pz                44     -1.708716  2 O  py         
    45      1.648859  2 O  pz                13     -1.551859  1 O  py         
    64     -0.882299  3 H  s                 70      0.882308  4 H  s          
 
 Vector   23  Occ=0.000000D+00  E= 1.015188D+00
              MO Center= -8.4D+00,  2.7D+00,  9.5D-02, r^2= 1.5D+00
   Bfn.  Coefficient  Atom+Function         Bfn.  Coefficient  Atom+Function  
  ----- ------------  ---------------      ----- ------------  ---------------
    22      0.324606  1 O  d  0              68     -0.315191  3 H  pz         
    64     -0.295670  3 H  s                 70      0.295668  4 H  s          
    53     -0.286583  2 O  d  0              74     -0.259011  4 H  pz         
    23     -0.249277  1 O  d  1              54      0.246454  2 O  d  1       
    73      0.223997  4 H  py                51      0.219888  2 O  d -2       
 
 Vector   24  Occ=0.000000D+00  E= 1.077504D+00
              MO Center= -8.3D+00,  2.7D+00,  6.7D-02, r^2= 1.5D+00
   Bfn.  Coefficient  Atom+Function         Bfn.  Coefficient  Atom+Function  
  ----- ------------  ---------------      ----- ------------  ---------------
    54      0.348268  2 O  d  1              67      0.340294  3 H  py         
    20     -0.308434  1 O  d -2              72     -0.280883  4 H  px         
    22     -0.272683  1 O  d  0              52      0.227492  2 O  d -1       
    64     -0.217644  3 H  s                 70     -0.217638  4 H  s          
    24     -0.197820  1 O  d  2              74      0.192144  4 H  pz         
 
 Vector   25  Occ=0.000000D+00  E= 1.179380D+00
              MO Center= -8.3D+00,  2.6D+00,  5.4D-02, r^2= 1.5D+00
   Bfn.  Coefficient  Atom+Function         Bfn.  Coefficient  Atom+Function  
  ----- ------------  ---------------      ----- ------------  ---------------
    55     -0.436558  2 O  d  2              23      0.432364  1 O  d  1       
     5     -0.357889  1 O  s                 36     -0.357901  2 O  s          
    64      0.246157  3 H  s                 70      0.246159  4 H  s          
    68      0.242349  3 H  pz                44     -0.233450  2 O  py         
    12      0.224873  1 O  px                24      0.225960  1 O  d  2       
 
 Vector   26  Occ=0.000000D+00  E= 1.228183D+00
              MO Center= -8.4D+00,  2.7D+00,  1.1D-01, r^2= 1.7D+00
   Bfn.  Coefficient  Atom+Function         Bfn.  Coefficient  Atom+Function  
  ----- ------------  ---------------      ----- ------------  ---------------
     5      0.574871  1 O  s                 36     -0.574864  2 O  s          
    72      0.413572  4 H  px                20     -0.379215  1 O  d -2       
    67      0.358292  3 H  py                51      0.261387  2 O  d -2       
    43     -0.247624  2 O  px                68      0.240070  3 H  pz         
    55      0.229265  2 O  d  2              13     -0.227599  1 O  py         
 
 Vector   27  Occ=0.000000D+00  E= 1.521294D+00
              MO Center= -8.4D+00,  2.8D+00,  1.3D-01, r^2= 2.5D+00
   Bfn.  Coefficient  Atom+Function         Bfn.  Coefficient  Atom+Function  
  ----- ------------  ---------------      ----- ------------  ---------------
    64      2.036452  3 H  s                 70      2.035904  4 H  s          
    45     -0.696346  2 O  pz                12      0.657918  1 O  px         
    52     -0.640731  2 O  d -1               4     -0.625275  1 O  s          
    35     -0.625195  2 O  s                 24     -0.514592  1 O  d  2       
     5     -0.503374  1 O  s                 36     -0.503055  2 O  s          
 
 Vector   28  Occ=0.000000D+00  E= 1.532090D+00
              MO Center= -8.4D+00,  2.7D+00,  1.2D-01, r^2= 2.5D+00
   Bfn.  Coefficient  Atom+Function         Bfn.  Coefficient  Atom+Function  
  ----- ------------  ---------------      ----- ------------  ---------------
    64      2.132810  3 H  s                 70     -2.133301  4 H  s          
     5     -1.296392  1 O  s                 36      1.296508  2 O  s          
    12      0.738519  1 O  px                44      0.638493  2 O  py         
    24     -0.625680  1 O  d  2              52      0.528720  2 O  d -1       
    65     -0.419715  3 H  s                 71      0.419809  4 H  s          
 
 Vector   29  Occ=0.000000D+00  E= 1.609619D+00
              MO Center= -8.4D+00,  2.7D+00,  9.9D-02, r^2= 1.7D+00
   Bfn.  Coefficient  Atom+Function         Bfn.  Coefficient  Atom+Function  
  ----- ------------  ---------------      ----- ------------  ---------------
    73      0.405436  4 H  py                51      0.401602  2 O  d -2       
    21     -0.366727  1 O  d -1              68      0.367580  3 H  pz         
    54      0.334074  2 O  d  1              12     -0.279330  1 O  px         
    22     -0.276718  1 O  d  0              43      0.258718  2 O  px         
    74     -0.258522  4 H  pz                45      0.256114  2 O  pz         
 
 Vector   30  Occ=0.000000D+00  E= 1.649253D+00
              MO Center= -8.3D+00,  2.6D+00,  5.6D-02, r^2= 1.6D+00
   Bfn.  Coefficient  Atom+Function         Bfn.  Coefficient  Atom+Function  
  ----- ------------  ---------------      ----- ------------  ---------------
    64      0.679976  3 H  s                 70      0.679985  4 H  s          
    21      0.561439  1 O  d -1               5     -0.464415  1 O  s          
    36     -0.464387  2 O  s                 53     -0.459936  2 O  d  0       
    55      0.390428  2 O  d  2              44     -0.369846  2 O  py         
    24     -0.348120  1 O  d  2              12      0.313363  1 O  px         
 
 Vector   31  Occ=0.000000D+00  E= 1.734388D+00
              MO Center= -8.4D+00,  2.7D+00,  9.5D-02, r^2= 1.8D+00
   Bfn.  Coefficient  Atom+Function         Bfn.  Coefficient  Atom+Function  
  ----- ------------  ---------------      ----- ------------  ---------------
     5      1.132744  1 O  s                 36     -1.132749  2 O  s          
    13     -0.611257  1 O  py                45      0.548989  2 O  pz         
    22     -0.492665  1 O  d  0              51     -0.461302  2 O  d -2       
    73      0.413022  4 H  py                14      0.397200  1 O  pz         
    43     -0.362854  2 O  px                54     -0.355052  2 O  d  1       
 
 Vector   32  Occ=0.000000D+00  E= 1.848046D+00
              MO Center= -8.3D+00,  2.7D+00,  7.2D-02, r^2= 2.3D+00
   Bfn.  Coefficient  Atom+Function         Bfn.  Coefficient  Atom+Function  
  ----- ------------  ---------------      ----- ------------  ---------------
     5      2.262606  1 O  s                 36     -2.262604  2 O  s          
     4     -1.167058  1 O  s                 35      1.167050  2 O  s          
    44     -1.004511  2 O  py                14      0.897889  1 O  pz         
    64      0.783534  3 H  s                 70     -0.783529  4 H  s          
     9      0.606348  1 O  px                45      0.605925  2 O  pz         
 
 Vector   33  Occ=0.000000D+00  E= 1.954745D+00
              MO Center= -8.4D+00,  2.8D+00,  1.5D-01, r^2= 1.9D+00
   Bfn.  Coefficient  Atom+Function         Bfn.  Coefficient  Atom+Function  
  ----- ------------  ---------------      ----- ------------  ---------------
    72      0.730890  4 H  px                64     -0.603087  3 H  s          
    70     -0.603078  4 H  s                 67     -0.538576  3 H  py         
    68     -0.492563  3 H  pz                20     -0.472284  1 O  d -2       
    54      0.380770  2 O  d  1              55     -0.328058  2 O  d  2       
     4      0.311261  1 O  s                 35      0.311253  2 O  s          
 
 Vector   34  Occ=0.000000D+00  E= 2.023609D+00
              MO Center= -8.3D+00,  2.7D+00,  6.2D-02, r^2= 1.9D+00
   Bfn.  Coefficient  Atom+Function         Bfn.  Coefficient  Atom+Function  
  ----- ------------  ---------------      ----- ------------  ---------------
     5      1.096000  1 O  s                 36     -1.096002  2 O  s          
    20      0.608920  1 O  d -2              67      0.606845  3 H  py         
    72      0.567286  4 H  px                64     -0.539964  3 H  s          
    70      0.539954  4 H  s                 13     -0.511387  1 O  py         
    54      0.474001  2 O  d  1              44     -0.448932  2 O  py         
 
 Vector   35  Occ=0.000000D+00  E= 2.069707D+00
              MO Center= -8.3D+00,  2.7D+00,  7.3D-02, r^2= 1.8D+00
   Bfn.  Coefficient  Atom+Function         Bfn.  Coefficient  Atom+Function  
  ----- ------------  ---------------      ----- ------------  ---------------
    64      0.706742  3 H  s                 70     -0.706712  4 H  s          
    68      0.569104  3 H  pz                55     -0.534585  2 O  d  2       
    23     -0.516948  1 O  d  1              24     -0.489151  1 O  d  2       
    74      0.490325  4 H  pz                53     -0.484608  2 O  d  0       
     4     -0.442350  1 O  s                 35      0.442324  2 O  s          
 
 Vector   36  Occ=0.000000D+00  E= 2.096254D+00
              MO Center= -8.3D+00,  2.6D+00,  3.9D-02, r^2= 2.1D+00
   Bfn.  Coefficient  Atom+Function         Bfn.  Coefficient  Atom+Function  
  ----- ------------  ---------------      ----- ------------  ---------------
    64      0.884356  3 H  s                 70      0.884362  4 H  s          
     9      0.793874  1 O  px                42     -0.643004  2 O  pz         
     4     -0.621714  1 O  s                 35     -0.621724  2 O  s          
    73     -0.586520  4 H  py                66      0.548051  3 H  px         
    22     -0.472299  1 O  d  0              41     -0.458472  2 O  py         
 
 Vector   37  Occ=0.000000D+00  E= 2.183376D+00
              MO Center= -8.4D+00,  2.8D+00,  1.4D-01, r^2= 2.3D+00
   Bfn.  Coefficient  Atom+Function         Bfn.  Coefficient  Atom+Function  
  ----- ------------  ---------------      ----- ------------  ---------------
    64     -1.481678  3 H  s                 70      1.481640  4 H  s          
     5      1.351670  1 O  s                 36     -1.351668  2 O  s          
     4      0.833068  1 O  s                 35     -0.833044  2 O  s          
    42     -0.809359  2 O  pz                45      0.764942  2 O  pz         
    66     -0.735019  3 H  px                 9     -0.722894  1 O  px         
 
 Vector   38  Occ=0.000000D+00  E= 2.232925D+00
              MO Center= -8.3D+00,  2.7D+00,  9.1D-02, r^2= 2.0D+00
   Bfn.  Coefficient  Atom+Function         Bfn.  Coefficient  Atom+Function  
  ----- ------------  ---------------      ----- ------------  ---------------
    64      1.334147  3 H  s                 70      1.334210  4 H  s          
    42     -0.785164  2 O  pz                 4     -0.766700  1 O  s          
    35     -0.766726  2 O  s                 74     -0.655737  4 H  pz         
    10     -0.624107  1 O  py                 9      0.603460  1 O  px         
    68      0.486492  3 H  pz                13      0.428502  1 O  py         
 
 Vector   39  Occ=0.000000D+00  E= 2.387186D+00
              MO Center= -8.3D+00,  2.6D+00,  3.8D-02, r^2= 1.8D+00
   Bfn.  Coefficient  Atom+Function         Bfn.  Coefficient  Atom+Function  
  ----- ------------  ---------------      ----- ------------  ---------------
    64      1.118923  3 H  s                 70      1.118945  4 H  s          
    11      0.873993  1 O  pz                 4     -0.800866  1 O  s          
    35     -0.800862  2 O  s                 38     -0.648577  2 O  py         
    40     -0.636518  2 O  px                41      0.590645  2 O  py         
    74     -0.585755  4 H  pz                44     -0.566182  2 O  py         
 
 Vector   40  Occ=0.000000D+00  E= 2.400170D+00
              MO Center= -8.3D+00,  2.6D+00,  4.8D-02, r^2= 1.9D+00
   Bfn.  Coefficient  Atom+Function         Bfn.  Coefficient  Atom+Function  
  ----- ------------  ---------------      ----- ------------  ---------------
    64      0.851225  3 H  s                 70     -0.851176  4 H  s          
    45      0.742401  2 O  pz                74      0.673732  4 H  pz         
    66      0.620534  3 H  px                 6      0.586387  1 O  px         
    12      0.572863  1 O  px                 4     -0.560334  1 O  s          
    35      0.560279  2 O  s                 14      0.535017  1 O  pz         
 
 Vector   41  Occ=0.000000D+00  E= 2.430598D+00
              MO Center= -8.3D+00,  2.6D+00,  5.6D-02, r^2= 1.4D+00
   Bfn.  Coefficient  Atom+Function         Bfn.  Coefficient  Atom+Function  
  ----- ------------  ---------------      ----- ------------  ---------------
     4      1.113926  1 O  s                 35      1.113934  2 O  s          
    64     -0.769597  3 H  s                 70     -0.769597  4 H  s          
    41      0.707609  2 O  py                39      0.664969  2 O  pz         
     8     -0.600742  1 O  pz                 3     -0.593323  1 O  s          
    34     -0.593326  2 O  s                 74      0.558843  4 H  pz         
 
 Vector   42  Occ=0.000000D+00  E= 2.566717D+00
              MO Center= -8.5D+00,  2.8D+00,  1.7D-01, r^2= 1.5D+00
   Bfn.  Coefficient  Atom+Function         Bfn.  Coefficient  Atom+Function  
  ----- ------------  ---------------      ----- ------------  ---------------
     5      1.964192  1 O  s                 36     -1.964963  2 O  s          
    64     -1.074214  3 H  s                 70      1.075071  4 H  s          
    40     -1.009672  2 O  px                 4     -0.788709  1 O  s          
    35      0.789057  2 O  s                 10     -0.767254  1 O  py         
     3      0.730634  1 O  s                 34     -0.731089  2 O  s          
 
 Vector   43  Occ=0.000000D+00  E= 2.569328D+00
              MO Center= -8.3D+00,  2.6D+00,  5.8D-02, r^2= 1.8D+00
   Bfn.  Coefficient  Atom+Function         Bfn.  Coefficient  Atom+Function  
  ----- ------------  ---------------      ----- ------------  ---------------
    64     -1.452622  3 H  s                 70     -1.451989  4 H  s          
     5      1.359018  1 O  s                 36      1.357824  2 O  s          
    66     -0.947075  3 H  px                 3      0.832622  1 O  s          
    34      0.832166  2 O  s                  4     -0.680550  1 O  s          
    35     -0.680048  2 O  s                 74      0.682744  4 H  pz         
 
 Vector   44  Occ=0.000000D+00  E= 2.676805D+00
              MO Center= -8.1D+00,  2.4D+00, -1.0D-01, r^2= 1.5D+00
   Bfn.  Coefficient  Atom+Function         Bfn.  Coefficient  Atom+Function  
  ----- ------------  ---------------      ----- ------------  ---------------
     5      2.622904  1 O  s                 36     -2.622852  2 O  s          
     4     -2.098452  1 O  s                 35      2.098364  2 O  s          
     3      1.353387  1 O  s                 34     -1.353333  2 O  s          
    41     -0.964481  2 O  py                 9     -0.720580  1 O  px         
    11      0.655502  1 O  pz                13     -0.586664  1 O  py         
 
 Vector   45  Occ=0.000000D+00  E= 2.718103D+00
              MO Center= -8.3D+00,  2.7D+00,  8.1D-02, r^2= 1.7D+00
   Bfn.  Coefficient  Atom+Function         Bfn.  Coefficient  Atom+Function  
  ----- ------------  ---------------      ----- ------------  ---------------
     4      2.388620  1 O  s                 35      2.388730  2 O  s          
     3     -1.569507  1 O  s                 34     -1.569580  2 O  s          
     5     -1.524950  1 O  s                 36     -1.525093  2 O  s          
    40     -0.703435  2 O  px                 9      0.537037  1 O  px         
    10      0.483657  1 O  py                37      0.443121  2 O  px         
 
 Vector   46  Occ=0.000000D+00  E= 3.567420D+00
              MO Center= -8.4D+00,  2.8D+00,  1.2D-01, r^2= 1.7D+00
   Bfn.  Coefficient  Atom+Function         Bfn.  Coefficient  Atom+Function  
  ----- ------------  ---------------      ----- ------------  ---------------
     4      2.925350  1 O  s                 35     -2.925312  2 O  s          
     9     -1.688691  1 O  px                64     -1.503438  3 H  s          
    70      1.503414  4 H  s                  3     -1.425027  1 O  s          
    34      1.425015  2 O  s                 42     -1.340106  2 O  pz         
    66     -1.167931  3 H  px                41     -1.116863  2 O  py         
 
 Vector   47  Occ=0.000000D+00  E= 3.610271D+00
              MO Center= -8.4D+00,  2.8D+00,  1.2D-01, r^2= 1.6D+00
   Bfn.  Coefficient  Atom+Function         Bfn.  Coefficient  Atom+Function  
  ----- ------------  ---------------      ----- ------------  ---------------
     4      2.532796  1 O  s                 35      2.532817  2 O  s          
     9     -1.709389  1 O  px                42      1.488850  2 O  pz         
    64     -1.313900  3 H  s                 70     -1.313912  4 H  s          
     3     -1.151770  1 O  s                 34     -1.151782  2 O  s          
    66     -1.116673  3 H  px                41      0.970196  2 O  py         
 
 Vector   48  Occ=0.000000D+00  E= 3.848093D+00
              MO Center= -8.3D+00,  2.6D+00,  2.3D-02, r^2= 9.3D-01
   Bfn.  Coefficient  Atom+Function         Bfn.  Coefficient  Atom+Function  
  ----- ------------  ---------------      ----- ------------  ---------------
    42      1.616546  2 O  pz                 4      1.475028  1 O  s          
    35     -1.475048  2 O  s                 11      1.439398  1 O  pz         
    10     -1.154305  1 O  py                 3     -1.106366  1 O  s          
    34      1.106376  2 O  s                 41     -0.842908  2 O  py         
    52      0.790994  2 O  d -1              21     -0.594139  1 O  d -1       
 
 Vector   49  Occ=0.000000D+00  E= 4.662741D+00
              MO Center= -8.2D+00,  2.6D+00,  2.2D-02, r^2= 1.0D+00
   Bfn.  Coefficient  Atom+Function         Bfn.  Coefficient  Atom+Function  
  ----- ------------  ---------------      ----- ------------  ---------------
    26      0.338180  1 O  f -2              30      0.337119  1 O  f  2       
    28      0.329098  1 O  f  0              57      0.299668  2 O  f -2       
    59      0.298975  2 O  f  0              60      0.298220  2 O  f  1       
    61      0.288378  2 O  f  2               9      0.274727  1 O  px         
    56     -0.273818  2 O  f -3              25     -0.269630  1 O  f -3       
 
 Vector   50  Occ=0.000000D+00  E= 4.721378D+00
              MO Center= -8.2D+00,  2.6D+00,  2.3D-02, r^2= 9.6D-01
   Bfn.  Coefficient  Atom+Function         Bfn.  Coefficient  Atom+Function  
  ----- ------------  ---------------      ----- ------------  ---------------
    27      0.477874  1 O  f -1              58     -0.388645  2 O  f -1       
    57      0.355485  2 O  f -2              61     -0.349246  2 O  f  2       
    31      0.278496  1 O  f  3              30      0.266182  1 O  f  2       
     5     -0.239082  1 O  s                 36     -0.239085  2 O  s          
    26     -0.225400  1 O  f -2              62     -0.193294  2 O  f  3       
 
 Vector   51  Occ=0.000000D+00  E= 4.740138D+00
              MO Center= -8.2D+00,  2.6D+00,  2.1D-02, r^2= 1.1D+00
   Bfn.  Coefficient  Atom+Function         Bfn.  Coefficient  Atom+Function  
  ----- ------------  ---------------      ----- ------------  ---------------
     4      0.505769  1 O  s                 35     -0.505773  2 O  s          
    26     -0.494322  1 O  f -2              62      0.437282  2 O  f  3       
     9     -0.410824  1 O  px                59      0.385054  2 O  f  0       
    27     -0.335479  1 O  f -1              28      0.305342  1 O  f  0       
    41     -0.277595  2 O  py                42     -0.268501  2 O  pz         
 
 Vector   52  Occ=0.000000D+00  E= 4.833951D+00
              MO Center= -8.2D+00,  2.6D+00,  1.3D-02, r^2= 1.0D+00
   Bfn.  Coefficient  Atom+Function         Bfn.  Coefficient  Atom+Function  
  ----- ------------  ---------------      ----- ------------  ---------------
    29      0.532215  1 O  f  1              56     -0.460379  2 O  f -3       
    60     -0.418547  2 O  f  1              25      0.287107  1 O  f -3       
    62     -0.222802  2 O  f  3              28     -0.221439  1 O  f  0       
    31      0.209911  1 O  f  3              61      0.149834  2 O  f  2       
    27     -0.129764  1 O  f -1              73      0.109938  4 H  py         
 
 Vector   53  Occ=0.000000D+00  E= 4.953194D+00
              MO Center= -8.3D+00,  2.6D+00,  3.4D-02, r^2= 1.1D+00
   Bfn.  Coefficient  Atom+Function         Bfn.  Coefficient  Atom+Function  
  ----- ------------  ---------------      ----- ------------  ---------------
    31      0.530512  1 O  f  3              56      0.465670  2 O  f -3       
    59      0.390367  2 O  f  0              28     -0.327951  1 O  f  0       
    62     -0.268735  2 O  f  3              27     -0.261773  1 O  f -1       
    42      0.229070  2 O  pz                11      0.219390  1 O  pz         
    73      0.175973  4 H  py                58      0.156754  2 O  f -1       
 
 Vector   54  Occ=0.000000D+00  E= 5.182976D+00
              MO Center= -8.3D+00,  2.6D+00,  3.2D-02, r^2= 1.0D+00
   Bfn.  Coefficient  Atom+Function         Bfn.  Coefficient  Atom+Function  
  ----- ------------  ---------------      ----- ------------  ---------------
    25      0.599103  1 O  f -3              56      0.424889  2 O  f -3       
    62      0.365135  2 O  f  3              30      0.298418  1 O  f  2       
    61      0.268131  2 O  f  2              59     -0.242752  2 O  f  0       
    57      0.216782  2 O  f -2              67     -0.201134  3 H  py         
    29      0.191906  1 O  f  1              72     -0.187982  4 H  px         
 
 Vector   55  Occ=0.000000D+00  E= 5.251217D+00
              MO Center= -8.3D+00,  2.6D+00,  3.8D-02, r^2= 1.1D+00
   Bfn.  Coefficient  Atom+Function         Bfn.  Coefficient  Atom+Function  
  ----- ------------  ---------------      ----- ------------  ---------------
    56     -0.403114  2 O  f -3              61     -0.396344  2 O  f  2       
    30      0.393513  1 O  f  2              25      0.390655  1 O  f -3       
    29     -0.356375  1 O  f  1              60      0.322589  2 O  f  1       
    57     -0.251481  2 O  f -2              27     -0.221849  1 O  f -1       
    72      0.210664  4 H  px                68     -0.195526  3 H  pz         
 
 Vector   56  Occ=0.000000D+00  E= 5.258462D+00
              MO Center= -8.3D+00,  2.6D+00,  2.4D-02, r^2= 1.0D+00
   Bfn.  Coefficient  Atom+Function         Bfn.  Coefficient  Atom+Function  
  ----- ------------  ---------------      ----- ------------  ---------------
    60      0.577840  2 O  f  1              29      0.567723  1 O  f  1       
    30     -0.277924  1 O  f  2              61     -0.253853  2 O  f  2       
    27      0.235522  1 O  f -1              58      0.233558  2 O  f -1       
    62      0.219649  2 O  f  3              26     -0.200247  1 O  f -2       
    68      0.176577  3 H  pz                72      0.163266  4 H  px         
 
 Vector   57  Occ=0.000000D+00  E= 5.284592D+00
              MO Center= -8.3D+00,  2.6D+00,  3.8D-02, r^2= 9.7D-01
   Bfn.  Coefficient  Atom+Function         Bfn.  Coefficient  Atom+Function  
  ----- ------------  ---------------      ----- ------------  ---------------
    62      0.550447  2 O  f  3              31      0.428461  1 O  f  3       
    28     -0.400907  1 O  f  0              25     -0.315634  1 O  f -3       
    59     -0.288453  2 O  f  0               9     -0.239585  1 O  px         
    58     -0.234944  2 O  f -1              74      0.215361  4 H  pz         
    29     -0.179814  1 O  f  1              42      0.173265  2 O  pz         
 
 Vector   58  Occ=0.000000D+00  E= 5.571432D+00
              MO Center= -8.2D+00,  2.6D+00,  1.3D-02, r^2= 9.6D-01
   Bfn.  Coefficient  Atom+Function         Bfn.  Coefficient  Atom+Function  
  ----- ------------  ---------------      ----- ------------  ---------------
    59      0.574180  2 O  f  0               4      0.538750  1 O  s          
    35      0.538780  2 O  s                 26      0.513955  1 O  f -2       
     9     -0.469620  1 O  px                42      0.420644  2 O  pz         
    64     -0.383008  3 H  s                 70     -0.383031  4 H  s          
    27      0.378416  1 O  f -1              66     -0.337803  3 H  px         
 
 Vector   59  Occ=0.000000D+00  E= 5.591243D+00
              MO Center= -8.2D+00,  2.6D+00,  2.3D-02, r^2= 8.9D-01
   Bfn.  Coefficient  Atom+Function         Bfn.  Coefficient  Atom+Function  
  ----- ------------  ---------------      ----- ------------  ---------------
    42      0.433299  2 O  pz                28     -0.402345  1 O  f  0       
    57      0.398971  2 O  f -2               9      0.386780  1 O  px         
    59      0.338481  2 O  f  0               4     -0.321732  1 O  s          
    35      0.321683  2 O  s                 19     -0.286645  1 O  d  2       
    26     -0.278541  1 O  f -2              49     -0.270789  2 O  d  1       
 
 Vector   60  Occ=0.000000D+00  E= 5.850075D+00
              MO Center= -8.3D+00,  2.6D+00,  5.3D-02, r^2= 1.0D+00
   Bfn.  Coefficient  Atom+Function         Bfn.  Coefficient  Atom+Function  
  ----- ------------  ---------------      ----- ------------  ---------------
     4      0.672897  1 O  s                 35     -0.672897  2 O  s          
    42     -0.671634  2 O  pz                 9     -0.643696  1 O  px         
    47     -0.540059  2 O  d -1              66     -0.493643  3 H  px         
    63     -0.468276  3 H  s                 69      0.468277  4 H  s          
    74     -0.452221  4 H  pz                64     -0.372519  3 H  s          
 
 Vector   61  Occ=0.000000D+00  E= 5.952337D+00
              MO Center= -8.3D+00,  2.7D+00,  7.1D-02, r^2= 1.0D+00
   Bfn.  Coefficient  Atom+Function         Bfn.  Coefficient  Atom+Function  
  ----- ------------  ---------------      ----- ------------  ---------------
     4      0.980033  1 O  s                 35      0.980026  2 O  s          
     9     -0.742307  1 O  px                42      0.649665  2 O  pz         
    66     -0.549992  3 H  px                74      0.510363  4 H  pz         
    63     -0.496040  3 H  s                 69     -0.496036  4 H  s          
    64     -0.463545  3 H  s                 70     -0.463544  4 H  s          
 
 Vector   62  Occ=0.000000D+00  E= 6.098981D+00
              MO Center= -8.2D+00,  2.6D+00,  2.2D-02, r^2= 8.9D-01
   Bfn.  Coefficient  Atom+Function         Bfn.  Coefficient  Atom+Function  
  ----- ------------  ---------------      ----- ------------  ---------------
     5      1.257153  1 O  s                 36     -1.257150  2 O  s          
     4     -0.960316  1 O  s                 35      0.960312  2 O  s          
    16      0.696639  1 O  d -1              48      0.572774  2 O  d  0       
     3      0.430713  1 O  s                 34     -0.430713  2 O  s          
    44     -0.431830  2 O  py                14      0.394258  1 O  pz         
 
 Vector   63  Occ=0.000000D+00  E= 6.118713D+00
              MO Center= -8.2D+00,  2.6D+00,  1.9D-02, r^2= 8.9D-01
   Bfn.  Coefficient  Atom+Function         Bfn.  Coefficient  Atom+Function  
  ----- ------------  ---------------      ----- ------------  ---------------
    50      0.633921  2 O  d  2              18     -0.508431  1 O  d  1       
    19     -0.489810  1 O  d  2              17     -0.350130  1 O  d  0       
    55     -0.319261  2 O  d  2              23      0.290009  1 O  d  1       
    48      0.286105  2 O  d  0              49      0.285414  2 O  d  1       
    46      0.283030  2 O  d -2              24      0.212689  1 O  d  2       
 
 Vector   64  Occ=0.000000D+00  E= 6.164260D+00
              MO Center= -8.2D+00,  2.6D+00,  4.5D-03, r^2= 9.0D-01
   Bfn.  Coefficient  Atom+Function         Bfn.  Coefficient  Atom+Function  
  ----- ------------  ---------------      ----- ------------  ---------------
    15      0.654403  1 O  d -2              49     -0.546900  2 O  d  1       
    54      0.378396  2 O  d  1              20     -0.368400  1 O  d -2       
    47     -0.353356  2 O  d -1              17      0.332963  1 O  d  0       
    46      0.290487  2 O  d -2              64      0.271473  3 H  s          
    70      0.271477  4 H  s                  4     -0.263481  1 O  s          
 
 Vector   65  Occ=0.000000D+00  E= 6.191464D+00
              MO Center= -8.2D+00,  2.6D+00,  1.5D-02, r^2= 9.0D-01
   Bfn.  Coefficient  Atom+Function         Bfn.  Coefficient  Atom+Function  
  ----- ------------  ---------------      ----- ------------  ---------------
    46      0.605306  2 O  d -2              17      0.563785  1 O  d  0       
     5      0.470686  1 O  s                 36     -0.470684  2 O  s          
    15     -0.429046  1 O  d -2              49      0.387079  2 O  d  1       
    51     -0.352051  2 O  d -2              48     -0.330572  2 O  d  0       
    18     -0.308060  1 O  d  1              22     -0.305193  1 O  d  0       
 
 Vector   66  Occ=0.000000D+00  E= 6.255298D+00
              MO Center= -8.2D+00,  2.6D+00,  1.9D-02, r^2= 9.4D-01
   Bfn.  Coefficient  Atom+Function         Bfn.  Coefficient  Atom+Function  
  ----- ------------  ---------------      ----- ------------  ---------------
    15      0.602391  1 O  d -2              18     -0.516271  1 O  d  1       
    50     -0.464635  2 O  d  2              49      0.439939  2 O  d  1       
    20     -0.433982  1 O  d -2              46     -0.428126  2 O  d -2       
    55      0.330132  2 O  d  2              23      0.291375  1 O  d  1       
     4      0.289343  1 O  s                 35     -0.289329  2 O  s          
 
 Vector   67  Occ=0.000000D+00  E= 6.517558D+00
              MO Center= -8.3D+00,  2.6D+00,  2.4D-02, r^2= 1.0D+00
   Bfn.  Coefficient  Atom+Function         Bfn.  Coefficient  Atom+Function  
  ----- ------------  ---------------      ----- ------------  ---------------
    64      0.805564  3 H  s                 70      0.805542  4 H  s          
     9      0.645907  1 O  px                16     -0.642624  1 O  d -1       
    42     -0.645325  2 O  pz                46      0.593602  2 O  d -2       
    51     -0.533876  2 O  d -2              24     -0.475765  1 O  d  2       
    74     -0.437433  4 H  pz                21      0.434916  1 O  d -1       
 
 Vector   68  Occ=0.000000D+00  E= 6.610617D+00
              MO Center= -8.2D+00,  2.6D+00,  2.0D-02, r^2= 1.1D+00
   Bfn.  Coefficient  Atom+Function         Bfn.  Coefficient  Atom+Function  
  ----- ------------  ---------------      ----- ------------  ---------------
    64     -0.897178  3 H  s                 70      0.897186  4 H  s          
    24      0.880709  1 O  d  2               4      0.815767  1 O  s          
    35     -0.815759  2 O  s                  9     -0.808493  1 O  px         
    19     -0.729824  1 O  d  2               5      0.609599  1 O  s          
    36     -0.609608  2 O  s                 54      0.596824  2 O  d  1       
 
 Vector   69  Occ=0.000000D+00  E= 6.755061D+00
              MO Center= -8.2D+00,  2.6D+00,  1.5D-02, r^2= 1.0D+00
   Bfn.  Coefficient  Atom+Function         Bfn.  Coefficient  Atom+Function  
  ----- ------------  ---------------      ----- ------------  ---------------
    17      0.604370  1 O  d  0              22     -0.577273  1 O  d  0       
    48      0.574493  2 O  d  0              53     -0.525674  2 O  d  0       
    47     -0.499861  2 O  d -1              16     -0.403003  1 O  d -1       
    52      0.390583  2 O  d -1              51      0.356517  2 O  d -2       
    46     -0.293840  2 O  d -2              19     -0.276123  1 O  d  2       
 
 Vector   70  Occ=0.000000D+00  E= 6.822241D+00
              MO Center= -8.2D+00,  2.6D+00,  2.0D-02, r^2= 1.2D+00
   Bfn.  Coefficient  Atom+Function         Bfn.  Coefficient  Atom+Function  
  ----- ------------  ---------------      ----- ------------  ---------------
     4      1.089330  1 O  s                 35     -1.089317  2 O  s          
    64     -0.922560  3 H  s                 70      0.922556  4 H  s          
     9     -0.823317  1 O  px                42     -0.733015  2 O  pz         
    23     -0.722867  1 O  d  1              52     -0.666176  2 O  d -1       
    66     -0.664615  3 H  px                53     -0.633119  2 O  d  0       
 
 Vector   71  Occ=0.000000D+00  E= 7.023207D+00
              MO Center= -8.2D+00,  2.6D+00,  2.1D-02, r^2= 1.1D+00
   Bfn.  Coefficient  Atom+Function         Bfn.  Coefficient  Atom+Function  
  ----- ------------  ---------------      ----- ------------  ---------------
     4      1.299978  1 O  s                 35      1.299983  2 O  s          
    64     -0.865502  3 H  s                 70     -0.865499  4 H  s          
     9     -0.843700  1 O  px                52      0.778840  2 O  d -1       
    42      0.691797  2 O  pz                63     -0.681125  3 H  s          
    69     -0.681120  4 H  s                 23     -0.659604  1 O  d  1       
 
 Vector   72  Occ=0.000000D+00  E= 7.716440D+00
              MO Center= -8.2D+00,  2.6D+00,  1.8D-02, r^2= 1.1D+00
   Bfn.  Coefficient  Atom+Function         Bfn.  Coefficient  Atom+Function  
  ----- ------------  ---------------      ----- ------------  ---------------
    42      1.626010  2 O  pz                 4      1.605391  1 O  s          
    35     -1.605384  2 O  s                 11      1.535380  1 O  pz         
    52      1.387013  2 O  d -1              10     -1.289340  1 O  py         
    21     -1.235080  1 O  d -1              41     -1.130036  2 O  py         
     3     -1.087671  1 O  s                 34      1.087669  2 O  s          
 
 Vector   73  Occ=0.000000D+00  E= 4.266724D+01
              MO Center= -8.2D+00,  2.6D+00,  2.0D-02, r^2= 6.6D-01
   Bfn.  Coefficient  Atom+Function         Bfn.  Coefficient  Atom+Function  
  ----- ------------  ---------------      ----- ------------  ---------------
     2      1.195354  1 O  s                 33      1.195328  2 O  s          
     4      1.089616  1 O  s                 35      1.089585  2 O  s          
     3     -1.059363  1 O  s                 34     -1.059337  2 O  s          
     1     -0.982247  1 O  s                 32     -0.982227  2 O  s          
     5     -0.469424  1 O  s                 36     -0.469410  2 O  s          
 
 Vector   74  Occ=0.000000D+00  E= 4.314330D+01
              MO Center= -8.2D+00,  2.6D+00,  1.9D-02, r^2= 6.6D-01
   Bfn.  Coefficient  Atom+Function         Bfn.  Coefficient  Atom+Function  
  ----- ------------  ---------------      ----- ------------  ---------------
     4      1.433609  1 O  s                 35     -1.433631  2 O  s          
     3     -1.255224  1 O  s                 34      1.255246  2 O  s          
     2      1.216143  1 O  s                 33     -1.216168  2 O  s          
     1     -0.985459  1 O  s                 32      0.985480  2 O  s          
     5     -0.670444  1 O  s                 36      0.670453  2 O  s          
 

 center of mass
 --------------
 x = -15.61131308 y =   4.91631906 z =   0.05853688

 moments of inertia (a.u.)
 ------------------
          70.096042498631          -8.490948675710           9.078643662182
          -8.490948675710          49.353782249193          31.208407803943
           9.078643662182          31.208407803943          32.447777105415
 
     Multipole analysis of the density
     ---------------------------------
 
     L   x y z        total         alpha         beta         nuclear
     -   - - -        -----         -----         ----         -------
     0   0 0 0     -0.000000     -9.000000     -9.000000     18.000000
 
     1   1 0 0     -0.412140    140.562790    140.562790   -281.537720
     1   0 1 0      0.498879    -44.320703    -44.320703     89.140285
     1   0 0 1      0.283848     -0.568817     -0.568817      1.421482
 
     2   2 0 0      4.109608  -2201.590289  -2201.590289   4407.290186
     2   1 1 0    -10.625710    690.062772    690.062772  -1390.751253
     2   1 0 1     -2.879188     11.255995     11.255995    -25.391179
     2   0 2 0     -4.588831   -230.028213   -230.028213    455.467595
     2   0 1 1      1.358069      5.445319      5.445319     -9.532569
     2   0 0 2     -6.422850    -16.396050    -16.396050     26.369250
 
 
            General Information
            -------------------
          SCF calculation type: DFT
          Wavefunction type:  closed shell.
          No. of atoms     :     4
          No. of electrons :    18
           Alpha electrons :     9
            Beta electrons :     9
          Charge           :     0
          Spin multiplicity:     1
          Use of symmetry is: off; symmetry adaption is: off
          Maximum number of iterations: 250
          This is a Direct SCF calculation.
          AO basis - number of functions:    74
                     number of shells:    30
          Convergence on energy requested:  1.00D-08
          Convergence on density requested:  1.00D-05
          Convergence on gradient requested:  1.00D-08
 
              XC Information
              --------------
                    Becke 1988 Exchange Functional  1.000          
              Lee-Yang-Parr Correlation Functional  1.000          
 
             Grid Information
             ----------------
          Grid used for XC integration:  xfine     
          Radial quadrature: Mura-Knowles        
          Angular quadrature: Lebedev. 
          Tag              B.-S. Rad. Rad. Pts. Rad. Cut. Ang. Pts.
          ---              ---------- --------- --------- ---------
          O                   0.60      100           8.0      1454
          H                   0.35      100           9.0      1202
          Grid pruning is: on 
          Number of quadrature shells:   400
          Spatial weights used:  Erf1
 
          Convergence Information
          -----------------------
          Convergence aids based upon iterative change in 
          total energy or number of iterations. 
          Levelshifting, if invoked, occurs when the 
          HOMO/LUMO gap drops below (HL_TOL):  1.00D-02
          DIIS, if invoked, will attempt to extrapolate 
          using up to (NFOCK): 10 stored Fock matrices.

                    Damping( 0%)  Levelshifting(0.0)       DIIS
                  --------------- ------------------- ---------------
          dE  on:    start             N/A                start   
          dE off:    2 iters           N/A              250 iters 

 
      Screening Tolerance Information
      -------------------------------
          Density screening/tol_rho:  1.00D-11
          AO Gaussian exp screening on grid/accAOfunc:  18
          CD Gaussian exp screening on grid/accCDfunc:  20
          XC Gaussian exp screening on grid/accXCfunc:  20
          Schwarz screening/accCoul:  1.00D-09

 
 
                            NWChem DFT Gradient Module
                            --------------------------
 
 
                         h2o2 roa calculations at 514.5 nm, input generated by va with delta_type=2
 
 

  charge          =   0.00
  wavefunction    = closed shell



                         DFT ENERGY GRADIENTS

    atom               coordinates                        gradient
                 x          y          z           x          y          z
   1 O     -15.220027   5.759743  -1.000674    0.000195  -0.000233  -0.000001
   2 O     -15.934742   3.990750   1.071015    0.000129  -0.000161  -0.000225
   3 H     -16.903890   6.139459  -1.669807   -0.000224   0.000187   0.000040
   4 H     -15.395677   4.996883   2.528559   -0.000101   0.000207   0.000186
 
                 ----------------------------------------
                 |  Time  |  1-e(secs)   |  2-e(secs)   |
                 ----------------------------------------
                 |  CPU   |       0.01   |       2.25   |
                 ----------------------------------------
                 |  WALL  |       0.01   |       2.26   |
                 ----------------------------------------

 Task  times  cpu:       35.0s     wall:       36.6s
 
 
                                NWChem Input Module
                                -------------------
 
 
                              NWChem Property Module
                              ----------------------
 
 
                         h2o2 roa calculations at 514.5 nm, input generated by va with delta_type=2
 
 
                                 NWChem DFT Module
                                 -----------------
 
 
                         h2o2 roa calculations at 514.5 nm, input generated by va with delta_type=2
 
 


 Summary of "ao basis" -> "ao basis" (spherical)
 ------------------------------------------------------------------------------
       Tag                 Description            Shells   Functions and Types
 ---------------- ------------------------------  ------  ---------------------
 O                         def2-TZVP                11       31   5s3p2d1f
 H                         def2-TZVP                 4        6   3s1p


  Caching 1-el integrals 
 
            General Information
            -------------------
          SCF calculation type: DFT
          Wavefunction type:  closed shell.
          No. of atoms     :     4
          No. of electrons :    18
           Alpha electrons :     9
            Beta electrons :     9
          Charge           :     0
          Spin multiplicity:     1
          Use of symmetry is: off; symmetry adaption is: off
          Maximum number of iterations: 250
          This is a Direct SCF calculation.
          AO basis - number of functions:    74
                     number of shells:    30
          Convergence on energy requested:  1.00D-08
          Convergence on density requested:  1.00D-05
          Convergence on gradient requested:  1.00D-08
 
              XC Information
              --------------
                    Becke 1988 Exchange Functional  1.000          
              Lee-Yang-Parr Correlation Functional  1.000          
 
             Grid Information
             ----------------
          Grid used for XC integration:  xfine     
          Radial quadrature: Mura-Knowles        
          Angular quadrature: Lebedev. 
          Tag              B.-S. Rad. Rad. Pts. Rad. Cut. Ang. Pts.
          ---              ---------- --------- --------- ---------
          O                   0.60      100           8.0      1454
          H                   0.35      100           9.0      1202
          Grid pruning is: on 
          Number of quadrature shells:   400
          Spatial weights used:  Erf1
 
          Convergence Information
          -----------------------
          Convergence aids based upon iterative change in 
          total energy or number of iterations. 
          Levelshifting, if invoked, occurs when the 
          HOMO/LUMO gap drops below (HL_TOL):  1.00D-02
          DIIS, if invoked, will attempt to extrapolate 
          using up to (NFOCK): 10 stored Fock matrices.

                    Damping( 0%)  Levelshifting(0.0)       DIIS
                  --------------- ------------------- ---------------
          dE  on:    start             N/A                start   
          dE off:    2 iters           N/A              250 iters 

 
      Screening Tolerance Information
      -------------------------------
          Density screening/tol_rho:  1.00D-11
          AO Gaussian exp screening on grid/accAOfunc:  18
          CD Gaussian exp screening on grid/accCDfunc:  20
          XC Gaussian exp screening on grid/accXCfunc:  20
          Schwarz screening/accCoul:  1.00D-09


 Loading old vectors from job with title :

h2o2 roa calculations at 514.5 nm, input generated by va with delta_type=2

   Time after variat. SCF:     37.3
   Time prior to 1st pass:     37.3

 Grid_pts file          = ./h2o2_514.5_07.inp.gridpts.0
 Record size in doubles =  12289        No. of grid_pts per rec  =   3070
 Max. records in memory =    210        Max. recs in file   =   3881480


           Memory utilization after 1st SCF pass: 
           Heap Space remaining (MW):       10.52            10522928
          Stack Space remaining (MW):       13.11            13106668

   convergence    iter        energy       DeltaE   RMS-Dens  Diis-err    time
 ---------------- ----- ----------------- --------- --------- ---------  ------
 d= 0,ls=0.0,diis     1   -151.6011453676 -1.88D+02  8.62D-07  2.35D-09    40.9
 d= 0,ls=0.0,diis     2   -151.6011453658  1.76D-09  6.52D-07  2.26D-08    44.3
 d= 0,ls=0.0,diis     3   -151.6011453678 -1.97D-09  1.97D-08  5.63D-12    47.7


         Total DFT energy =     -151.601145367785
      One electron energy =     -279.878815553722
           Coulomb energy =      110.079545218794
    Exchange-Corr. energy =      -17.811703336514
 Nuclear repulsion energy =       36.009828303657

 Numeric. integr. density =       17.999999999962

     Total iterative time =     10.4s


 
                       DFT Final Molecular Orbital Analysis
                       ------------------------------------
 
 Vector    1  Occ=2.000000D+00  E=-1.883205D+01
              MO Center= -8.2D+00,  2.6D+00,  2.3D-02, r^2= 5.7D-01
   Bfn.  Coefficient  Atom+Function         Bfn.  Coefficient  Atom+Function  
  ----- ------------  ---------------      ----- ------------  ---------------
    33     -0.453569  2 O  s                  2      0.449593  1 O  s          
    32     -0.309233  2 O  s                  1      0.306524  1 O  s          
    34     -0.027368  2 O  s                  3      0.027145  1 O  s          
 
 Vector    2  Occ=2.000000D+00  E=-1.883202D+01
              MO Center= -8.2D+00,  2.6D+00,  1.4D-02, r^2= 5.7D-01
   Bfn.  Coefficient  Atom+Function         Bfn.  Coefficient  Atom+Function  
  ----- ------------  ---------------      ----- ------------  ---------------
     2      0.453740  1 O  s                 33      0.449766  2 O  s          
     1      0.309212  1 O  s                 32      0.306502  2 O  s          
     3      0.025415  1 O  s                 34      0.025175  2 O  s          
 
 Vector    3  Occ=2.000000D+00  E=-1.008268D+00
              MO Center= -8.3D+00,  2.6D+00,  5.4D-02, r^2= 8.1D-01
   Bfn.  Coefficient  Atom+Function         Bfn.  Coefficient  Atom+Function  
  ----- ------------  ---------------      ----- ------------  ---------------
     4      0.312560  1 O  s                 35      0.312560  2 O  s          
     3      0.239253  1 O  s                 34      0.239253  2 O  s          
     2     -0.163015  1 O  s                 33     -0.163015  2 O  s          
     5      0.096845  1 O  s                 36      0.096845  2 O  s          
    38      0.072149  2 O  py                 1     -0.070038  1 O  s          
 
 Vector    4  Occ=2.000000D+00  E=-8.190215D-01
              MO Center= -8.3D+00,  2.7D+00,  7.4D-02, r^2= 1.3D+00
   Bfn.  Coefficient  Atom+Function         Bfn.  Coefficient  Atom+Function  
  ----- ------------  ---------------      ----- ------------  ---------------
     4      0.326971  1 O  s                 35     -0.326972  2 O  s          
     3      0.254134  1 O  s                 34     -0.254135  2 O  s          
     2     -0.167276  1 O  s                 33      0.167277  2 O  s          
     5      0.141189  1 O  s                 36     -0.141189  2 O  s          
    63      0.090839  3 H  s                 69     -0.090839  4 H  s          
 
 Vector    5  Occ=2.000000D+00  E=-4.748528D-01
              MO Center= -8.3D+00,  2.7D+00,  6.1D-02, r^2= 1.3D+00
   Bfn.  Coefficient  Atom+Function         Bfn.  Coefficient  Atom+Function  
  ----- ------------  ---------------      ----- ------------  ---------------
    39      0.309402  2 O  pz                42      0.242018  2 O  pz         
     7      0.211142  1 O  py                 8     -0.195227  1 O  pz         
    10      0.169673  1 O  py                11     -0.154383  1 O  pz         
    64      0.131220  3 H  s                 70      0.131219  4 H  s          
     6     -0.122536  1 O  px                45      0.109988  2 O  pz         
 
 Vector    6  Occ=2.000000D+00  E=-4.317474D-01
              MO Center= -8.3D+00,  2.6D+00,  3.7D-02, r^2= 1.3D+00
   Bfn.  Coefficient  Atom+Function         Bfn.  Coefficient  Atom+Function  
  ----- ------------  ---------------      ----- ------------  ---------------
     6      0.255590  1 O  px                 9      0.190633  1 O  px         
    37      0.175230  2 O  px                39      0.155842  2 O  pz         
     5      0.154420  1 O  s                 36     -0.154421  2 O  s          
     4      0.153142  1 O  s                 35     -0.153142  2 O  s          
    38      0.153669  2 O  py                40      0.135731  2 O  px         
 
 Vector    7  Occ=2.000000D+00  E=-3.664750D-01
              MO Center= -8.2D+00,  2.5D+00, -2.0D-02, r^2= 1.3D+00
   Bfn.  Coefficient  Atom+Function         Bfn.  Coefficient  Atom+Function  
  ----- ------------  ---------------      ----- ------------  ---------------
    38      0.318237  2 O  py                41      0.248872  2 O  py         
     6     -0.235690  1 O  px                 8      0.218905  1 O  pz         
     9     -0.180397  1 O  px                11      0.176869  1 O  pz         
    44      0.164821  2 O  py                 5     -0.131871  1 O  s          
    36     -0.131870  2 O  s                 14      0.120862  1 O  pz         
 
 Vector    8  Occ=2.000000D+00  E=-2.731391D-01
              MO Center= -8.3D+00,  2.6D+00,  5.3D-02, r^2= 1.3D+00
   Bfn.  Coefficient  Atom+Function         Bfn.  Coefficient  Atom+Function  
  ----- ------------  ---------------      ----- ------------  ---------------
    37      0.344758  2 O  px                 7     -0.267302  1 O  py         
    40      0.268530  2 O  px                43      0.216426  2 O  px         
    10     -0.214268  1 O  py                13     -0.171604  1 O  py         
     8     -0.161591  1 O  pz                 6     -0.152977  1 O  px         
    11     -0.121072  1 O  pz                 5     -0.119855  1 O  s          
 
 Vector    9  Occ=2.000000D+00  E=-2.325860D-01
              MO Center= -8.2D+00,  2.6D+00,  6.5D-03, r^2= 1.2D+00
   Bfn.  Coefficient  Atom+Function         Bfn.  Coefficient  Atom+Function  
  ----- ------------  ---------------      ----- ------------  ---------------
    37      0.284039  2 O  px                 7      0.274617  1 O  py         
    40      0.224131  2 O  px                10      0.214263  1 O  py         
    38     -0.213901  2 O  py                 8      0.205048  1 O  pz         
    43      0.205943  2 O  px                13      0.188376  1 O  py         
    41     -0.163356  2 O  py                11      0.161645  1 O  pz         
 
 Vector   10  Occ=0.000000D+00  E=-5.997938D-02
              MO Center= -8.3D+00,  2.6D+00,  5.1D-02, r^2= 1.8D+00
   Bfn.  Coefficient  Atom+Function         Bfn.  Coefficient  Atom+Function  
  ----- ------------  ---------------      ----- ------------  ---------------
     5      0.500528  1 O  s                 36     -0.500527  2 O  s          
    44     -0.326666  2 O  py                14      0.299000  1 O  pz         
    65     -0.295071  3 H  s                 71      0.295071  4 H  s          
    13     -0.283142  1 O  py                45      0.274239  2 O  pz         
[...]
    64      0.805552  3 H  s                 70      0.805554  4 H  s          
     9      0.645895  1 O  px                16     -0.642626  1 O  d -1       
    42     -0.645333  2 O  pz                46      0.593601  2 O  d -2       
    51     -0.533878  2 O  d -2              24     -0.475754  1 O  d  2       
    74     -0.437440  4 H  pz                21      0.434915  1 O  d -1       
 
 Vector   68  Occ=0.000000D+00  E= 6.610616D+00
              MO Center= -8.2D+00,  2.6D+00,  2.0D-02, r^2= 1.1D+00
   Bfn.  Coefficient  Atom+Function         Bfn.  Coefficient  Atom+Function  
  ----- ------------  ---------------      ----- ------------  ---------------
    64     -0.897185  3 H  s                 70      0.897179  4 H  s          
    24      0.880714  1 O  d  2               4      0.815768  1 O  s          
    35     -0.815759  2 O  s                  9     -0.808498  1 O  px         
    19     -0.729828  1 O  d  2               5      0.609603  1 O  s          
    36     -0.609603  2 O  s                 54      0.596823  2 O  d  1       
 
 Vector   69  Occ=0.000000D+00  E= 6.755060D+00
              MO Center= -8.2D+00,  2.6D+00,  1.5D-02, r^2= 1.0D+00
   Bfn.  Coefficient  Atom+Function         Bfn.  Coefficient  Atom+Function  
  ----- ------------  ---------------      ----- ------------  ---------------
    17      0.604373  1 O  d  0              22     -0.577275  1 O  d  0       
    48      0.574492  2 O  d  0              53     -0.525675  2 O  d  0       
    47     -0.499859  2 O  d -1              16     -0.403002  1 O  d -1       
    52      0.390582  2 O  d -1              51      0.356514  2 O  d -2       
    46     -0.293837  2 O  d -2              19     -0.276125  1 O  d  2       
 
 Vector   70  Occ=0.000000D+00  E= 6.822240D+00
              MO Center= -8.2D+00,  2.6D+00,  2.0D-02, r^2= 1.2D+00
   Bfn.  Coefficient  Atom+Function         Bfn.  Coefficient  Atom+Function  
  ----- ------------  ---------------      ----- ------------  ---------------
     4      1.089321  1 O  s                 35     -1.089326  2 O  s          
    64     -0.922555  3 H  s                 70      0.922560  4 H  s          
     9     -0.823312  1 O  px                42     -0.733019  2 O  pz         
    23     -0.722863  1 O  d  1              52     -0.666181  2 O  d -1       
    66     -0.664611  3 H  px                53     -0.633120  2 O  d  0       
 
 Vector   71  Occ=0.000000D+00  E= 7.023206D+00
              MO Center= -8.2D+00,  2.6D+00,  2.1D-02, r^2= 1.1D+00
   Bfn.  Coefficient  Atom+Function         Bfn.  Coefficient  Atom+Function  
  ----- ------------  ---------------      ----- ------------  ---------------
     4      1.299991  1 O  s                 35      1.299970  2 O  s          
    64     -0.865510  3 H  s                 70     -0.865491  4 H  s          
     9     -0.843708  1 O  px                52      0.778836  2 O  d -1       
    42      0.691793  2 O  pz                63     -0.681130  3 H  s          
    69     -0.681114  4 H  s                 23     -0.659608  1 O  d  1       
 
 Vector   72  Occ=0.000000D+00  E= 7.716439D+00
              MO Center= -8.2D+00,  2.6D+00,  1.8D-02, r^2= 1.1D+00
   Bfn.  Coefficient  Atom+Function         Bfn.  Coefficient  Atom+Function  
  ----- ------------  ---------------      ----- ------------  ---------------
    42      1.626009  2 O  pz                 4      1.605389  1 O  s          
    35     -1.605385  2 O  s                 11      1.535380  1 O  pz         
    52      1.387011  2 O  d -1              10     -1.289340  1 O  py         
    21     -1.235081  1 O  d -1              41     -1.130036  2 O  py         
     3     -1.087671  1 O  s                 34      1.087669  2 O  s          
 
 Vector   73  Occ=0.000000D+00  E= 4.266724D+01
              MO Center= -8.2D+00,  2.6D+00,  2.0D-02, r^2= 6.6D-01
   Bfn.  Coefficient  Atom+Function         Bfn.  Coefficient  Atom+Function  
  ----- ------------  ---------------      ----- ------------  ---------------
     2      1.195341  1 O  s                 33      1.195341  2 O  s          
     4      1.089601  1 O  s                 35      1.089600  2 O  s          
     3     -1.059350  1 O  s                 34     -1.059350  2 O  s          
     1     -0.982237  1 O  s                 32     -0.982237  2 O  s          
     5     -0.469417  1 O  s                 36     -0.469417  2 O  s          
 
 Vector   74  Occ=0.000000D+00  E= 4.314330D+01
              MO Center= -8.2D+00,  2.6D+00,  1.9D-02, r^2= 6.6D-01
   Bfn.  Coefficient  Atom+Function         Bfn.  Coefficient  Atom+Function  
  ----- ------------  ---------------      ----- ------------  ---------------
     4      1.433621  1 O  s                 35     -1.433620  2 O  s          
     3     -1.255235  1 O  s                 34      1.255235  2 O  s          
     2      1.216155  1 O  s                 33     -1.216155  2 O  s          
     1     -0.985469  1 O  s                 32      0.985470  2 O  s          
     5     -0.670449  1 O  s                 36      0.670448  2 O  s          
 

 center of mass
 --------------
 x = -15.61131308 y =   4.91631906 z =   0.05853688

 moments of inertia (a.u.)
 ------------------
          70.096042498631          -8.490948675710           9.078643662182
          -8.490948675710          49.353782249193          31.208407803943
           9.078643662182          31.208407803943          32.447777105415
 
     Multipole analysis of the density
     ---------------------------------
 
     L   x y z        total         alpha         beta         nuclear
     -   - - -        -----         -----         ----         -------
     0   0 0 0     -0.000000     -9.000000     -9.000000     18.000000
 
     1   1 0 0     -0.412127    140.562796    140.562796   -281.537720
     1   0 1 0      0.498904    -44.320691    -44.320691     89.140285
     1   0 0 1      0.283827     -0.568827     -0.568827      1.421482
 
     2   2 0 0      4.109190  -2201.590498  -2201.590498   4407.290186
     2   1 1 0    -10.626022    690.062615    690.062615  -1390.751253
     2   1 0 1     -2.878871     11.256154     11.256154    -25.391179
     2   0 2 0     -4.588591   -230.028093   -230.028093    455.467595
     2   0 1 1      1.357971      5.445270      5.445270     -9.532569
     2   0 0 2     -6.422840    -16.396045    -16.396045     26.369250
 
 *** CALLING NEW AORESP DRIVER FOR CLOSED AND OPEN SHELLS ***
 Entering AOResponse driver routine


--------------------------------------------------------------------------------

          ****************
          *** RESPONSE ***
          ****************

 Response module for NWChem and dynamic CPKS solver
 developed by J. Autschbach and coworkers, SUNY Buffalo
 The methodology used in this program is described in 
 ChemPhysChem 12 (2011), 3224-3235 (main reference)
 J. Chem. Phys. 123 (2005), 114103
 J. Chem. Phys. 122 (2005), 224115
 J. Chem. Phys. 122 (2005), 074105
 Comp. Lett. 3 (2007), 131-150 (contact JA for a copy)
 Please cite this work in publications based on results
 obtained with this code. Thank you!

 For extension of response module to open shell
 calculations please acknowledge:
 F. Aquino, Northwestern University, Schatz Rsrch Group
 The update to the methodology is described in
 J. Phys. Chem. A 118 (2014) 517-525



          -----------------------------------------------
          Solving response equations for perturbing field
          -----------------------------------------------

 number of frequencies:     1
 frequency in a.u.:  0.8855800E-01
 Perturbing field: electric
 Using GIAO formalism for OptRot
 Adding quadrupole terms to OptRot
 to create an origin in dependent tensor.
 Using El. Dipole Length Gauge
 
 Applying DAMPING constant of  0.003700 a.u.
 
 Setting up CPKS
 with frequency omega =      0.08855800 a.u.
 and a damping of            0.00370000 a.u.

 
                            NWChem Dynamic CPHF Module
                            --------------------------
 
 
    scftype = RHF 
    nclosed =    9
      nopen =    0
  variables =     2340
  num. vecs =        3
  tolerance =   1.0D-09
  max. iter =  100

 SCF residual:   1.101914330598573E-006


Iterative solution of linear equations
  No. of variables     1170
  No. of equations        3
  Maximum subspace       99
       Convergence  1.0D-09
        Start time     51.3


   iter   nsub   residual    time 
   ----  ------  --------  --------- 
 dft_CPHF2_read: failed to open./h2o2_514.5_07.inp.aoresp_fiao_f1
     1      3    5.02D+00      78.9
     2      6    2.12D+00     106.8
     3      9    1.60D-01     134.8
     4     12    8.11D-03     162.6
     5     15    2.06D-03     190.4
     6     18    3.07D-04     218.2
     7     21    2.85D-05     245.9
     8     24    8.60D-07     273.8
     9     27    5.52D-08     301.6
    10     30    4.67D-09     329.4
    11     33    3.40D-10     357.2

 Calculating some arrays needed for GIAO optical rotation

    0 giaofock schwarz done =      98.67%
    0 giaofock schwarz done =      98.67%
 aor_r1_tensor_giao: roadata output requested
 dip-quad polarizability Re:

              1        2        3        4        5        6      
    1 -336.2581  45.2044  -7.2482   5.5958   3.8038   0.0978
    2  -20.5263-187.5154  54.7608 119.6976 -15.2262   3.6636
    3  -11.2968  55.5189-251.3229 -35.1401  82.1614   8.5961
 traceless dip-quad polarizability:

              1        2        3      
    1 -339.1050  67.8066 -10.8723
    2   67.8066 173.6759   5.7057
    3  -10.8723   5.7057 165.4290

              1        2        3      
    1  -82.2068-281.2731  82.1413
    2 -281.2731 128.1289 -22.8394
    3   82.1413 -22.8394 -45.9221

              1        2        3      
    1    1.9752  83.2783-376.9843
    2   83.2783 -33.7897 123.2421
    3 -376.9843 123.2421  31.8146

 roa begin

 alpha real:
 XX       0.1066679076549E+02
 XY       0.6727147856232E+00
 XZ       0.3008220153859E+00
 YX       0.6727147856787E+00
 YY       0.1212158068494E+02
 YZ      -0.3375964317124E+01
 ZX       0.3008220153921E+00
 ZY      -0.3375964317173E+01
 ZZ       0.1601625862264E+02

 alpha im:
 XX       0.2245048071578E-01
 XY       0.2231620874404E-02
 XZ      -0.1933347699666E-02
 YX       0.2231620990108E-02
 YY       0.3050625011362E-01
 YZ      -0.1332792072336E-01
 ZX      -0.1933347718511E-02
 ZY      -0.1332792055260E-01
 ZZ       0.4170074948233E-01

 beta real:
 XX      -0.4990987176067E-01
 XY      -0.1222948172893E+00
 XZ       0.2924647337069E+01
 YX       0.7766782886599E+00
 YY       0.2173331243467E+01
 YZ       0.8434815166943E+01
 ZX      -0.3176541547026E+01
 ZY      -0.1101223857632E+02
 ZZ      -0.2127328628732E+01

 G-prime = -omega beta(real):
 XX      -0.4990987176067E-01
 XY      -0.1222948172893E+00
 XZ       0.2924647337069E+01
 YX       0.7766782886599E+00
 YY       0.2173331243467E+01
 YZ       0.8434815166943E+01
 ZX      -0.3176541547026E+01
 ZY      -0.1101223857632E+02
 ZZ      -0.2127328628732E+01

 beta im:
 XX      -0.2152457636999E-03
 XY       0.2602734812540E-02
 XZ       0.5590015084040E-01
 YX       0.3447955832366E-01
 YY       0.9429423378721E-01
 YZ       0.1323499358501E+00
 ZX      -0.6077281645476E-01
 ZY      -0.2317822406507E+00
 ZZ      -0.9617404166919E-01

 G-prime = -omega beta(imag):
 XX      -0.2152457636999E-03
 XY       0.2602734812540E-02
 XZ       0.5590015084040E-01
 YX       0.3447955832366E-01
 YY       0.9429423378721E-01
 YZ       0.1323499358501E+00
 ZX      -0.6077281645476E-01
 ZY      -0.2317822406507E+00
 ZZ      -0.9617404166919E-01

 dipole-quadrupole real (Cartesian):
 XXX     -0.3362581480585E+03
 XXY      0.4520441421306E+02
 XXZ     -0.7248184425903E+01
 XYY      0.5595790083450E+01
 XYZ      0.3803810413723E+01
 XZZ      0.9783543985650E-01
 YXX     -0.2052626191159E+02
 YXY     -0.1875154014971E+03
 YXZ      0.5476084721647E+02
 YYY      0.1196975833609E+03
 YYZ     -0.1522623813443E+02
 YZZ      0.3663574994314E+01
 ZXX     -0.1129681365722E+02
 ZXY      0.5551888030982E+02
 ZXZ     -0.2513228614219E+03
 ZYY     -0.3514008529485E+02
 ZYZ      0.8216138883603E+02
 ZZZ      0.8596140350537E+01

 dipole-quadrupole imag (Cartesian):
 XXX     -0.7120624589614E+00
 XXY      0.8666082572690E-01
 XXZ      0.2380161550794E-01
 XYY      0.1920403029311E-01
 XYZ     -0.4948066870788E-02
 XZZ     -0.3234357883905E-02
 YXX     -0.6685725475840E-01
 YXY     -0.4750002423209E+00
 YXZ      0.2181826034228E+00
 YYY      0.3097774434063E+00
 YYZ     -0.6363275922024E-01
 YZZ      0.6192677706334E-02
 ZXX      0.5590099495623E-01
 ZXY      0.2042473086072E+00
 ZXZ     -0.6610197055276E+00
 ZYY     -0.1437371619296E+00
 ZYZ      0.2204903662524E+00
 ZZZ      0.3363587944536E-01

 dipole-quadrupole (traceless):
 XXX     -0.3391049608201E+03
 XXY      0.6780662131958E+02
 XXZ     -0.1087227663885E+02
 XYY      0.1736759463928E+03
 XYZ      0.5705715620585E+01
 XZZ      0.1654290144274E+03
 YXX     -0.8220684108918E+02
 YXY     -0.2812731022456E+03
 YXZ      0.8214127082471E+02
 YYY      0.1281289268195E+03
 YYZ     -0.2283935720164E+02
 YZZ     -0.4592208573032E+02
 ZXX      0.1975158814940E+01
 ZXY      0.8327832046473E+02
 ZXZ     -0.3769842921328E+03
 ZYY     -0.3378974864151E+02
 ZYZ      0.1232420832540E+03
 ZZZ      0.3181458982657E+02

 roa end


 Electric Dipole Response Matrix (nonzero elements):

              1        2        3      
    1   10.6668   0.6727   0.3008
    2    0.6727  12.1216  -3.3760
    3    0.3008  -3.3760  16.0163
 
 Imaginary part:

              1        2        3      
    1    0.0225   0.0022  -0.0019
    2    0.0022   0.0305  -0.0133
    3   -0.0019  -0.0133   0.0417

 ------------------------------------------
 average:        12.93488 + I       0.03155


 DFT Linear Response polarizability / au 
 Frequency  =       0.0885580 / au
 Wavelength =     514.5029585 / nm
              X              Y              Z
 -----------------------------------------------
 X      10.6667908      0.6727148      0.3008220
 Y       0.6727148     12.1215807     -3.3759643
 Z       0.3008220     -3.3759643     16.0162586
 -----------------------------------------------
 Eigenvalues =      11.1922984      9.6452730     17.9670587
 Isotropic   =      12.9348767
 Anisotropic =       6.2594670
 -----------------------------------------------
 *************************

 DFT Linear Response IMAG polarizability / au 
 Frequency  =       0.0885580 / au
 Wavelength =     514.5029585 / nm
              X              Y              Z
 -----------------------------------------------
 X       0.0224505      0.0022316     -0.0019333
 Y       0.0022316      0.0305063     -0.0133279
 Z      -0.0019333     -0.0133279      0.0417007
 -----------------------------------------------
 Eigenvalues =       0.0227326      0.0210805      0.0508444
 Isotropic   =       0.0315525
 Anisotropic =       0.0236565
 -----------------------------------------------
 *************************

 Magnetic Dipole Response Matrix (nonzero elements):
 Optical rotation tensor Beta
 (Buckingham-Dunn version including dipole-quadrupole terms)

              1        2        3      
    1    0.1846   0.2716  -1.7696
    2    0.2716   1.3162  -0.0252
    3   -1.7696  -0.0252  -1.4566
 
 Imaginary part:

              1        2        3      
    1    0.0024  -0.0294  -0.6312
    2   -0.3893  -1.0648  -1.4945
    3    0.6862   2.6173   1.0860

 ------------------------------------------
 average:         0.01471 + I       0.00789

 Principal components and PAS (Real part)
                 -2.59065
                  1.55979
                  1.07498
 ------------------------
 average:         0.01471

              1        2        3      
    1    0.5396   0.6040   0.5865
    2   -0.0321   0.7109  -0.7026
    3    0.8413  -0.3603  -0.4030

 Chiral response tensor (Real part):

              1        2        3      
    1   -0.0702  -0.1358   0.8848
    2   -0.1358  -0.6360   0.0126
    3    0.8848   0.0126   0.7504
 
 Principal components and PAS (Real part)
                  1.31739
                 -0.75783
                 -0.51543
 ------------------------
 average:         0.01471

              1        2        3      
    1    0.5396   0.6040   0.5865
    2   -0.0321   0.7109  -0.7026
    3    0.8413  -0.3603  -0.4030
 Exiting AOResponse driver routine

 Task  times  cpu:      347.9s     wall:      349.4s
 
 
                                NWChem Input Module
                                -------------------
 
 
 Summary of allocated global arrays
-----------------------------------
  No active global arrays



                         GA Statistics for process    0
                         ------------------------------

       create   destroy   get      put      acc     scatter   gather  read&inc
calls: 2444     2444     6.45e+06 5.32e+06 4.82e+05 1938        0     1953     
number of processes/call 1.00e+00 1.00e+00 1.00e+00 0.00e+00 0.00e+00
bytes total:             1.20e+09 1.67e+08 1.11e+09 5.92e+02 0.00e+00 1.56e+04
bytes remote:            0.00e+00 0.00e+00 0.00e+00 0.00e+00 0.00e+00 0.00e+00
Max memory consumed for GA by this process: 11498464 bytes
 
MA_summarize_allocated_blocks: starting scan ...
MA_summarize_allocated_blocks: scan completed: 0 heap blocks, 0 stack blocks
MA usage statistics:

	allocation statistics:
					      heap	     stack
					      ----	     -----
	current number of blocks	         0	         0
	maximum number of blocks	        24	        52
	current total bytes		         0	         0
	maximum total bytes		  20676928	  42215048
	maximum total K-bytes		     20677	     42216
	maximum total M-bytes		        21	        43
 
 
                                     CITATION
                                     --------
                Please cite the following reference when publishing
                           results obtained with NWChem:
 
                 M. Valiev, E.J. Bylaska, N. Govind, K. Kowalski,
              T.P. Straatsma, H.J.J. van Dam, D. Wang, J. Nieplocha,
                        E. Apra, T.L. Windus, W.A. de Jong
                 "NWChem: a comprehensive and scalable open-source
                  solution for large scale molecular simulations"
                      Comput. Phys. Commun. 181, 1477 (2010)
                           doi:10.1016/j.cpc.2010.04.018
 
                                      AUTHORS
                                      -------
          E. Apra, E. J. Bylaska, W. A. de Jong, N. Govind, K. Kowalski,
       T. P. Straatsma, M. Valiev, H. J. J. van Dam, D. Wang, T. L. Windus,
        J. Hammond, J. Autschbach, K. Bhaskaran-Nair, J. Brabec, K. Lopata,
    S. A. Fischer, S. Krishnamoorthy, M. Jacquelin, W. Ma, M. Klemm, O. Villa,
      Y. Chen, V. Anisimov, F. Aquino, S. Hirata, M. T. Hackler, V. Konjkov,
            D. Mejia-Rodriguez, T. Risthaus, M. Malagoli, A. Marenich,
   A. Otero-de-la-Roza, J. Mullin, P. Nichols, R. Peverati, J. Pittner, Y. Zhao,
        P.-D. Fan, A. Fonari, M. J. Williamson, R. J. Harrison, J. R. Rehr,
      M. Dupuis, D. Silverstein, D. M. A. Smith, J. Nieplocha, V. Tipparaju,
    M. Krishnan, B. E. Van Kuiken, A. Vazquez-Mayagoitia, L. Jensen, M. Swart,
      Q. Wu, T. Van Voorhis, A. A. Auer, M. Nooijen, L. D. Crosby, E. Brown,
      G. Cisneros, G. I. Fann, H. Fruchtl, J. Garza, K. Hirao, R. A. Kendall,
      J. A. Nichols, K. Tsemekhman, K. Wolinski, J. Anchell, D. E. Bernholdt,
      P. Borowski, T. Clark, D. Clerc, H. Dachsel, M. J. O. Deegan, K. Dyall,
    D. Elwood, E. Glendening, M. Gutowski, A. C. Hess, J. Jaffe, B. G. Johnson,
     J. Ju, R. Kobayashi, R. Kutteh, Z. Lin, R. Littlefield, X. Long, B. Meng,
      T. Nakajima, S. Niu, L. Pollack, M. Rosing, K. Glaesemann, G. Sandrone,
      M. Stave, H. Taylor, G. Thomas, J. H. van Lenthe, A. T. Wong, Z. Zhang.

 Total times  cpu:      382.9s     wall:      386.7s
