 argument  1 = h2o2_514.5_12.inp
 


============================== echo of input deck ==============================
echo
start h2o2_514.5_12.inp
title "h2o2 roa calculations at 514.5 nm, input generated by va with delta_type=2"
charge 0



geometry units angstrom nocenter noautoz noautosym nucleus point;symmetry c1
 O -8.052747  3.049021 -0.528350
 O -8.434117  2.111504  0.566132
 H -8.962503  3.235668 -0.904015
 H -8.122266  2.644956  1.349580
end

basis spherical
* library def2-TZVP
end

 set prop:newaoresp 1
 set aor:roadata T
 set cphf:maxsub 100
 set cphf:acc 1.0d-10
 set cphf:maxiter 100

property
    response 1   0.088558
    bdtensor
    convergence 1e-9
    damping 0.0037
    giao
end

dft
 direct
 mult 1
 xc becke88 lyp
 iterations 250
 tolerances tight
 grid xfine
 convergence nolevelshifting
 convergence energy 1e-8
 convergence gradient 1e-8


end

task dft gradient
task dft property
================================================================================


                                         
                                         
 
 
              Northwest Computational Chemistry Package (NWChem) 6.8
              ------------------------------------------------------
 
 
                    Environmental Molecular Sciences Laboratory
                       Pacific Northwest National Laboratory
                                Richland, WA 99352
 
                              Copyright (c) 1994-2017
                       Pacific Northwest National Laboratory
                            Battelle Memorial Institute
 
             NWChem is an open-source computational chemistry package
                        distributed under the terms of the
                      Educational Community License (ECL) 2.0
             A copy of the license is included with this distribution
                              in the LICENSE.TXT file
 
                                  ACKNOWLEDGMENT
                                  --------------

            This software and its documentation were developed at the
            EMSL at Pacific Northwest National Laboratory, a multiprogram
            national laboratory, operated for the U.S. Department of Energy
            by Battelle under Contract Number DE-AC05-76RL01830. Support
            for this work was provided by the Department of Energy Office
            of Biological and Environmental Research, Office of Basic
            Energy Sciences, and the Office of Advanced Scientific Computing.


           Job information
           ---------------

    hostname        = cpn-f11-19-01.cbls.ccr.buffalo.edu
    program         = /util/academic/nwchem/nwchem-6.8/bin/LINUX64/nwchem
    date            = Thu Feb 28 18:48:56 2019

    compiled        = Tue_Nov_06_14:59:08_2018
    source          = /util/academic/nwchem/nwchem-6.8
    nwchem branch   = 6.8
    nwchem revision = v6.8-47-gdf6c956
    ga revision     = ga-5.6.3
    use scalapack   = F
    input           = h2o2_514.5_12.inp
    prefix          = h2o2_514.5_12.inp.
    data base       = ./h2o2_514.5_12.inp.db
    status          = startup
    nproc           =        1
    time left       =     -1s



           Memory information
           ------------------

    heap     =   13107200 doubles =    100.0 Mbytes
    stack    =   13107197 doubles =    100.0 Mbytes
    global   =   26214400 doubles =    200.0 Mbytes (distinct from heap & stack)
    total    =   52428797 doubles =    400.0 Mbytes
    verify   = yes
    hardfail = no 


           Directory information
           ---------------------
 
  0 permanent = .
  0 scratch   = .
 
 
 
 
                                NWChem Input Module
                                -------------------
 
 
                         h2o2 roa calculations at 514.5 nm, input generated by va with delta_type=2
                         ---------------------------------

 Scaling coordinates for geometry "geometry" by  1.889725989
 (inverse scale =  0.529177249)

 
 
                             Geometry "geometry" -> ""
                             -------------------------
 
 Output coordinates in angstroms (scale by  1.889725989 to convert to a.u.)
 
  No.       Tag          Charge          X              Y              Z
 ---- ---------------- ---------- -------------- -------------- --------------
    1 O                    8.0000    -8.05274700     3.04902100    -0.52835000
    2 O                    8.0000    -8.43411700     2.11150400     0.56613200
    3 H                    1.0000    -8.96250300     3.23566800    -0.90401500
    4 H                    1.0000    -8.12226600     2.64495600     1.34958000
 
      Atomic Mass 
      ----------- 
 
      O                 15.994910
      H                  1.007825
 

 Effective nuclear repulsion energy (a.u.)      35.8028379170

            Nuclear Dipole moment (a.u.) 
            ----------------------------
        X                 Y               Z
 ---------------- ---------------- ----------------
  -281.5307749561    89.1285936596     1.4131767785
 
 
            XYZ format geometry
            -------------------
     4
 geometry
 O                    -8.05274700     3.04902100    -0.52835000
 O                    -8.43411700     2.11150400     0.56613200
 H                    -8.96250300     3.23566800    -0.90401500
 H                    -8.12226600     2.64495600     1.34958000
 
 ==============================================================================
                                internuclear distances
 ------------------------------------------------------------------------------
       center one      |      center two      | atomic units |  angstroms
 ------------------------------------------------------------------------------
    3 H                |   1 O                |     1.89314  |     1.00181
    4 H                |   2 O                |     1.88558  |     0.99780
 ------------------------------------------------------------------------------
                         number of included internuclear distances:          2
 ==============================================================================



  warning:::::::::::::: from_environment
  NWCHEM_BASIS_LIBRARY set to: <
 /util/academic/nwchem/nwchem-6.8/src/basis/libraries>
  but file does not exist !
  using .nwchemrc or compiled library


 Summary of "ao basis" -> "" (spherical)
 ------------------------------------------------------------------------------
       Tag                 Description            Shells   Functions and Types
 ---------------- ------------------------------  ------  ---------------------
 *                         def2-TZVP                  on all atoms 


 
                                 NWChem DFT Module
                                 -----------------
 
 
                         h2o2 roa calculations at 514.5 nm, input generated by va with delta_type=2
 
 
                      Basis "ao basis" -> "ao basis" (spherical)
                      -----
  O (Oxygen)
  ----------
            Exponent  Coefficients 
       -------------- ---------------------------------------------------------
  1 S  2.70323826E+04  0.000217
  1 S  4.05238714E+03  0.001684
  1 S  9.22327227E+02  0.008740
  1 S  2.61240710E+02  0.035240
  1 S  8.53546414E+01  0.111535
  1 S  3.10350352E+01  0.255890
 
  2 S  1.22608607E+01  0.397687
  2 S  4.99870760E+00  0.246278
 
  3 S  1.17031082E+00  1.000000
 
  4 S  4.64747410E-01  1.000000
 
  5 S  1.85045364E-01  1.000000
 
  6 P  6.32749548E+01  0.006069
  6 P  1.46270494E+01  0.041913
  6 P  4.45012235E+00  0.161538
  6 P  1.52757996E+00  0.357070
 
  7 P  5.29351179E-01  1.000000
 
  8 P  1.74784213E-01  1.000000
 
  9 D  2.31400000E+00  1.000000
 
 10 D  6.45000000E-01  1.000000
 
 11 F  1.42800000E+00  1.000000
 
  H (Hydrogen)
  ------------
            Exponent  Coefficients 
       -------------- ---------------------------------------------------------
  1 S  3.40613410E+01  0.006025
  1 S  5.12357460E+00  0.045021
  1 S  1.16466260E+00  0.201897
 
  2 S  3.27230410E-01  1.000000
 
  3 S  1.03072410E-01  1.000000
 
  4 P  8.00000000E-01  1.000000
 


 Summary of "ao basis" -> "ao basis" (spherical)
 ------------------------------------------------------------------------------
       Tag                 Description            Shells   Functions and Types
 ---------------- ------------------------------  ------  ---------------------
 O                         def2-TZVP                11       31   5s3p2d1f
 H                         def2-TZVP                 4        6   3s1p




 Summary of "ao basis" -> "ao basis" (spherical)
 ------------------------------------------------------------------------------
       Tag                 Description            Shells   Functions and Types
 ---------------- ------------------------------  ------  ---------------------
 O                         def2-TZVP                11       31   5s3p2d1f
 H                         def2-TZVP                 4        6   3s1p


  Caching 1-el integrals 
  itol2e modified to match energy
  convergence criterion.
  tol_rho modified to match energy
  convergence criterion.
 
            General Information
            -------------------
          SCF calculation type: DFT
          Wavefunction type:  closed shell.
          No. of atoms     :     4
          No. of electrons :    18
           Alpha electrons :     9
            Beta electrons :     9
          Charge           :     0
          Spin multiplicity:     1
          Use of symmetry is: off; symmetry adaption is: off
          Maximum number of iterations: 250
          This is a Direct SCF calculation.
          AO basis - number of functions:    74
                     number of shells:    30
          Convergence on energy requested:  1.00D-08
          Convergence on density requested:  1.00D-05
          Convergence on gradient requested:  1.00D-08
 
              XC Information
              --------------
                    Becke 1988 Exchange Functional  1.000          
              Lee-Yang-Parr Correlation Functional  1.000          
 
             Grid Information
             ----------------
          Grid used for XC integration:  xfine     
          Radial quadrature: Mura-Knowles        
          Angular quadrature: Lebedev. 
          Tag              B.-S. Rad. Rad. Pts. Rad. Cut. Ang. Pts.
          ---              ---------- --------- --------- ---------
          O                   0.60      100           8.0      1454
          H                   0.35      100          10.0      1202
          Grid pruning is: on 
          Number of quadrature shells:   400
          Spatial weights used:  Erf1
 
          Convergence Information
          -----------------------
          Convergence aids based upon iterative change in 
          total energy or number of iterations. 
          Levelshifting, if invoked, occurs when the 
          HOMO/LUMO gap drops below (HL_TOL):  1.00D-02
          DIIS, if invoked, will attempt to extrapolate 
          using up to (NFOCK): 10 stored Fock matrices.

                    Damping( 0%)  Levelshifting(0.0)       DIIS
                  --------------- ------------------- ---------------
          dE  on:    start             N/A                start   
          dE off:    2 iters           N/A              250 iters 

 
      Screening Tolerance Information
      -------------------------------
          Density screening/tol_rho:  1.00D-11
          AO Gaussian exp screening on grid/accAOfunc:  18
          CD Gaussian exp screening on grid/accCDfunc:  20
          XC Gaussian exp screening on grid/accXCfunc:  20
          Schwarz screening/accCoul:  1.00D-09

 
      Superposition of Atomic Density Guess
      -------------------------------------
 
 Sum of atomic energies:        -150.56823290
 
      Non-variational initial energy
      ------------------------------

 Total energy =    -150.617629
 1-e energy   =    -278.236729
 2-e energy   =      91.816262
 HOMO         =      -0.355807
 LUMO         =      -0.042079
 
   Time after variat. SCF:      1.3
   Time prior to 1st pass:      1.3

 Grid_pts file          = ./h2o2_514.5_12.inp.gridpts.0
 Record size in doubles =  12289        No. of grid_pts per rec  =   3070
 Max. records in memory =    210        Max. recs in file   =   3881835


           Memory utilization after 1st SCF pass: 
           Heap Space remaining (MW):       10.52            10522928
          Stack Space remaining (MW):       13.11            13106668

   convergence    iter        energy       DeltaE   RMS-Dens  Diis-err    time
 ---------------- ----- ----------------- --------- --------- ---------  ------
 d= 0,ls=0.0,diis     1   -151.5580975069 -1.87D+02  7.51D-03  6.84D-01     5.3
 d= 0,ls=0.0,diis     2   -151.5935944558 -3.55D-02  2.91D-03  6.52D-02     9.0
 d= 0,ls=0.0,diis     3   -151.5982746568 -4.68D-03  1.21D-03  2.45D-02    12.7
 d= 0,ls=0.0,diis     4   -151.6000725232 -1.80D-03  4.01D-04  4.75D-03    16.3
 d= 0,ls=0.0,diis     5   -151.6004688853 -3.96D-04  8.85D-05  1.54D-04    20.0
 d= 0,ls=0.0,diis     6   -151.6004749094 -6.02D-06  4.56D-05  9.48D-05    23.7
 d= 0,ls=0.0,diis     7   -151.6004832762 -8.37D-06  3.80D-06  4.66D-07    27.4
 d= 0,ls=0.0,diis     8   -151.6004833172 -4.11D-08  7.49D-07  6.30D-09    31.1
 d= 0,ls=0.0,diis     9   -151.6004833177 -5.34D-10  1.90D-07  3.81D-10    34.8


         Total DFT energy =     -151.600483317747
      One electron energy =     -279.512691574476
           Coulomb energy =      109.903767505845
    Exchange-Corr. energy =      -17.794397166121
 Nuclear repulsion energy =       35.802837917005

 Numeric. integr. density =       17.999999999853

     Total iterative time =     33.5s


 
                       DFT Final Molecular Orbital Analysis
                       ------------------------------------
 
 Vector    1  Occ=2.000000D+00  E=-1.883310D+01
              MO Center= -8.1D+00,  3.0D+00, -5.3D-01, r^2= 1.8D-02
   Bfn.  Coefficient  Atom+Function         Bfn.  Coefficient  Atom+Function  
  ----- ------------  ---------------      ----- ------------  ---------------
     2      0.638380  1 O  s                  1      0.435141  1 O  s          
     3      0.037161  1 O  s                  4     -0.025067  1 O  s          
 
 Vector    2  Occ=2.000000D+00  E=-1.883271D+01
              MO Center= -8.4D+00,  2.1D+00,  5.6D-01, r^2= 1.8D-02
   Bfn.  Coefficient  Atom+Function         Bfn.  Coefficient  Atom+Function  
  ----- ------------  ---------------      ----- ------------  ---------------
    33      0.638388  2 O  s                 32      0.435139  2 O  s          
    34      0.037070  2 O  s          
 
 Vector    3  Occ=2.000000D+00  E=-1.004030D+00
              MO Center= -8.3D+00,  2.6D+00,  5.4D-02, r^2= 8.1D-01
   Bfn.  Coefficient  Atom+Function         Bfn.  Coefficient  Atom+Function  
  ----- ------------  ---------------      ----- ------------  ---------------
     4      0.313778  1 O  s                 35      0.314805  2 O  s          
     3      0.239069  1 O  s                 34      0.240032  2 O  s          
     2     -0.162932  1 O  s                 33     -0.163571  2 O  s          
     5      0.097949  1 O  s                 36      0.098262  2 O  s          
    38      0.071101  2 O  py                 1     -0.070004  1 O  s          
 
 Vector    4  Occ=2.000000D+00  E=-8.123417D-01
              MO Center= -8.3D+00,  2.7D+00,  6.9D-02, r^2= 1.3D+00
   Bfn.  Coefficient  Atom+Function         Bfn.  Coefficient  Atom+Function  
  ----- ------------  ---------------      ----- ------------  ---------------
     4      0.331307  1 O  s                 35     -0.329452  2 O  s          
     3      0.255878  1 O  s                 34     -0.254735  2 O  s          
     2     -0.168476  1 O  s                 33      0.167685  2 O  s          
     5      0.144546  1 O  s                 36     -0.143694  2 O  s          
    39     -0.087959  2 O  pz                69     -0.087706  4 H  s          
 
 Vector    5  Occ=2.000000D+00  E=-4.694699D-01
              MO Center= -8.3D+00,  2.7D+00,  6.3D-02, r^2= 1.3D+00
   Bfn.  Coefficient  Atom+Function         Bfn.  Coefficient  Atom+Function  
  ----- ------------  ---------------      ----- ------------  ---------------
    39      0.309964  2 O  pz                42      0.243608  2 O  pz         
     7      0.210054  1 O  py                 8     -0.198643  1 O  pz         
    10      0.169224  1 O  py                11     -0.157573  1 O  pz         
    70      0.131047  4 H  s                 64      0.130026  3 H  s          
     6     -0.117181  1 O  px                45      0.112102  2 O  pz         
 
 Vector    6  Occ=2.000000D+00  E=-4.316149D-01
              MO Center= -8.3D+00,  2.6D+00,  3.6D-02, r^2= 1.3D+00
   Bfn.  Coefficient  Atom+Function         Bfn.  Coefficient  Atom+Function  
  ----- ------------  ---------------      ----- ------------  ---------------
     6      0.253564  1 O  px                 9      0.190575  1 O  px         
    37      0.177431  2 O  px                39      0.153989  2 O  pz         
     5      0.150535  1 O  s                 36     -0.151081  2 O  s          
    38      0.150501  2 O  py                 4      0.148732  1 O  s          
    35     -0.149273  2 O  s                 40      0.137605  2 O  px         
 
 Vector    7  Occ=2.000000D+00  E=-3.645984D-01
              MO Center= -8.2D+00,  2.5D+00, -1.9D-02, r^2= 1.3D+00
   Bfn.  Coefficient  Atom+Function         Bfn.  Coefficient  Atom+Function  
  ----- ------------  ---------------      ----- ------------  ---------------
    38      0.318782  2 O  py                41      0.249489  2 O  py         
     6     -0.238946  1 O  px                 8      0.214964  1 O  pz         
     9     -0.183452  1 O  px                11      0.173472  1 O  pz         
    44      0.165496  2 O  py                 5     -0.131419  1 O  s          
    36     -0.131478  2 O  s                 12     -0.118887  1 O  px         
 
 Vector    8  Occ=2.000000D+00  E=-2.741848D-01
              MO Center= -8.3D+00,  2.6D+00,  5.3D-02, r^2= 1.3D+00
   Bfn.  Coefficient  Atom+Function         Bfn.  Coefficient  Atom+Function  
  ----- ------------  ---------------      ----- ------------  ---------------
    37      0.343958  2 O  px                 7     -0.268376  1 O  py         
    40      0.267888  2 O  px                10     -0.214520  1 O  py         
    43      0.214967  2 O  px                13     -0.171406  1 O  py         
     8     -0.160494  1 O  pz                 6     -0.148955  1 O  px         
     5     -0.121403  1 O  s                 36     -0.121424  2 O  s          
 
 Vector    9  Occ=2.000000D+00  E=-2.294304D-01
              MO Center= -8.2D+00,  2.6D+00,  7.3D-03, r^2= 1.2D+00
   Bfn.  Coefficient  Atom+Function         Bfn.  Coefficient  Atom+Function  
  ----- ------------  ---------------      ----- ------------  ---------------
    37      0.282220  2 O  px                 7      0.275173  1 O  py         
    40      0.222403  2 O  px                38     -0.216429  2 O  py         
    10      0.214837  1 O  py                43      0.205900  2 O  px         
     8      0.203746  1 O  pz                13      0.190258  1 O  py         
    41     -0.165751  2 O  py                11      0.160193  1 O  pz         
 
 Vector   10  Occ=0.000000D+00  E=-5.934476D-02
              MO Center= -8.3D+00,  2.6D+00,  5.0D-02, r^2= 1.8D+00
   Bfn.  Coefficient  Atom+Function         Bfn.  Coefficient  Atom+Function  
  ----- ------------  ---------------      ----- ------------  ---------------
     5      0.502164  1 O  s                 36     -0.500414  2 O  s          
    44     -0.328573  2 O  py                65     -0.304636  3 H  s          
    71      0.300798  4 H  s                 14      0.294697  1 O  pz         
    13     -0.282544  1 O  py                45      0.269356  2 O  pz         
     8      0.258841  1 O  pz                38     -0.258444  2 O  py         
 
 Vector   11  Occ=0.000000D+00  E=-8.093982D-03
              MO Center= -8.6D+00,  3.0D+00,  2.6D-01, r^2= 4.2D+00
   Bfn.  Coefficient  Atom+Function         Bfn.  Coefficient  Atom+Function  
  ----- ------------  ---------------      ----- ------------  ---------------
    65      0.981990  3 H  s                 71      0.963380  4 H  s          
     5     -0.622600  1 O  s                 36     -0.619800  2 O  s          
    12      0.265069  1 O  px                45     -0.233245  2 O  pz         
    44     -0.147992  2 O  py                 6      0.134139  1 O  px         
    39     -0.131291  2 O  pz                14      0.124581  1 O  pz         
 
 Vector   12  Occ=0.000000D+00  E= 3.442992D-02
              MO Center= -8.6D+00,  3.0D+00,  2.9D-01, r^2= 4.2D+00
   Bfn.  Coefficient  Atom+Function         Bfn.  Coefficient  Atom+Function  
  ----- ------------  ---------------      ----- ------------  ---------------
    71     -1.157062  4 H  s                 65      1.127848  3 H  s          
    45      0.451142  2 O  pz                36      0.396638  2 O  s          
     5     -0.376579  1 O  s                 14      0.307093  1 O  pz         
    12      0.248077  1 O  px                39      0.246615  2 O  pz         
    13     -0.213715  1 O  py                 8      0.175347  1 O  pz         
 
 Vector   13  Occ=0.000000D+00  E= 3.295642D-01
              MO Center= -8.5D+00,  2.9D+00, -5.7D-02, r^2= 3.7D+00
   Bfn.  Coefficient  Atom+Function         Bfn.  Coefficient  Atom+Function  
  ----- ------------  ---------------      ----- ------------  ---------------
    64      1.294895  3 H  s                 70      1.004999  4 H  s          
    65     -0.817856  3 H  s                 71     -0.617219  4 H  s          
    45     -0.513414  2 O  pz                14      0.483906  1 O  pz         
     9      0.370297  1 O  px                 4     -0.327329  1 O  s          
    41     -0.290138  2 O  py                35     -0.266528  2 O  s          
 
 Vector   14  Occ=0.000000D+00  E= 3.372442D-01
              MO Center= -8.4D+00,  2.7D+00,  3.2D-01, r^2= 3.7D+00
   Bfn.  Coefficient  Atom+Function         Bfn.  Coefficient  Atom+Function  
  ----- ------------  ---------------      ----- ------------  ---------------
    70      1.576966  4 H  s                 64     -1.330488  3 H  s          
    71     -0.984859  4 H  s                 65      0.847817  3 H  s          
    12     -0.483800  1 O  px                36     -0.438475  2 O  s          
     5      0.410200  1 O  s                 44     -0.400193  2 O  py         
    35     -0.355681  2 O  s                  4      0.289607  1 O  s          
 
 Vector   15  Occ=0.000000D+00  E= 3.510665D-01
              MO Center= -8.2D+00,  2.6D+00,  3.4D-02, r^2= 3.8D+00
   Bfn.  Coefficient  Atom+Function         Bfn.  Coefficient  Atom+Function  
  ----- ------------  ---------------      ----- ------------  ---------------
    13     -0.956805  1 O  py                44     -0.961062  2 O  py         
     5      0.881003  1 O  s                 36     -0.881612  2 O  s          
    45      0.726694  2 O  pz                14      0.716882  1 O  pz         
    12     -0.665598  1 O  px                43     -0.663758  2 O  px         
    40      0.300978  2 O  px                 9      0.295122  1 O  px         
 
 Vector   16  Occ=0.000000D+00  E= 3.729428D-01
              MO Center= -8.0D+00,  2.3D+00, -1.4D-01, r^2= 2.6D+00
   Bfn.  Coefficient  Atom+Function         Bfn.  Coefficient  Atom+Function  
  ----- ------------  ---------------      ----- ------------  ---------------
    44      0.605626  2 O  py                12     -0.525374  1 O  px         
     4      0.466759  1 O  s                 35      0.466498  2 O  s          
    13      0.417841  1 O  py                 5     -0.375133  1 O  s          
    36     -0.369325  2 O  s                 41     -0.318333  2 O  py         
    43     -0.317022  2 O  px                14      0.303395  1 O  pz         
 
 Vector   17  Occ=0.000000D+00  E= 4.114080D-01
              MO Center= -8.3D+00,  2.6D+00,  3.2D-02, r^2= 3.0D+00
   Bfn.  Coefficient  Atom+Function         Bfn.  Coefficient  Atom+Function  
  ----- ------------  ---------------      ----- ------------  ---------------
    45     -0.913648  2 O  pz                14      0.893698  1 O  pz         
    12      0.746143  1 O  px                43     -0.708733  2 O  px         
     4     -0.388114  1 O  s                 35     -0.383920  2 O  s          
    11     -0.376834  1 O  pz                42      0.366696  2 O  pz         
    40      0.256964  2 O  px                 9     -0.238775  1 O  px         
 
 Vector   18  Occ=0.000000D+00  E= 4.428189D-01
              MO Center= -8.2D+00,  2.6D+00,  1.6D-02, r^2= 3.5D+00
   Bfn.  Coefficient  Atom+Function         Bfn.  Coefficient  Atom+Function  
  ----- ------------  ---------------      ----- ------------  ---------------
    44      1.215283  2 O  py                14     -1.037561  1 O  pz         
    36      0.833590  2 O  s                  5     -0.824249  1 O  s          
    12      0.763578  1 O  px                43     -0.647131  2 O  px         
    13     -0.488711  1 O  py                64      0.399978  3 H  s          
    70     -0.401440  4 H  s                 40      0.363925  2 O  px         
 
 Vector   19  Occ=0.000000D+00  E= 4.620777D-01
              MO Center= -8.3D+00,  2.7D+00,  7.8D-02, r^2= 4.1D+00
   Bfn.  Coefficient  Atom+Function         Bfn.  Coefficient  Atom+Function  
  ----- ------------  ---------------      ----- ------------  ---------------
     5      1.023237  1 O  s                 36      0.999281  2 O  s          
    13      0.789226  1 O  py                65     -0.790618  3 H  s          
    71     -0.783308  4 H  s                 43     -0.692515  2 O  px         
     4     -0.616508  1 O  s                 35     -0.614075  2 O  s          
    70      0.599567  4 H  s                 64      0.577037  3 H  s          
 
 Vector   20  Occ=0.000000D+00  E= 5.188998D-01
              MO Center= -8.3D+00,  2.7D+00,  8.7D-02, r^2= 3.9D+00
   Bfn.  Coefficient  Atom+Function         Bfn.  Coefficient  Atom+Function  
  ----- ------------  ---------------      ----- ------------  ---------------
    45      1.532807  2 O  pz                71     -1.286312  4 H  s          
    65      1.269423  3 H  s                 12      1.083499  1 O  px         
    36      1.023090  2 O  s                  5     -1.005150  1 O  s          
    14      0.917858  1 O  pz                13     -0.707628  1 O  py         
    35     -0.524017  2 O  s                  4      0.515423  1 O  s          
 
 Vector   21  Occ=0.000000D+00  E= 5.863324D-01
              MO Center= -8.4D+00,  2.8D+00,  1.4D-01, r^2= 3.0D+00
   Bfn.  Coefficient  Atom+Function         Bfn.  Coefficient  Atom+Function  
  ----- ------------  ---------------      ----- ------------  ---------------
    36      2.440252  2 O  s                  5      2.419450  1 O  s          
     4     -1.452046  1 O  s                 35     -1.454634  2 O  s          
    12     -1.365531  1 O  px                70     -1.023129  4 H  s          
    64     -1.015424  3 H  s                 44      0.911810  2 O  py         
    45      0.847009  2 O  pz                71     -0.809497  4 H  s          
 
 Vector   22  Occ=0.000000D+00  E= 6.707343D-01
              MO Center= -8.2D+00,  2.5D+00, -3.9D-02, r^2= 3.0D+00
   Bfn.  Coefficient  Atom+Function         Bfn.  Coefficient  Atom+Function  
  ----- ------------  ---------------      ----- ------------  ---------------
     5      5.571063  1 O  s                 36     -5.570663  2 O  s          
     4     -1.845186  1 O  s                 35      1.840100  2 O  s          
    14      1.729434  1 O  pz                44     -1.718906  2 O  py         
    45      1.635085  2 O  pz                13     -1.553369  1 O  py         
    12     -0.892508  1 O  px                64     -0.874887  3 H  s          
 
 Vector   23  Occ=0.000000D+00  E= 1.011666D+00
              MO Center= -8.4D+00,  2.7D+00,  9.4D-02, r^2= 1.5D+00
   Bfn.  Coefficient  Atom+Function         Bfn.  Coefficient  Atom+Function  
  ----- ------------  ---------------      ----- ------------  ---------------
    22      0.328862  1 O  d  0              68     -0.314027  3 H  pz         
    53     -0.282912  2 O  d  0              70      0.273127  4 H  s          
    64     -0.267496  3 H  s                 74     -0.251912  4 H  pz         
    23     -0.246199  1 O  d  1              54      0.242552  2 O  d  1       
    73      0.232930  4 H  py                51      0.219790  2 O  d -2       
 
 Vector   24  Occ=0.000000D+00  E= 1.079291D+00
              MO Center= -8.3D+00,  2.7D+00,  6.3D-02, r^2= 1.5D+00
   Bfn.  Coefficient  Atom+Function         Bfn.  Coefficient  Atom+Function  
  ----- ------------  ---------------      ----- ------------  ---------------
    54      0.346698  2 O  d  1              67      0.343197  3 H  py         
    20     -0.308867  1 O  d -2              72     -0.282940  4 H  px         
    22     -0.272441  1 O  d  0              52      0.227695  2 O  d -1       
    24     -0.194297  1 O  d  2              53      0.191096  2 O  d  0       
    74      0.191390  4 H  pz                70     -0.175102  4 H  s          
 
 Vector   25  Occ=0.000000D+00  E= 1.182507D+00
              MO Center= -8.3D+00,  2.6D+00,  5.0D-02, r^2= 1.5D+00
   Bfn.  Coefficient  Atom+Function         Bfn.  Coefficient  Atom+Function  
  ----- ------------  ---------------      ----- ------------  ---------------
    55     -0.442048  2 O  d  2              23      0.430485  1 O  d  1       
    36     -0.343991  2 O  s                  5     -0.336871  1 O  s          
    68      0.241936  3 H  pz                24      0.238118  1 O  d  2       
    70      0.232388  4 H  s                 44     -0.229514  2 O  py         
    64      0.229039  3 H  s                 12      0.217985  1 O  px         
 
 Vector   26  Occ=0.000000D+00  E= 1.220548D+00
              MO Center= -8.4D+00,  2.7D+00,  1.1D-01, r^2= 1.8D+00
   Bfn.  Coefficient  Atom+Function         Bfn.  Coefficient  Atom+Function  
  ----- ------------  ---------------      ----- ------------  ---------------
     5      0.622123  1 O  s                 36     -0.620974  2 O  s          
    72      0.410130  4 H  px                20     -0.382393  1 O  d -2       
    67      0.358335  3 H  py                43     -0.261318  2 O  px         
    51      0.250639  2 O  d -2              55      0.242888  2 O  d  2       
    13     -0.240918  1 O  py                68      0.234519  3 H  pz         
 
 Vector   27  Occ=0.000000D+00  E= 1.529950D+00
              MO Center= -8.4D+00,  2.7D+00,  2.2D-01, r^2= 2.4D+00
   Bfn.  Coefficient  Atom+Function         Bfn.  Coefficient  Atom+Function  
  ----- ------------  ---------------      ----- ------------  ---------------
    70      2.010562  4 H  s                 64      1.745215  3 H  s          
    45     -0.691862  2 O  pz                52     -0.639830  2 O  d -1       
    12      0.579197  1 O  px                35     -0.546325  2 O  s          
    36     -0.516697  2 O  s                  4     -0.503579  1 O  s          
    14      0.463674  1 O  pz                24     -0.462415  1 O  d  2       
 
 Vector   28  Occ=0.000000D+00  E= 1.539937D+00
              MO Center= -8.4D+00,  2.8D+00,  1.6D-02, r^2= 2.4D+00
   Bfn.  Coefficient  Atom+Function         Bfn.  Coefficient  Atom+Function  
  ----- ------------  ---------------      ----- ------------  ---------------
    64      2.056275  3 H  s                 70     -1.864710  4 H  s          
     5     -1.286328  1 O  s                 36      1.246124  2 O  s          
    12      0.743005  1 O  px                24     -0.628743  1 O  d  2       
    44      0.607584  2 O  py                52      0.450184  2 O  d -1       
    65     -0.430774  3 H  s                 63     -0.406719  3 H  s          
 
 Vector   29  Occ=0.000000D+00  E= 1.597298D+00
              MO Center= -8.4D+00,  2.7D+00,  1.0D-01, r^2= 1.8D+00
   Bfn.  Coefficient  Atom+Function         Bfn.  Coefficient  Atom+Function  
  ----- ------------  ---------------      ----- ------------  ---------------
    73      0.416572  4 H  py                68      0.378720  3 H  pz         
    51      0.375451  2 O  d -2              54      0.339614  2 O  d  1       
    21     -0.318305  1 O  d -1              22     -0.274672  1 O  d  0       
    74     -0.266723  4 H  pz                14     -0.262487  1 O  pz         
    45      0.261675  2 O  pz                12     -0.249917  1 O  px         
 
 Vector   30  Occ=0.000000D+00  E= 1.644870D+00
              MO Center= -8.3D+00,  2.6D+00,  4.7D-02, r^2= 1.5D+00
   Bfn.  Coefficient  Atom+Function         Bfn.  Coefficient  Atom+Function  
  ----- ------------  ---------------      ----- ------------  ---------------
    21      0.580800  1 O  d -1              70      0.571357  4 H  s          
    64      0.552221  3 H  s                 53     -0.450436  2 O  d  0       
     5     -0.431758  1 O  s                 36     -0.433809  2 O  s          
    55      0.369139  2 O  d  2              44     -0.353723  2 O  py         
     4      0.350212  1 O  s                 35      0.341147  2 O  s          
 
 Vector   31  Occ=0.000000D+00  E= 1.734596D+00
              MO Center= -8.4D+00,  2.7D+00,  9.8D-02, r^2= 1.8D+00
   Bfn.  Coefficient  Atom+Function         Bfn.  Coefficient  Atom+Function  
  ----- ------------  ---------------      ----- ------------  ---------------
    36     -1.141259  2 O  s                  5      1.135025  1 O  s          
    13     -0.618986  1 O  py                45      0.562830  2 O  pz         
    22     -0.481555  1 O  d  0              51     -0.464332  2 O  d -2       
    73      0.431824  4 H  py                14      0.409425  1 O  pz         
    43     -0.362472  2 O  px                44     -0.353535  2 O  py         
 
 Vector   32  Occ=0.000000D+00  E= 1.856896D+00
              MO Center= -8.3D+00,  2.7D+00,  6.6D-02, r^2= 2.3D+00
   Bfn.  Coefficient  Atom+Function         Bfn.  Coefficient  Atom+Function  
  ----- ------------  ---------------      ----- ------------  ---------------
     5      2.188428  1 O  s                 36     -2.190401  2 O  s          
    35      1.076855  2 O  s                  4     -1.058799  1 O  s          
    44     -0.985983  2 O  py                14      0.900423  1 O  pz         
    70     -0.765518  4 H  s                 64      0.750195  3 H  s          
    45      0.604469  2 O  pz                21     -0.583835  1 O  d -1       
 
 Vector   33  Occ=0.000000D+00  E= 1.944275D+00
              MO Center= -8.4D+00,  2.8D+00,  1.3D-01, r^2= 1.9D+00
   Bfn.  Coefficient  Atom+Function         Bfn.  Coefficient  Atom+Function  
  ----- ------------  ---------------      ----- ------------  ---------------
    72      0.698287  4 H  px                70     -0.584780  4 H  s          
    64     -0.575434  3 H  s                 67     -0.542764  3 H  py         
    68     -0.488855  3 H  pz                20     -0.468756  1 O  d -2       
    54      0.366287  2 O  d  1              55     -0.357303  2 O  d  2       
    23      0.289751  1 O  d  1              42      0.279982  2 O  pz         
 
 Vector   34  Occ=0.000000D+00  E= 2.006605D+00
              MO Center= -8.3D+00,  2.6D+00,  8.5D-02, r^2= 1.9D+00
   Bfn.  Coefficient  Atom+Function         Bfn.  Coefficient  Atom+Function  
  ----- ------------  ---------------      ----- ------------  ---------------
     5      1.126492  1 O  s                 36     -1.128118  2 O  s          
    20      0.601091  1 O  d -2              72      0.575649  4 H  px         
    67      0.571086  3 H  py                13     -0.496619  1 O  py         
    54      0.481495  2 O  d  1              64     -0.471139  3 H  s          
    44     -0.465174  2 O  py                70      0.443904  4 H  s          
 
 Vector   35  Occ=0.000000D+00  E= 2.062424D+00
              MO Center= -8.3D+00,  2.7D+00,  6.1D-02, r^2= 1.8D+00
   Bfn.  Coefficient  Atom+Function         Bfn.  Coefficient  Atom+Function  
  ----- ------------  ---------------      ----- ------------  ---------------
    70      0.589447  4 H  s                 64     -0.546990  3 H  s          
    68     -0.530093  3 H  pz                24      0.506639  1 O  d  2       
    53      0.503969  2 O  d  0              23      0.500328  1 O  d  1       
    55      0.494311  2 O  d  2              74     -0.422103  4 H  pz         
    35     -0.380679  2 O  s                  4      0.349774  1 O  s          
 
 Vector   36  Occ=0.000000D+00  E= 2.096249D+00
              MO Center= -8.3D+00,  2.6D+00,  5.1D-02, r^2= 2.1D+00
   Bfn.  Coefficient  Atom+Function         Bfn.  Coefficient  Atom+Function  
  ----- ------------  ---------------      ----- ------------  ---------------
    64      0.759029  3 H  s                 70      0.754139  4 H  s          
     9      0.713545  1 O  px                42     -0.563334  2 O  pz         
    73     -0.549638  4 H  py                 4     -0.506500  1 O  s          
    35     -0.503716  2 O  s                 22     -0.492634  1 O  d  0       
    66      0.455287  3 H  px                12     -0.418854  1 O  px         
 
 Vector   37  Occ=0.000000D+00  E= 2.187687D+00
              MO Center= -8.4D+00,  2.8D+00,  1.6D-01, r^2= 2.4D+00
   Bfn.  Coefficient  Atom+Function         Bfn.  Coefficient  Atom+Function  
  ----- ------------  ---------------      ----- ------------  ---------------
    70     -1.603801  4 H  s                 64      1.549256  3 H  s          
     5     -1.349471  1 O  s                 36      1.349633  2 O  s          
    35      0.855058  2 O  s                 42      0.824767  2 O  pz         
     4     -0.812762  1 O  s                 45     -0.742423  2 O  pz         
     9      0.704142  1 O  px                14     -0.703041  1 O  pz         
 
 Vector   38  Occ=0.000000D+00  E= 2.228676D+00
              MO Center= -8.3D+00,  2.7D+00,  7.1D-02, r^2= 2.0D+00
   Bfn.  Coefficient  Atom+Function         Bfn.  Coefficient  Atom+Function  
  ----- ------------  ---------------      ----- ------------  ---------------
    64      1.347017  3 H  s                 70      1.296314  4 H  s          
    42     -0.755124  2 O  pz                 4     -0.742908  1 O  s          
    35     -0.722816  2 O  s                  9      0.613261  1 O  px         
    74     -0.614517  4 H  pz                10     -0.595880  1 O  py         
    63     -0.482321  3 H  s                 69     -0.453577  4 H  s          
 
 Vector   39  Occ=0.000000D+00  E= 2.377785D+00
              MO Center= -8.3D+00,  2.8D+00, -2.4D-01, r^2= 1.8D+00
   Bfn.  Coefficient  Atom+Function         Bfn.  Coefficient  Atom+Function  
  ----- ------------  ---------------      ----- ------------  ---------------
    64      1.656841  3 H  s                  4     -0.970895  1 O  s          
    66      0.945365  3 H  px                12      0.837577  1 O  px         
    40     -0.779936  2 O  px                 6      0.695544  1 O  px         
    70      0.508502  4 H  s                 37      0.499321  2 O  px         
    11      0.480753  1 O  pz                24     -0.479635  1 O  d  2       
 
 Vector   40  Occ=0.000000D+00  E= 2.380398D+00
              MO Center= -8.3D+00,  2.5D+00,  3.1D-01, r^2= 1.8D+00
   Bfn.  Coefficient  Atom+Function         Bfn.  Coefficient  Atom+Function  
  ----- ------------  ---------------      ----- ------------  ---------------
    70      1.514723  4 H  s                 74     -0.965907  4 H  pz         
    35     -0.872475  2 O  s                 45     -0.734785  2 O  pz         
    11      0.656728  1 O  pz                38     -0.563184  2 O  py         
     8     -0.508511  1 O  pz                14     -0.506783  1 O  pz         
    44     -0.506706  2 O  py                52     -0.469690  2 O  d -1       
 
 Vector   41  Occ=0.000000D+00  E= 2.423013D+00
              MO Center= -8.3D+00,  2.6D+00,  6.9D-02, r^2= 1.4D+00
   Bfn.  Coefficient  Atom+Function         Bfn.  Coefficient  Atom+Function  
  ----- ------------  ---------------      ----- ------------  ---------------
    35      0.873905  2 O  s                  4      0.833259  1 O  s          
    41      0.807559  2 O  py                11      0.674398  1 O  pz         
     8     -0.667492  1 O  pz                70     -0.667150  4 H  s          
    39      0.651953  2 O  pz                64     -0.622298  3 H  s          
     9     -0.520187  1 O  px                74      0.492475  4 H  pz         
 
 Vector   42  Occ=0.000000D+00  E= 2.543246D+00
              MO Center= -8.3D+00,  2.6D+00,  2.4D-02, r^2= 1.7D+00
   Bfn.  Coefficient  Atom+Function         Bfn.  Coefficient  Atom+Function  
  ----- ------------  ---------------      ----- ------------  ---------------
     5      1.474183  1 O  s                 64     -1.424138  3 H  s          
    70     -1.288500  4 H  s                 36      1.167382  2 O  s          
    66     -0.924851  3 H  px                 3      0.914082  1 O  s          
     4     -0.870223  1 O  s                 34      0.798512  2 O  s          
    35     -0.711176  2 O  s                 10      0.613245  1 O  py         
 
 Vector   43  Occ=0.000000D+00  E= 2.557910D+00
              MO Center= -8.4D+00,  2.8D+00,  1.9D-01, r^2= 1.5D+00
   Bfn.  Coefficient  Atom+Function         Bfn.  Coefficient  Atom+Function  
  ----- ------------  ---------------      ----- ------------  ---------------
    36      2.043859  2 O  s                  5     -1.834719  1 O  s          
    70     -1.108533  4 H  s                 40      1.016908  2 O  px         
    35     -0.903245  2 O  s                 64      0.882160  3 H  s          
    10      0.850972  1 O  py                 4      0.799696  1 O  s          
    34      0.783618  2 O  s                  3     -0.655835  1 O  s          
 
 Vector   44  Occ=0.000000D+00  E= 2.672585D+00
              MO Center= -8.1D+00,  2.4D+00, -1.1D-01, r^2= 1.5D+00
   Bfn.  Coefficient  Atom+Function         Bfn.  Coefficient  Atom+Function  
  ----- ------------  ---------------      ----- ------------  ---------------
     5      2.640460  1 O  s                 36     -2.626169  2 O  s          
     4     -2.105043  1 O  s                 35      2.068012  2 O  s          
     3      1.352585  1 O  s                 34     -1.330858  2 O  s          
    41     -0.970676  2 O  py                 9     -0.744919  1 O  px         
    11      0.631850  1 O  pz                13     -0.598222  1 O  py         
 
 Vector   45  Occ=0.000000D+00  E= 2.711739D+00
              MO Center= -8.3D+00,  2.7D+00,  8.5D-02, r^2= 1.7D+00
   Bfn.  Coefficient  Atom+Function         Bfn.  Coefficient  Atom+Function  
  ----- ------------  ---------------      ----- ------------  ---------------
    35      2.448588  2 O  s                  4      2.413052  1 O  s          
    34     -1.600767  2 O  s                  3     -1.577208  1 O  s          
    36     -1.508714  2 O  s                  5     -1.462477  1 O  s          
    40     -0.684156  2 O  px                 9      0.495922  1 O  px         
    10      0.479392  1 O  py                37      0.440625  2 O  px         
 
 Vector   46  Occ=0.000000D+00  E= 3.543433D+00
              MO Center= -8.4D+00,  2.8D+00,  3.1D-02, r^2= 1.7D+00
   Bfn.  Coefficient  Atom+Function         Bfn.  Coefficient  Atom+Function  
  ----- ------------  ---------------      ----- ------------  ---------------
     4      2.932936  1 O  s                 35     -2.654049  2 O  s          
     9     -1.731173  1 O  px                64     -1.508247  3 H  s          
     3     -1.471837  1 O  s                 70      1.371332  4 H  s          
    34      1.329051  2 O  s                 42     -1.274272  2 O  pz         
    66     -1.216000  3 H  px                41     -0.982722  2 O  py         
 
 Vector   47  Occ=0.000000D+00  E= 3.585118D+00
              MO Center= -8.4D+00,  2.7D+00,  2.0D-01, r^2= 1.6D+00
   Bfn.  Coefficient  Atom+Function         Bfn.  Coefficient  Atom+Function  
  ----- ------------  ---------------      ----- ------------  ---------------
    35      2.629472  2 O  s                  4      2.265455  1 O  s          
     9     -1.570082  1 O  px                42      1.533667  2 O  pz         
    70     -1.339161  4 H  s                 34     -1.250529  2 O  s          
    64     -1.154379  3 H  s                  3     -1.074696  1 O  s          
    66     -1.018186  3 H  px                74      1.015287  4 H  pz         
 
 Vector   48  Occ=0.000000D+00  E= 3.841612D+00
              MO Center= -8.2D+00,  2.6D+00,  2.4D-02, r^2= 9.2D-01
   Bfn.  Coefficient  Atom+Function         Bfn.  Coefficient  Atom+Function  
  ----- ------------  ---------------      ----- ------------  ---------------
     4      1.610550  1 O  s                 35     -1.585116  2 O  s          
    42      1.559070  2 O  pz                11      1.410731  1 O  pz         
     3     -1.160689  1 O  s                 34      1.150864  2 O  s          
    10     -1.128787  1 O  py                41     -0.885607  2 O  py         
    52      0.762844  2 O  d -1              21     -0.602994  1 O  d -1       
 
 Vector   49  Occ=0.000000D+00  E= 4.659619D+00
              MO Center= -8.2D+00,  2.6D+00,  2.2D-02, r^2= 1.0D+00
   Bfn.  Coefficient  Atom+Function         Bfn.  Coefficient  Atom+Function  
  ----- ------------  ---------------      ----- ------------  ---------------
    26      0.335106  1 O  f -2              30      0.330474  1 O  f  2       
    28      0.324992  1 O  f  0              61      0.307849  2 O  f  2       
    59      0.298441  2 O  f  0              57      0.294355  2 O  f -2       
    60      0.289997  2 O  f  1              25     -0.276284  1 O  f -3       
    56     -0.271318  2 O  f -3               9      0.264173  1 O  px         
 
 Vector   50  Occ=0.000000D+00  E= 4.720128D+00
              MO Center= -8.2D+00,  2.6D+00,  2.3D-02, r^2= 9.6D-01
   Bfn.  Coefficient  Atom+Function         Bfn.  Coefficient  Atom+Function  
  ----- ------------  ---------------      ----- ------------  ---------------
    27      0.471440  1 O  f -1              58     -0.394716  2 O  f -1       
    57      0.362855  2 O  f -2              61     -0.341343  2 O  f  2       
    31      0.283312  1 O  f  3              30      0.267781  1 O  f  2       
     5     -0.235316  1 O  s                 36     -0.235604  2 O  s          
    26     -0.230699  1 O  f -2              62     -0.181799  2 O  f  3       
 
 Vector   51  Occ=0.000000D+00  E= 4.740802D+00
              MO Center= -8.2D+00,  2.6D+00,  2.3D-02, r^2= 1.1D+00
   Bfn.  Coefficient  Atom+Function         Bfn.  Coefficient  Atom+Function  
  ----- ------------  ---------------      ----- ------------  ---------------
    35     -0.496324  2 O  s                  4      0.487411  1 O  s          
    26     -0.483326  1 O  f -2              62      0.437733  2 O  f  3       
     9     -0.401086  1 O  px                59      0.388580  2 O  f  0       
    27     -0.353016  1 O  f -1              28      0.299095  1 O  f  0       
    41     -0.270790  2 O  py                42     -0.262482  2 O  pz         
 
 Vector   52  Occ=0.000000D+00  E= 4.839668D+00
              MO Center= -8.2D+00,  2.6D+00,  1.5D-02, r^2= 1.0D+00
   Bfn.  Coefficient  Atom+Function         Bfn.  Coefficient  Atom+Function  
  ----- ------------  ---------------      ----- ------------  ---------------
    29      0.528835  1 O  f  1              56     -0.460703  2 O  f -3       
    60     -0.424161  2 O  f  1              25      0.293455  1 O  f -3       
    28     -0.226390  1 O  f  0              62     -0.221345  2 O  f  3       
    31      0.207189  1 O  f  3              61      0.139798  2 O  f  2       
    27     -0.121989  1 O  f -1              73      0.112439  4 H  py         
 
 Vector   53  Occ=0.000000D+00  E= 4.936053D+00
              MO Center= -8.3D+00,  2.6D+00,  2.9D-02, r^2= 1.1D+00
   Bfn.  Coefficient  Atom+Function         Bfn.  Coefficient  Atom+Function  
  ----- ------------  ---------------      ----- ------------  ---------------
    31      0.527393  1 O  f  3              56      0.443830  2 O  f -3       
    59      0.391264  2 O  f  0              28     -0.340968  1 O  f  0       
    62     -0.287787  2 O  f  3              27     -0.257190  1 O  f -1       
    42      0.217984  2 O  pz                11      0.203202  1 O  pz         
    58      0.165694  2 O  f -1              73      0.163932  4 H  py         
 
 Vector   54  Occ=0.000000D+00  E= 5.178090D+00
              MO Center= -8.3D+00,  2.6D+00,  1.6D-02, r^2= 1.0D+00
   Bfn.  Coefficient  Atom+Function         Bfn.  Coefficient  Atom+Function  
  ----- ------------  ---------------      ----- ------------  ---------------
    25      0.609830  1 O  f -3              56      0.443568  2 O  f -3       
    30      0.335729  1 O  f  2              61      0.308977  2 O  f  2       
    62      0.299759  2 O  f  3              59     -0.232432  2 O  f  0       
    57      0.208219  2 O  f -2              67     -0.207368  3 H  py         
    72     -0.191426  4 H  px                15     -0.153707  1 O  d -2       
 
 Vector   55  Occ=0.000000D+00  E= 5.236792D+00
              MO Center= -8.3D+00,  2.7D+00, -1.1D-02, r^2= 1.0D+00
   Bfn.  Coefficient  Atom+Function         Bfn.  Coefficient  Atom+Function  
  ----- ------------  ---------------      ----- ------------  ---------------
    29      0.419396  1 O  f  1              56      0.419990  2 O  f -3       
    61      0.396445  2 O  f  2              30     -0.388686  1 O  f  2       
    25     -0.363838  1 O  f -3              60     -0.255466  2 O  f  1       
    27      0.230678  1 O  f -1              57      0.219220  2 O  f -2       
    68      0.201666  3 H  pz                72     -0.190040  4 H  px         
 
 Vector   56  Occ=0.000000D+00  E= 5.250639D+00
              MO Center= -8.3D+00,  2.5D+00,  8.4D-02, r^2= 1.0D+00
   Bfn.  Coefficient  Atom+Function         Bfn.  Coefficient  Atom+Function  
  ----- ------------  ---------------      ----- ------------  ---------------
    60      0.593333  2 O  f  1              29      0.563185  1 O  f  1       
    62      0.283297  2 O  f  3              61     -0.257552  2 O  f  2       
    58      0.248275  2 O  f -1              27      0.207147  1 O  f -1       
    26     -0.191138  1 O  f -2              30     -0.187585  1 O  f  2       
    68      0.149322  3 H  pz                72      0.143477  4 H  px         
 
 Vector   57  Occ=0.000000D+00  E= 5.276210D+00
              MO Center= -8.3D+00,  2.6D+00,  4.1D-02, r^2= 9.7D-01
   Bfn.  Coefficient  Atom+Function         Bfn.  Coefficient  Atom+Function  
  ----- ------------  ---------------      ----- ------------  ---------------
    62      0.551938  2 O  f  3              31      0.428301  1 O  f  3       
    28     -0.389570  1 O  f  0              25     -0.341540  1 O  f -3       
    59     -0.297237  2 O  f  0              58     -0.240570  2 O  f -1       
     9     -0.227116  1 O  px                74      0.207573  4 H  pz         
    60     -0.177567  2 O  f  1              42      0.167809  2 O  pz         
 
 Vector   58  Occ=0.000000D+00  E= 5.558641D+00
              MO Center= -8.2D+00,  2.6D+00,  1.0D-02, r^2= 9.8D-01
   Bfn.  Coefficient  Atom+Function         Bfn.  Coefficient  Atom+Function  
  ----- ------------  ---------------      ----- ------------  ---------------
     4      0.572674  1 O  s                 59      0.561821  2 O  f  0       
    35      0.545370  2 O  s                 26      0.526495  1 O  f -2       
     9     -0.512687  1 O  px                42      0.428302  2 O  pz         
    64     -0.405888  3 H  s                 70     -0.388813  4 H  s          
    27      0.384790  1 O  f -1              66     -0.371787  3 H  px         
 
 Vector   59  Occ=0.000000D+00  E= 5.587274D+00
              MO Center= -8.3D+00,  2.6D+00,  2.4D-02, r^2= 9.0D-01
   Bfn.  Coefficient  Atom+Function         Bfn.  Coefficient  Atom+Function  
  ----- ------------  ---------------      ----- ------------  ---------------
    42      0.459595  2 O  pz                57      0.418363  2 O  f -2       
    28     -0.412717  1 O  f  0               9      0.404901  1 O  px         
    35      0.369262  2 O  s                  4     -0.342698  1 O  s          
    59      0.342659  2 O  f  0              19     -0.304237  1 O  d  2       
    66      0.287803  3 H  px                70     -0.286366  4 H  s          
 
 Vector   60  Occ=0.000000D+00  E= 5.800712D+00
              MO Center= -8.3D+00,  2.7D+00, -1.3D-03, r^2= 1.0D+00
   Bfn.  Coefficient  Atom+Function         Bfn.  Coefficient  Atom+Function  
  ----- ------------  ---------------      ----- ------------  ---------------
     4      0.718235  1 O  s                  9     -0.650613  1 O  px         
    35     -0.641712  2 O  s                 42     -0.599637  2 O  pz         
    66     -0.509645  3 H  px                47     -0.479388  2 O  d -1       
    63     -0.465084  3 H  s                 69      0.424787  4 H  s          
    74     -0.422762  4 H  pz                64     -0.383024  3 H  s          
 
 Vector   61  Occ=0.000000D+00  E= 5.894799D+00
              MO Center= -8.3D+00,  2.6D+00,  1.2D-01, r^2= 1.0D+00
   Bfn.  Coefficient  Atom+Function         Bfn.  Coefficient  Atom+Function  
  ----- ------------  ---------------      ----- ------------  ---------------
    35      0.926722  2 O  s                  4      0.856183  1 O  s          
     9     -0.655150  1 O  px                42      0.647648  2 O  pz         
    74      0.517429  4 H  pz                66     -0.497014  3 H  px         
    69     -0.484085  4 H  s                 70     -0.462088  4 H  s          
    63     -0.430997  3 H  s                 41      0.420838  2 O  py         
 
 Vector   62  Occ=0.000000D+00  E= 6.091791D+00
              MO Center= -8.2D+00,  2.6D+00,  2.5D-02, r^2= 8.8D-01
   Bfn.  Coefficient  Atom+Function         Bfn.  Coefficient  Atom+Function  
  ----- ------------  ---------------      ----- ------------  ---------------
     5      1.237221  1 O  s                 36     -1.242445  2 O  s          
    35      0.921622  2 O  s                  4     -0.904710  1 O  s          
    16      0.690759  1 O  d -1              48      0.558252  2 O  d  0       
    44     -0.425153  2 O  py                34     -0.422825  2 O  s          
     3      0.416379  1 O  s                 14      0.402479  1 O  pz         
 
 Vector   63  Occ=0.000000D+00  E= 6.115245D+00
              MO Center= -8.2D+00,  2.6D+00,  2.0D-02, r^2= 8.9D-01
   Bfn.  Coefficient  Atom+Function         Bfn.  Coefficient  Atom+Function  
  ----- ------------  ---------------      ----- ------------  ---------------
    50      0.621510  2 O  d  2              18     -0.501211  1 O  d  1       
    19     -0.499291  1 O  d  2              17     -0.359933  1 O  d  0       
    49      0.314543  2 O  d  1              55     -0.310841  2 O  d  2       
    48      0.302281  2 O  d  0              23      0.273994  1 O  d  1       
    46      0.263181  2 O  d -2              24      0.224486  1 O  d  2       
 
 Vector   64  Occ=0.000000D+00  E= 6.163342D+00
              MO Center= -8.2D+00,  2.6D+00,  5.2D-03, r^2= 9.0D-01
   Bfn.  Coefficient  Atom+Function         Bfn.  Coefficient  Atom+Function  
  ----- ------------  ---------------      ----- ------------  ---------------
    15      0.659238  1 O  d -2              49     -0.539590  2 O  d  1       
    20     -0.374819  1 O  d -2              54      0.370058  2 O  d  1       
    47     -0.347670  2 O  d -1              17      0.319927  1 O  d  0       
    50      0.303075  2 O  d  2              46      0.300040  2 O  d -2       
    18     -0.264854  1 O  d  1              70      0.262449  4 H  s          
 
 Vector   65  Occ=0.000000D+00  E= 6.191556D+00
              MO Center= -8.2D+00,  2.6D+00,  1.5D-02, r^2= 9.0D-01
   Bfn.  Coefficient  Atom+Function         Bfn.  Coefficient  Atom+Function  
  ----- ------------  ---------------      ----- ------------  ---------------
    46      0.596440  2 O  d -2              17      0.575898  1 O  d  0       
     5      0.471161  1 O  s                 36     -0.471272  2 O  s          
    15     -0.410910  1 O  d -2              49      0.391575  2 O  d  1       
    51     -0.345546  2 O  d -2              48     -0.334373  2 O  d  0       
    18     -0.316693  1 O  d  1              22     -0.310587  1 O  d  0       
 
 Vector   66  Occ=0.000000D+00  E= 6.246110D+00
              MO Center= -8.2D+00,  2.6D+00,  2.3D-02, r^2= 9.4D-01
   Bfn.  Coefficient  Atom+Function         Bfn.  Coefficient  Atom+Function  
  ----- ------------  ---------------      ----- ------------  ---------------
    15      0.625575  1 O  d -2              18     -0.481580  1 O  d  1       
    50     -0.482466  2 O  d  2              20     -0.435487  1 O  d -2       
    46     -0.422342  2 O  d -2              49      0.413629  2 O  d  1       
    55      0.333797  2 O  d  2              47      0.293705  2 O  d -1       
    35     -0.278727  2 O  s                  4      0.272171  1 O  s          
 
 Vector   67  Occ=0.000000D+00  E= 6.507381D+00
              MO Center= -8.2D+00,  2.6D+00,  1.8D-02, r^2= 1.0D+00
   Bfn.  Coefficient  Atom+Function         Bfn.  Coefficient  Atom+Function  
  ----- ------------  ---------------      ----- ------------  ---------------
    64      0.764565  3 H  s                 70      0.755696  4 H  s          
    16     -0.650173  1 O  d -1              46      0.601842  2 O  d -2       
    42     -0.597093  2 O  pz                 9      0.591346  1 O  px         
    51     -0.530673  2 O  d -2              24     -0.477554  1 O  d  2       
    21      0.435115  1 O  d -1              50     -0.428740  2 O  d  2       
 
 Vector   68  Occ=0.000000D+00  E= 6.609355D+00
              MO Center= -8.2D+00,  2.6D+00,  2.2D-02, r^2= 1.1D+00
   Bfn.  Coefficient  Atom+Function         Bfn.  Coefficient  Atom+Function  
  ----- ------------  ---------------      ----- ------------  ---------------
    70      0.893234  4 H  s                 64     -0.873978  3 H  s          
    24      0.865428  1 O  d  2              35     -0.772200  2 O  s          
     9     -0.764545  1 O  px                 4      0.752963  1 O  s          
    19     -0.739140  1 O  d  2              36     -0.646413  2 O  s          
     5      0.640710  1 O  s                 54      0.608079  2 O  d  1       
 
 Vector   69  Occ=0.000000D+00  E= 6.753820D+00
              MO Center= -8.2D+00,  2.6D+00,  1.4D-02, r^2= 1.0D+00
   Bfn.  Coefficient  Atom+Function         Bfn.  Coefficient  Atom+Function  
  ----- ------------  ---------------      ----- ------------  ---------------
    17      0.600028  1 O  d  0              22     -0.569795  1 O  d  0       
    48      0.567321  2 O  d  0              53     -0.515809  2 O  d  0       
    47     -0.496510  2 O  d -1              16     -0.400434  1 O  d -1       
    52      0.390484  2 O  d -1              51      0.367331  2 O  d -2       
    46     -0.306397  2 O  d -2              20      0.287108  1 O  d -2       
 
 Vector   70  Occ=0.000000D+00  E= 6.795266D+00
              MO Center= -8.2D+00,  2.6D+00,  1.6D-02, r^2= 1.1D+00
   Bfn.  Coefficient  Atom+Function         Bfn.  Coefficient  Atom+Function  
  ----- ------------  ---------------      ----- ------------  ---------------
     4      0.934612  1 O  s                 35     -0.936014  2 O  s          
    64     -0.819694  3 H  s                 70      0.819300  4 H  s          
    23     -0.713508  1 O  d  1               9     -0.705188  1 O  px         
    53     -0.623630  2 O  d  0              42     -0.616099  2 O  pz         
    52     -0.594018  2 O  d -1              66     -0.596821  3 H  px         
 
 Vector   71  Occ=0.000000D+00  E= 7.004940D+00
              MO Center= -8.2D+00,  2.6D+00,  2.7D-02, r^2= 1.1D+00
   Bfn.  Coefficient  Atom+Function         Bfn.  Coefficient  Atom+Function  
  ----- ------------  ---------------      ----- ------------  ---------------
    35      1.195987  2 O  s                  4      1.154970  1 O  s          
    70     -0.798978  4 H  s                 64     -0.768257  3 H  s          
    52      0.748000  2 O  d -1               9     -0.736334  1 O  px         
    23     -0.641690  1 O  d  1              42      0.620432  2 O  pz         
    69     -0.610256  4 H  s                 24      0.590923  1 O  d  2       
 
 Vector   72  Occ=0.000000D+00  E= 7.719760D+00
              MO Center= -8.2D+00,  2.6D+00,  1.8D-02, r^2= 1.1D+00
   Bfn.  Coefficient  Atom+Function         Bfn.  Coefficient  Atom+Function  
  ----- ------------  ---------------      ----- ------------  ---------------
    42      1.619340  2 O  pz                 4      1.605579  1 O  s          
    35     -1.603411  2 O  s                 11      1.531765  1 O  pz         
    52      1.383288  2 O  d -1              10     -1.284039  1 O  py         
    21     -1.232887  1 O  d -1              41     -1.131428  2 O  py         
     3     -1.083869  1 O  s                 34      1.083597  2 O  s          
 
 Vector   73  Occ=0.000000D+00  E= 4.266596D+01
              MO Center= -8.2D+00,  2.6D+00,  2.0D-02, r^2= 6.6D-01
   Bfn.  Coefficient  Atom+Function         Bfn.  Coefficient  Atom+Function  
  ----- ------------  ---------------      ----- ------------  ---------------
     2      1.195258  1 O  s                 33      1.195360  2 O  s          
     4      1.080015  1 O  s                 35      1.081708  2 O  s          
     3     -1.058056  1 O  s                 34     -1.058355  2 O  s          
     1     -0.982183  1 O  s                 32     -0.982274  2 O  s          
     5     -0.459134  1 O  s                 36     -0.460096  2 O  s          
 
 Vector   74  Occ=0.000000D+00  E= 4.314723D+01
              MO Center= -8.2D+00,  2.6D+00,  1.9D-02, r^2= 6.6D-01
   Bfn.  Coefficient  Atom+Function         Bfn.  Coefficient  Atom+Function  
  ----- ------------  ---------------      ----- ------------  ---------------
     4      1.427101  1 O  s                 35     -1.428498  2 O  s          
     3     -1.255180  1 O  s                 34      1.255201  2 O  s          
     2      1.216381  1 O  s                 33     -1.216255  2 O  s          
     1     -0.985543  1 O  s                 32      0.985449  2 O  s          
     5     -0.667394  1 O  s                 36      0.668605  2 O  s          
 

 center of mass
 --------------
 x = -15.61131400 y =   4.91631903 z =   0.05853714

 moments of inertia (a.u.)
 ------------------
          70.239393825148          -8.589145957440           8.926061548736
          -8.589145957440          49.661087123236          31.203151419042
           8.926061548736          31.203151419042          32.637089272566
 
     Multipole analysis of the density
     ---------------------------------
 
     L   x y z        total         alpha         beta         nuclear
     -   - - -        -----         -----         ----         -------
     0   0 0 0     -0.000000     -9.000000     -9.000000     18.000000
 
     1   1 0 0     -0.400055    140.565360    140.565360   -281.530775
     1   0 1 0      0.483791    -44.322402    -44.322402     89.128594
     1   0 0 1      0.274438     -0.569369     -0.569369      1.413177
 
     2   2 0 0      3.754136  -2201.730614  -2201.730614   4407.215363
     2   1 1 0    -10.302707    690.092108    690.092108  -1390.486924
     2   1 0 1     -2.647361     11.211912     11.211912    -25.071185
     2   0 2 0     -4.792615   -230.060880   -230.060880    455.329145
     2   0 1 1      1.315276      5.442855      5.442855     -9.570434
     2   0 0 2     -6.390090    -16.472052    -16.472052     26.554015
 
 
            General Information
            -------------------
          SCF calculation type: DFT
          Wavefunction type:  closed shell.
          No. of atoms     :     4
          No. of electrons :    18
           Alpha electrons :     9
            Beta electrons :     9
          Charge           :     0
          Spin multiplicity:     1
          Use of symmetry is: off; symmetry adaption is: off
          Maximum number of iterations: 250
          This is a Direct SCF calculation.
          AO basis - number of functions:    74
                     number of shells:    30
          Convergence on energy requested:  1.00D-08
          Convergence on density requested:  1.00D-05
          Convergence on gradient requested:  1.00D-08
 
              XC Information
              --------------
                    Becke 1988 Exchange Functional  1.000          
              Lee-Yang-Parr Correlation Functional  1.000          
 
             Grid Information
             ----------------
          Grid used for XC integration:  xfine     
          Radial quadrature: Mura-Knowles        
          Angular quadrature: Lebedev. 
          Tag              B.-S. Rad. Rad. Pts. Rad. Cut. Ang. Pts.
          ---              ---------- --------- --------- ---------
          O                   0.60      100           8.0      1454
          H                   0.35      100          10.0      1202
          Grid pruning is: on 
          Number of quadrature shells:   400
          Spatial weights used:  Erf1
 
          Convergence Information
          -----------------------
          Convergence aids based upon iterative change in 
          total energy or number of iterations. 
          Levelshifting, if invoked, occurs when the 
          HOMO/LUMO gap drops below (HL_TOL):  1.00D-02
          DIIS, if invoked, will attempt to extrapolate 
          using up to (NFOCK): 10 stored Fock matrices.

                    Damping( 0%)  Levelshifting(0.0)       DIIS
                  --------------- ------------------- ---------------
          dE  on:    start             N/A                start   
          dE off:    2 iters           N/A              250 iters 

 
      Screening Tolerance Information
      -------------------------------
          Density screening/tol_rho:  1.00D-11
          AO Gaussian exp screening on grid/accAOfunc:  18
          CD Gaussian exp screening on grid/accCDfunc:  20
          XC Gaussian exp screening on grid/accXCfunc:  20
          Schwarz screening/accCoul:  1.00D-09

 
 
                            NWChem DFT Gradient Module
                            --------------------------
 
 
                         h2o2 roa calculations at 514.5 nm, input generated by va with delta_type=2
 
 

  charge          =   0.00
  wavefunction    = closed shell



                         DFT ENERGY GRADIENTS

    atom               coordinates                        gradient
                 x          y          z           x          y          z
   1 O     -15.217485   5.761814  -0.998437    0.016818  -0.003395   0.007319
   2 O     -15.938170   3.990164   1.069834   -0.005067  -0.008020  -0.012399
   3 H     -16.936675   6.114526  -1.708341   -0.016663   0.003106  -0.006622
   4 H     -15.348857   4.998242   2.550336    0.004913   0.008309   0.011702
 
                 ----------------------------------------
                 |  Time  |  1-e(secs)   |  2-e(secs)   |
                 ----------------------------------------
                 |  CPU   |       0.01   |       2.33   |
                 ----------------------------------------
                 |  WALL  |       0.01   |       2.34   |
                 ----------------------------------------

 Task  times  cpu:       41.0s     wall:       41.7s
 
 
                                NWChem Input Module
                                -------------------
 
 
                              NWChem Property Module
                              ----------------------
 
 
                         h2o2 roa calculations at 514.5 nm, input generated by va with delta_type=2
 
 
                                 NWChem DFT Module
                                 -----------------
 
 
                         h2o2 roa calculations at 514.5 nm, input generated by va with delta_type=2
 
 


 Summary of "ao basis" -> "ao basis" (spherical)
 ------------------------------------------------------------------------------
       Tag                 Description            Shells   Functions and Types
 ---------------- ------------------------------  ------  ---------------------
 O                         def2-TZVP                11       31   5s3p2d1f
 H                         def2-TZVP                 4        6   3s1p


  Caching 1-el integrals 
 
            General Information
            -------------------
          SCF calculation type: DFT
          Wavefunction type:  closed shell.
          No. of atoms     :     4
          No. of electrons :    18
           Alpha electrons :     9
            Beta electrons :     9
          Charge           :     0
          Spin multiplicity:     1
          Use of symmetry is: off; symmetry adaption is: off
          Maximum number of iterations: 250
          This is a Direct SCF calculation.
          AO basis - number of functions:    74
                     number of shells:    30
          Convergence on energy requested:  1.00D-08
          Convergence on density requested:  1.00D-05
          Convergence on gradient requested:  1.00D-08
 
              XC Information
              --------------
                    Becke 1988 Exchange Functional  1.000          
              Lee-Yang-Parr Correlation Functional  1.000          
 
             Grid Information
             ----------------
          Grid used for XC integration:  xfine     
          Radial quadrature: Mura-Knowles        
          Angular quadrature: Lebedev. 
          Tag              B.-S. Rad. Rad. Pts. Rad. Cut. Ang. Pts.
          ---              ---------- --------- --------- ---------
          O                   0.60      100           8.0      1454
          H                   0.35      100          10.0      1202
          Grid pruning is: on 
          Number of quadrature shells:   400
          Spatial weights used:  Erf1
 
          Convergence Information
          -----------------------
          Convergence aids based upon iterative change in 
          total energy or number of iterations. 
          Levelshifting, if invoked, occurs when the 
          HOMO/LUMO gap drops below (HL_TOL):  1.00D-02
          DIIS, if invoked, will attempt to extrapolate 
          using up to (NFOCK): 10 stored Fock matrices.

                    Damping( 0%)  Levelshifting(0.0)       DIIS
                  --------------- ------------------- ---------------
          dE  on:    start             N/A                start   
          dE off:    2 iters           N/A              250 iters 

 
      Screening Tolerance Information
      -------------------------------
          Density screening/tol_rho:  1.00D-11
          AO Gaussian exp screening on grid/accAOfunc:  18
          CD Gaussian exp screening on grid/accCDfunc:  20
          XC Gaussian exp screening on grid/accXCfunc:  20
          Schwarz screening/accCoul:  1.00D-09


 Loading old vectors from job with title :

h2o2 roa calculations at 514.5 nm, input generated by va with delta_type=2

   Time after variat. SCF:     42.5
   Time prior to 1st pass:     42.5

 Grid_pts file          = ./h2o2_514.5_12.inp.gridpts.0
 Record size in doubles =  12289        No. of grid_pts per rec  =   3070
 Max. records in memory =    210        Max. recs in file   =   3881480


           Memory utilization after 1st SCF pass: 
           Heap Space remaining (MW):       10.52            10522928
          Stack Space remaining (MW):       13.11            13106668

   convergence    iter        energy       DeltaE   RMS-Dens  Diis-err    time
 ---------------- ----- ----------------- --------- --------- ---------  ------
 d= 0,ls=0.0,diis     1   -151.6004833178 -1.87D+02  2.30D-08  1.82D-12    46.4
 d= 0,ls=0.0,diis     2   -151.6004833178 -5.40D-13  9.44D-09  1.29D-12    50.1


         Total DFT energy =     -151.600483317783
      One electron energy =     -279.512716588026
           Coulomb energy =      109.903794966822
    Exchange-Corr. energy =      -17.794399613584
 Nuclear repulsion energy =       35.802837917005

 Numeric. integr. density =       17.999999999853

     Total iterative time =      7.6s


 
                       DFT Final Molecular Orbital Analysis
                       ------------------------------------
 
 Vector    1  Occ=2.000000D+00  E=-1.883310D+01
              MO Center= -8.1D+00,  3.0D+00, -5.3D-01, r^2= 1.8D-02
   Bfn.  Coefficient  Atom+Function         Bfn.  Coefficient  Atom+Function  
  ----- ------------  ---------------      ----- ------------  ---------------
     2      0.638380  1 O  s                  1      0.435141  1 O  s          
     3      0.037161  1 O  s                  4     -0.025067  1 O  s          
 
 Vector    2  Occ=2.000000D+00  E=-1.883271D+01
              MO Center= -8.4D+00,  2.1D+00,  5.6D-01, r^2= 1.8D-02
   Bfn.  Coefficient  Atom+Function         Bfn.  Coefficient  Atom+Function  
  ----- ------------  ---------------      ----- ------------  ---------------
    33      0.638388  2 O  s                 32      0.435139  2 O  s          
    34      0.037070  2 O  s          
 
 Vector    3  Occ=2.000000D+00  E=-1.004031D+00
              MO Center= -8.3D+00,  2.6D+00,  5.4D-02, r^2= 8.1D-01
   Bfn.  Coefficient  Atom+Function         Bfn.  Coefficient  Atom+Function  
  ----- ------------  ---------------      ----- ------------  ---------------
     4      0.313778  1 O  s                 35      0.314805  2 O  s          
     3      0.239069  1 O  s                 34      0.240032  2 O  s          
     2     -0.162932  1 O  s                 33     -0.163571  2 O  s          
     5      0.097949  1 O  s                 36      0.098262  2 O  s          
    38      0.071101  2 O  py                 1     -0.070004  1 O  s          
 
 Vector    4  Occ=2.000000D+00  E=-8.123418D-01
              MO Center= -8.3D+00,  2.7D+00,  6.9D-02, r^2= 1.3D+00
   Bfn.  Coefficient  Atom+Function         Bfn.  Coefficient  Atom+Function  
  ----- ------------  ---------------      ----- ------------  ---------------
     4      0.331307  1 O  s                 35     -0.329452  2 O  s          
     3      0.255878  1 O  s                 34     -0.254735  2 O  s          
     2     -0.168476  1 O  s                 33      0.167685  2 O  s          
     5      0.144546  1 O  s                 36     -0.143694  2 O  s          
    39     -0.087959  2 O  pz                69     -0.087706  4 H  s          
 
 Vector    5  Occ=2.000000D+00  E=-4.694701D-01
              MO Center= -8.3D+00,  2.7D+00,  6.3D-02, r^2= 1.3D+00
   Bfn.  Coefficient  Atom+Function         Bfn.  Coefficient  Atom+Function  
  ----- ------------  ---------------      ----- ------------  ---------------
    39      0.309964  2 O  pz                42      0.243608  2 O  pz         
     7      0.210054  1 O  py                 8     -0.198643  1 O  pz         
    10      0.169224  1 O  py                11     -0.157573  1 O  pz         
    70      0.131048  4 H  s                 64      0.130026  3 H  s          
     6     -0.117181  1 O  px                45      0.112102  2 O  pz         
 
 Vector    6  Occ=2.000000D+00  E=-4.316151D-01
              MO Center= -8.3D+00,  2.6D+00,  3.6D-02, r^2= 1.3D+00
   Bfn.  Coefficient  Atom+Function         Bfn.  Coefficient  Atom+Function  
  ----- ------------  ---------------      ----- ------------  ---------------
     6      0.253564  1 O  px                 9      0.190575  1 O  px         
    37      0.177431  2 O  px                39      0.153989  2 O  pz         
     5      0.150536  1 O  s                 36     -0.151081  2 O  s          
    38      0.150501  2 O  py                 4      0.148732  1 O  s          
    35     -0.149273  2 O  s                 40      0.137605  2 O  px         
 
 Vector    7  Occ=2.000000D+00  E=-3.645985D-01
              MO Center= -8.2D+00,  2.5D+00, -1.9D-02, r^2= 1.3D+00
   Bfn.  Coefficient  Atom+Function         Bfn.  Coefficient  Atom+Function  
  ----- ------------  ---------------      ----- ------------  ---------------
    38      0.318782  2 O  py                41      0.249489  2 O  py         
     6     -0.238946  1 O  px                 8      0.214964  1 O  pz         
     9     -0.183452  1 O  px                11      0.173472  1 O  pz         
    44      0.165496  2 O  py                 5     -0.131419  1 O  s          
    36     -0.131478  2 O  s                 12     -0.118887  1 O  px         
 
 Vector    8  Occ=2.000000D+00  E=-2.741849D-01
              MO Center= -8.3D+00,  2.6D+00,  5.3D-02, r^2= 1.3D+00
   Bfn.  Coefficient  Atom+Function         Bfn.  Coefficient  Atom+Function  
  ----- ------------  ---------------      ----- ------------  ---------------
    37      0.343958  2 O  px                 7     -0.268376  1 O  py         
    40      0.267888  2 O  px                10     -0.214520  1 O  py         
    43      0.214967  2 O  px                13     -0.171406  1 O  py         
     8     -0.160494  1 O  pz                 6     -0.148955  1 O  px         
     5     -0.121403  1 O  s                 36     -0.121424  2 O  s          
 
 Vector    9  Occ=2.000000D+00  E=-2.294305D-01
              MO Center= -8.2D+00,  2.6D+00,  7.3D-03, r^2= 1.2D+00
   Bfn.  Coefficient  Atom+Function         Bfn.  Coefficient  Atom+Function  
  ----- ------------  ---------------      ----- ------------  ---------------
    37      0.282220  2 O  px                 7      0.275173  1 O  py         
    40      0.222403  2 O  px                38     -0.216429  2 O  py         
    10      0.214837  1 O  py                43      0.205900  2 O  px         
     8      0.203746  1 O  pz                13      0.190258  1 O  py         
    41     -0.165751  2 O  py                11      0.160193  1 O  pz         
 
 Vector   10  Occ=0.000000D+00  E=-5.934489D-02
              MO Center= -8.3D+00,  2.6D+00,  5.0D-02, r^2= 1.8D+00
   Bfn.  Coefficient  Atom+Function         Bfn.  Coefficient  Atom+Function  
  ----- ------------  ---------------      ----- ------------  ---------------
     5      0.502164  1 O  s                 36     -0.500414  2 O  s          
    44     -0.328572  2 O  py                65     -0.304636  3 H  s          
    71      0.300797  4 H  s                 14      0.294697  1 O  pz         
    13     -0.282544  1 O  py                45      0.269356  2 O  pz         
     8      0.258841  1 O  pz                38     -0.258444  2 O  py         
 
 Vector   11  Occ=0.000000D+00  E=-8.094110D-03
              MO Center= -8.6D+00,  3.0D+00,  2.6D-01, r^2= 4.2D+00
   Bfn.  Coefficient  Atom+Function         Bfn.  Coefficient  Atom+Function  
[...]
    64      0.764565  3 H  s                 70      0.755696  4 H  s          
    16     -0.650173  1 O  d -1              46      0.601842  2 O  d -2       
    42     -0.597093  2 O  pz                 9      0.591346  1 O  px         
    51     -0.530673  2 O  d -2              24     -0.477554  1 O  d  2       
    21      0.435115  1 O  d -1              50     -0.428740  2 O  d  2       
 
 Vector   68  Occ=0.000000D+00  E= 6.609355D+00
              MO Center= -8.2D+00,  2.6D+00,  2.2D-02, r^2= 1.1D+00
   Bfn.  Coefficient  Atom+Function         Bfn.  Coefficient  Atom+Function  
  ----- ------------  ---------------      ----- ------------  ---------------
    70      0.893234  4 H  s                 64     -0.873978  3 H  s          
    24      0.865428  1 O  d  2              35     -0.772200  2 O  s          
     9     -0.764545  1 O  px                 4      0.752963  1 O  s          
    19     -0.739140  1 O  d  2              36     -0.646413  2 O  s          
     5      0.640710  1 O  s                 54      0.608079  2 O  d  1       
 
 Vector   69  Occ=0.000000D+00  E= 6.753819D+00
              MO Center= -8.2D+00,  2.6D+00,  1.4D-02, r^2= 1.0D+00
   Bfn.  Coefficient  Atom+Function         Bfn.  Coefficient  Atom+Function  
  ----- ------------  ---------------      ----- ------------  ---------------
    17      0.600028  1 O  d  0              22     -0.569795  1 O  d  0       
    48      0.567321  2 O  d  0              53     -0.515809  2 O  d  0       
    47     -0.496510  2 O  d -1              16     -0.400434  1 O  d -1       
    52      0.390484  2 O  d -1              51      0.367331  2 O  d -2       
    46     -0.306397  2 O  d -2              20      0.287108  1 O  d -2       
 
 Vector   70  Occ=0.000000D+00  E= 6.795266D+00
              MO Center= -8.2D+00,  2.6D+00,  1.6D-02, r^2= 1.1D+00
   Bfn.  Coefficient  Atom+Function         Bfn.  Coefficient  Atom+Function  
  ----- ------------  ---------------      ----- ------------  ---------------
     4      0.934612  1 O  s                 35     -0.936014  2 O  s          
    64     -0.819694  3 H  s                 70      0.819300  4 H  s          
    23     -0.713508  1 O  d  1               9     -0.705188  1 O  px         
    53     -0.623630  2 O  d  0              42     -0.616099  2 O  pz         
    52     -0.594018  2 O  d -1              66     -0.596821  3 H  px         
 
 Vector   71  Occ=0.000000D+00  E= 7.004940D+00
              MO Center= -8.2D+00,  2.6D+00,  2.7D-02, r^2= 1.1D+00
   Bfn.  Coefficient  Atom+Function         Bfn.  Coefficient  Atom+Function  
  ----- ------------  ---------------      ----- ------------  ---------------
    35      1.195987  2 O  s                  4      1.154970  1 O  s          
    70     -0.798978  4 H  s                 64     -0.768257  3 H  s          
    52      0.748000  2 O  d -1               9     -0.736334  1 O  px         
    23     -0.641690  1 O  d  1              42      0.620432  2 O  pz         
    69     -0.610256  4 H  s                 24      0.590923  1 O  d  2       
 
 Vector   72  Occ=0.000000D+00  E= 7.719760D+00
              MO Center= -8.2D+00,  2.6D+00,  1.8D-02, r^2= 1.1D+00
   Bfn.  Coefficient  Atom+Function         Bfn.  Coefficient  Atom+Function  
  ----- ------------  ---------------      ----- ------------  ---------------
    42      1.619340  2 O  pz                 4      1.605579  1 O  s          
    35     -1.603411  2 O  s                 11      1.531765  1 O  pz         
    52      1.383288  2 O  d -1              10     -1.284039  1 O  py         
    21     -1.232887  1 O  d -1              41     -1.131428  2 O  py         
     3     -1.083869  1 O  s                 34      1.083597  2 O  s          
 
 Vector   73  Occ=0.000000D+00  E= 4.266596D+01
              MO Center= -8.2D+00,  2.6D+00,  2.0D-02, r^2= 6.6D-01
   Bfn.  Coefficient  Atom+Function         Bfn.  Coefficient  Atom+Function  
  ----- ------------  ---------------      ----- ------------  ---------------
     2      1.195258  1 O  s                 33      1.195360  2 O  s          
     4      1.080015  1 O  s                 35      1.081708  2 O  s          
     3     -1.058056  1 O  s                 34     -1.058355  2 O  s          
     1     -0.982183  1 O  s                 32     -0.982274  2 O  s          
     5     -0.459134  1 O  s                 36     -0.460096  2 O  s          
 
 Vector   74  Occ=0.000000D+00  E= 4.314723D+01
              MO Center= -8.2D+00,  2.6D+00,  1.9D-02, r^2= 6.6D-01
   Bfn.  Coefficient  Atom+Function         Bfn.  Coefficient  Atom+Function  
  ----- ------------  ---------------      ----- ------------  ---------------
     4      1.427101  1 O  s                 35     -1.428498  2 O  s          
     3     -1.255180  1 O  s                 34      1.255201  2 O  s          
     2      1.216381  1 O  s                 33     -1.216255  2 O  s          
     1     -0.985543  1 O  s                 32      0.985449  2 O  s          
     5     -0.667394  1 O  s                 36      0.668605  2 O  s          
 

 center of mass
 --------------
 x = -15.61131400 y =   4.91631903 z =   0.05853714

 moments of inertia (a.u.)
 ------------------
          70.239393825148          -8.589145957440           8.926061548736
          -8.589145957440          49.661087123236          31.203151419042
           8.926061548736          31.203151419042          32.637089272566
 
     Multipole analysis of the density
     ---------------------------------
 
     L   x y z        total         alpha         beta         nuclear
     -   - - -        -----         -----         ----         -------
     0   0 0 0     -0.000000     -9.000000     -9.000000     18.000000
 
     1   1 0 0     -0.400055    140.565360    140.565360   -281.530775
     1   0 1 0      0.483790    -44.322402    -44.322402     89.128594
     1   0 0 1      0.274438     -0.569370     -0.569370      1.413177
 
     2   2 0 0      3.754114  -2201.730624  -2201.730624   4407.215363
     2   1 1 0    -10.302687    690.092119    690.092119  -1390.486924
     2   1 0 1     -2.647353     11.211916     11.211916    -25.071185
     2   0 2 0     -4.792624   -230.060884   -230.060884    455.329145
     2   0 1 1      1.315273      5.442853      5.442853     -9.570434
     2   0 0 2     -6.390090    -16.472053    -16.472053     26.554015
 
 *** CALLING NEW AORESP DRIVER FOR CLOSED AND OPEN SHELLS ***
 Entering AOResponse driver routine


--------------------------------------------------------------------------------

          ****************
          *** RESPONSE ***
          ****************

 Response module for NWChem and dynamic CPKS solver
 developed by J. Autschbach and coworkers, SUNY Buffalo
 The methodology used in this program is described in 
 ChemPhysChem 12 (2011), 3224-3235 (main reference)
 J. Chem. Phys. 123 (2005), 114103
 J. Chem. Phys. 122 (2005), 224115
 J. Chem. Phys. 122 (2005), 074105
 Comp. Lett. 3 (2007), 131-150 (contact JA for a copy)
 Please cite this work in publications based on results
 obtained with this code. Thank you!

 For extension of response module to open shell
 calculations please acknowledge:
 F. Aquino, Northwestern University, Schatz Rsrch Group
 The update to the methodology is described in
 J. Phys. Chem. A 118 (2014) 517-525



          -----------------------------------------------
          Solving response equations for perturbing field
          -----------------------------------------------

 number of frequencies:     1
 frequency in a.u.:  0.8855800E-01
 Perturbing field: electric
 Using GIAO formalism for OptRot
 Adding quadrupole terms to OptRot
 to create an origin in dependent tensor.
 Using El. Dipole Length Gauge
 
 Applying DAMPING constant of  0.003700 a.u.
 
 Setting up CPKS
 with frequency omega =      0.08855800 a.u.
 and a damping of            0.00370000 a.u.

 
                            NWChem Dynamic CPHF Module
                            --------------------------
 
 
    scftype = RHF 
    nclosed =    9
      nopen =    0
  variables =     2340
  num. vecs =        3
  tolerance =   1.0D-09
  max. iter =  100

 SCF residual:   6.279239865867490E-007


Iterative solution of linear equations
  No. of variables     1170
  No. of equations        3
  Maximum subspace       99
       Convergence  1.0D-09
        Start time     54.0


   iter   nsub   residual    time 
   ----  ------  --------  --------- 
 dft_CPHF2_read: failed to open./h2o2_514.5_12.inp.aoresp_fiao_f1
     1      3    5.06D+00      83.4
     2      6    2.11D+00     113.1
     3      9    1.64D-01     142.8
     4     12    8.08D-03     172.5
     5     15    2.12D-03     202.2
     6     18    3.01D-04     231.8
     7     21    1.91D-05     261.5
     8     24    1.00D-06     291.1
     9     27    1.05D-07     320.8
    10     30    6.63D-09     350.4
    11     33    2.99D-10     380.1

 Calculating some arrays needed for GIAO optical rotation

    0 giaofock schwarz done =      98.66%
    0 giaofock schwarz done =      98.66%
 aor_r1_tensor_giao: roadata output requested
 dip-quad polarizability Re:

              1        2        3        4        5        6      
    1 -345.5533  46.6219 -12.0233   5.6779   5.4235   0.0839
    2  -20.9339-188.4360  55.0511 120.2093 -15.2277   4.0414
    3  -20.1996  57.1142-257.6162 -35.3501  84.4248   9.1585
 traceless dip-quad polarizability:

              1        2        3      
    1 -348.4342  69.9329 -18.0349
    2   69.9329 178.4125   8.1352
    3  -18.0349   8.1352 170.0216

              1        2        3      
    1  -83.0593-282.6540  82.5767
    2 -282.6540 128.6556 -22.8416
    3   82.5767 -22.8416 -45.5963

              1        2        3      
    1   -7.1037  85.6713-386.4243
    2   85.6713 -29.8296 126.6372
    3 -386.4243 126.6372  36.9333

 roa begin

 alpha real:
 XX       0.1095492215212E+02
 XY       0.6890447092644E+00
 XZ       0.5787294417751E+00
 YX       0.6890447093472E+00
 YY       0.1218147445833E+02
 YZ      -0.3376929204247E+01
 ZX       0.5787294417271E+00
 ZY      -0.3376929204110E+01
 ZZ       0.1641293851760E+02

 alpha im:
 XX       0.2387572879162E-01
 XY       0.1737552029115E-02
 XZ      -0.5056937375805E-03
 YX       0.1737552057819E-02
 YY       0.3103464197493E-01
 YZ      -0.1335827110524E-01
 ZX      -0.5056936727579E-03
 ZY      -0.1335827102428E-01
 ZZ       0.4426620144875E-01

 beta real:
 XX      -0.1031097306957E+00
 XY      -0.2941777144588E+00
 XZ       0.3020474859321E+01
 YX       0.7859819952885E+00
 YY       0.2156230987328E+01
 YZ       0.8476358020102E+01
 ZX      -0.3234648105331E+01
 ZY      -0.1127767844079E+02
 ZZ      -0.2057255989389E+01

 G-prime = -omega beta(real):
 XX      -0.1031097306957E+00
 XY      -0.2941777144588E+00
 XZ       0.3020474859321E+01
 YX       0.7859819952885E+00
 YY       0.2156230987328E+01
 YZ       0.8476358020102E+01
 ZX      -0.3234648105331E+01
 ZY      -0.1127767844079E+02
 ZZ      -0.2057255989389E+01

 beta im:
 XX      -0.2177655120116E-02
 XY      -0.3525708297951E-02
 XZ       0.5902865450267E-01
 YX       0.3472958375467E-01
 YY       0.9353598800168E-01
 YZ       0.1334365649426E+00
 ZX      -0.6248058234705E-01
 ZY      -0.2412097964706E+00
 ZZ      -0.9370207991155E-01

 G-prime = -omega beta(imag):
 XX      -0.2177655120116E-02
 XY      -0.3525708297951E-02
 XZ       0.5902865450267E-01
 YX       0.3472958375467E-01
 YY       0.9353598800168E-01
 YZ       0.1334365649426E+00
 ZX      -0.6248058234705E-01
 ZY      -0.2412097964706E+00
 ZZ      -0.9370207991155E-01

 dipole-quadrupole real (Cartesian):
 XXX     -0.3455532731962E+03
 XXY      0.4662194469622E+02
 XXZ     -0.1202327774663E+02
 XYY      0.5677850644612E+01
 XYZ      0.5423499371817E+01
 XZZ      0.8392873881380E-01
 YXX     -0.2093394604316E+02
 YXY     -0.1884360065526E+03
 YXZ      0.5505113416618E+02
 YYY      0.1202092783829E+03
 YYZ     -0.1522770562960E+02
 YZZ      0.4041374285881E+01
 ZXX     -0.2019958167972E+02
 ZXY      0.5711417660738E+02
 ZXZ     -0.2576162180144E+03
 ZYY     -0.3535012353087E+02
 ZYZ      0.8442480526121E+02
 ZZZ      0.9158455740095E+01

 dipole-quadrupole imag (Cartesian):
 XXX     -0.7577635517363E+00
 XXY      0.1034195369168E+00
 XXZ     -0.1771622088053E-02
 XYY      0.1313166233959E-01
 XYZ      0.3835475312650E-02
 XZZ     -0.3896703607368E-02
 YXX     -0.5069067134274E-01
 YXY     -0.4869343557017E+00
 YXZ      0.2211006382820E+00
 YYY      0.3149850692936E+00
 YYZ     -0.6439664737156E-01
 YZZ      0.8839187870473E-02
 ZXX      0.1011909117899E-01
 ZXY      0.2134387317370E+00
 ZXZ     -0.7027831823207E+00
 ZYY     -0.1469290455633E+00
 ZYZ      0.2357079987472E+00
 ZZZ      0.3901620602697E-01

 dipole-quadrupole (traceless):
 XXX     -0.3484341628879E+03
 XXY      0.6993291704433E+02
 XXZ     -0.1803491661994E+02
 XYY      0.1784125228733E+03
 XYZ      0.8135249057725E+01
 XZZ      0.1700216400146E+03
 YXX     -0.8305927237753E+02
 YXY     -0.2826540098289E+03
 YXZ      0.8257670124927E+02
 YYY      0.1286555642615E+03
 YYZ     -0.2284155844440E+02
 YZZ     -0.4559629188397E+02
 ZXX     -0.7103747784334E+01
 ZXY      0.8567126491107E+02
 ZXZ     -0.3864243270216E+03
 ZYY     -0.2982956056105E+02
 ZYZ      0.1266372078918E+03
 ZZZ      0.3693330834539E+02

 roa end


 Electric Dipole Response Matrix (nonzero elements):

              1        2        3      
    1   10.9549   0.6890   0.5787
    2    0.6890  12.1815  -3.3769
    3    0.5787  -3.3769  16.4129
 
 Imaginary part:

              1        2        3      
    1    0.0239   0.0017  -0.0005
    2    0.0017   0.0310  -0.0134
    3   -0.0005  -0.0134   0.0443

 ------------------------------------------
 average:        13.18311 + I       0.03306


 DFT Linear Response polarizability / au 
 Frequency  =       0.0885580 / au
 Wavelength =     514.5029585 / nm
              X              Y              Z
 -----------------------------------------------
 X      10.9549222      0.6890447      0.5787294
 Y       0.6890447     12.1814745     -3.3769292
 Z       0.5787294     -3.3769292     16.4129385
 -----------------------------------------------
 Eigenvalues =      11.5703727      9.6926673     18.2862951
 Isotropic   =      13.1831117
 Anisotropic =       6.3895704
 -----------------------------------------------
 *************************

 DFT Linear Response IMAG polarizability / au 
 Frequency  =       0.0885580 / au
 Wavelength =     514.5029585 / nm
              X              Y              Z
 -----------------------------------------------
 X       0.0238757      0.0017376     -0.0005057
 Y       0.0017376      0.0310346     -0.0133583
 Z      -0.0005057     -0.0133583      0.0442662
 -----------------------------------------------
 Eigenvalues =       0.0245994      0.0219568      0.0526203
 Isotropic   =       0.0330589
 Anisotropic =       0.0240306
 -----------------------------------------------
 *************************

 Magnetic Dipole Response Matrix (nonzero elements):
 Optical rotation tensor Beta
 (Buckingham-Dunn version including dipole-quadrupole terms)

              1        2        3      
    1    0.1328   0.2098  -1.9977
    2    0.2098   1.4971  -0.0803
    3   -1.9977  -0.0803  -1.5832
 
 Imaginary part:

              1        2        3      
    1    0.0246   0.0398  -0.6666
    2   -0.3922  -1.0562  -1.5068
    3    0.7055   2.7237   1.0581

 ------------------------------------------
 average:         0.01556 + I       0.00882

 Principal components and PAS (Real part)
                 -2.89986
                  1.69396
                  1.25259
 ------------------------
 average:         0.01556

              1        2        3      
    1    0.5506   0.5613   0.6179
    2   -0.0110   0.7451  -0.6669
    3    0.8347  -0.3604  -0.4164

 Chiral response tensor (Real part):

              1        2        3      
    1   -0.0431  -0.1049   0.9988
    2   -0.1049  -0.7252   0.0401
    3    0.9988   0.0401   0.8150
 
 Principal components and PAS (Real part)
                  1.47328
                 -0.82364
                 -0.60295
 ------------------------
 average:         0.01556

              1        2        3      
    1    0.5506   0.5613   0.6179
    2   -0.0110   0.7451  -0.6669
    3    0.8347  -0.3604  -0.4164
 Exiting AOResponse driver routine

 Task  times  cpu:      367.2s     wall:      368.6s
 
 
                                NWChem Input Module
                                -------------------
 
 
 Summary of allocated global arrays
-----------------------------------
  No active global arrays



                         GA Statistics for process    0
                         ------------------------------

       create   destroy   get      put      acc     scatter   gather  read&inc
calls: 2444     2444     6.44e+06 5.32e+06 4.82e+05 1938        0     1953     
number of processes/call 1.00e+00 1.00e+00 1.00e+00 0.00e+00 0.00e+00
bytes total:             1.19e+09 1.67e+08 1.11e+09 5.92e+02 0.00e+00 1.56e+04
bytes remote:            0.00e+00 0.00e+00 0.00e+00 0.00e+00 0.00e+00 0.00e+00
Max memory consumed for GA by this process: 11498464 bytes
 
MA_summarize_allocated_blocks: starting scan ...
MA_summarize_allocated_blocks: scan completed: 0 heap blocks, 0 stack blocks
MA usage statistics:

	allocation statistics:
					      heap	     stack
					      ----	     -----
	current number of blocks	         0	         0
	maximum number of blocks	        24	        52
	current total bytes		         0	         0
	maximum total bytes		  20676928	  42215048
	maximum total K-bytes		     20677	     42216
	maximum total M-bytes		        21	        43
 
 
                                     CITATION
                                     --------
                Please cite the following reference when publishing
                           results obtained with NWChem:
 
                 M. Valiev, E.J. Bylaska, N. Govind, K. Kowalski,
              T.P. Straatsma, H.J.J. van Dam, D. Wang, J. Nieplocha,
                        E. Apra, T.L. Windus, W.A. de Jong
                 "NWChem: a comprehensive and scalable open-source
                  solution for large scale molecular simulations"
                      Comput. Phys. Commun. 181, 1477 (2010)
                           doi:10.1016/j.cpc.2010.04.018
 
                                      AUTHORS
                                      -------
          E. Apra, E. J. Bylaska, W. A. de Jong, N. Govind, K. Kowalski,
       T. P. Straatsma, M. Valiev, H. J. J. van Dam, D. Wang, T. L. Windus,
        J. Hammond, J. Autschbach, K. Bhaskaran-Nair, J. Brabec, K. Lopata,
    S. A. Fischer, S. Krishnamoorthy, M. Jacquelin, W. Ma, M. Klemm, O. Villa,
      Y. Chen, V. Anisimov, F. Aquino, S. Hirata, M. T. Hackler, V. Konjkov,
            D. Mejia-Rodriguez, T. Risthaus, M. Malagoli, A. Marenich,
   A. Otero-de-la-Roza, J. Mullin, P. Nichols, R. Peverati, J. Pittner, Y. Zhao,
        P.-D. Fan, A. Fonari, M. J. Williamson, R. J. Harrison, J. R. Rehr,
      M. Dupuis, D. Silverstein, D. M. A. Smith, J. Nieplocha, V. Tipparaju,
    M. Krishnan, B. E. Van Kuiken, A. Vazquez-Mayagoitia, L. Jensen, M. Swart,
      Q. Wu, T. Van Voorhis, A. A. Auer, M. Nooijen, L. D. Crosby, E. Brown,
      G. Cisneros, G. I. Fann, H. Fruchtl, J. Garza, K. Hirao, R. A. Kendall,
      J. A. Nichols, K. Tsemekhman, K. Wolinski, J. Anchell, D. E. Bernholdt,
      P. Borowski, T. Clark, D. Clerc, H. Dachsel, M. J. O. Deegan, K. Dyall,
    D. Elwood, E. Glendening, M. Gutowski, A. C. Hess, J. Jaffe, B. G. Johnson,
     J. Ju, R. Kobayashi, R. Kutteh, Z. Lin, R. Littlefield, X. Long, B. Meng,
      T. Nakajima, S. Niu, L. Pollack, M. Rosing, K. Glaesemann, G. Sandrone,
      M. Stave, H. Taylor, G. Thomas, J. H. van Lenthe, A. T. Wong, Z. Zhang.

 Total times  cpu:      408.2s     wall:      410.9s
