 argument  1 = h2o2_514.5_06.inp
 


============================== echo of input deck ==============================
echo
start h2o2_514.5_06.inp
title "h2o2 roa calculations at 514.5 nm, input generated by va with delta_type=2"
charge 0



geometry units angstrom nocenter noautoz noautosym nucleus point;symmetry c1
 O -8.055206  3.049524 -0.529423
 O -8.433390  2.112659  0.567925
 H -8.923767  3.228382 -0.888569
 H -8.133504  2.625926  1.322699
end

basis spherical
* library def2-TZVP
end

 set prop:newaoresp 1
 set aor:roadata T
 set cphf:maxsub 100
 set cphf:acc 1.0d-10
 set cphf:maxiter 100

property
    response 1   0.088558
    bdtensor
    convergence 1e-9
    damping 0.0037
    giao
end

dft
 direct
 mult 1
 xc becke88 lyp
 iterations 250
 tolerances tight
 grid xfine
 convergence nolevelshifting
 convergence energy 1e-8
 convergence gradient 1e-8


end

task dft gradient
task dft property
================================================================================


                                         
                                         
 
 
              Northwest Computational Chemistry Package (NWChem) 6.8
              ------------------------------------------------------
 
 
                    Environmental Molecular Sciences Laboratory
                       Pacific Northwest National Laboratory
                                Richland, WA 99352
 
                              Copyright (c) 1994-2017
                       Pacific Northwest National Laboratory
                            Battelle Memorial Institute
 
             NWChem is an open-source computational chemistry package
                        distributed under the terms of the
                      Educational Community License (ECL) 2.0
             A copy of the license is included with this distribution
                              in the LICENSE.TXT file
 
                                  ACKNOWLEDGMENT
                                  --------------

            This software and its documentation were developed at the
            EMSL at Pacific Northwest National Laboratory, a multiprogram
            national laboratory, operated for the U.S. Department of Energy
            by Battelle under Contract Number DE-AC05-76RL01830. Support
            for this work was provided by the Department of Energy Office
            of Biological and Environmental Research, Office of Basic
            Energy Sciences, and the Office of Advanced Scientific Computing.


           Job information
           ---------------

    hostname        = cpn-f11-18-01.cbls.ccr.buffalo.edu
    program         = /util/academic/nwchem/nwchem-6.8/bin/LINUX64/nwchem
    date            = Thu Feb 28 18:48:56 2019

    compiled        = Tue_Nov_06_14:59:08_2018
    source          = /util/academic/nwchem/nwchem-6.8
    nwchem branch   = 6.8
    nwchem revision = v6.8-47-gdf6c956
    ga revision     = ga-5.6.3
    use scalapack   = F
    input           = h2o2_514.5_06.inp
    prefix          = h2o2_514.5_06.inp.
    data base       = ./h2o2_514.5_06.inp.db
    status          = startup
    nproc           =        1
    time left       =     -1s



           Memory information
           ------------------

    heap     =   13107200 doubles =    100.0 Mbytes
    stack    =   13107197 doubles =    100.0 Mbytes
    global   =   26214400 doubles =    200.0 Mbytes (distinct from heap & stack)
    total    =   52428797 doubles =    400.0 Mbytes
    verify   = yes
    hardfail = no 


           Directory information
           ---------------------
 
  0 permanent = .
  0 scratch   = .
 
 
 
 
                                NWChem Input Module
                                -------------------
 
 
                         h2o2 roa calculations at 514.5 nm, input generated by va with delta_type=2
                         ---------------------------------

 Scaling coordinates for geometry "geometry" by  1.889725989
 (inverse scale =  0.529177249)

 
 
                             Geometry "geometry" -> ""
                             -------------------------
 
 Output coordinates in angstroms (scale by  1.889725989 to convert to a.u.)
 
  No.       Tag          Charge          X              Y              Z
 ---- ---------------- ---------- -------------- -------------- --------------
    1 O                    8.0000    -8.05520600     3.04952400    -0.52942300
    2 O                    8.0000    -8.43339000     2.11265900     0.56792500
    3 H                    1.0000    -8.92376700     3.22838200    -0.88856900
    4 H                    1.0000    -8.13350400     2.62592600     1.32269900
 
      Atomic Mass 
      ----------- 
 
      O                 15.994910
      H                  1.007825
 

 Effective nuclear repulsion energy (a.u.)      36.2099858714

            Nuclear Dipole moment (a.u.) 
            ----------------------------
        X                 Y               Z
 ---------------- ---------------- ----------------
  -281.5049953141    89.1039289560     1.4024525835
 
 
            XYZ format geometry
            -------------------
     4
 geometry
 O                    -8.05520600     3.04952400    -0.52942300
 O                    -8.43339000     2.11265900     0.56792500
 H                    -8.92376700     3.22838200    -0.88856900
 H                    -8.13350400     2.62592600     1.32269900
 
 ==============================================================================
                                internuclear distances
 ------------------------------------------------------------------------------
       center one      |      center two      | atomic units |  angstroms
 ------------------------------------------------------------------------------
    3 H                |   1 O                |     1.80800  |     0.95675
    4 H                |   2 O                |     1.81557  |     0.96076
 ------------------------------------------------------------------------------
                         number of included internuclear distances:          2
 ==============================================================================



  warning:::::::::::::: from_environment
  NWCHEM_BASIS_LIBRARY set to: <
 /util/academic/nwchem/nwchem-6.8/src/basis/libraries>
  but file does not exist !
  using .nwchemrc or compiled library


 Summary of "ao basis" -> "" (spherical)
 ------------------------------------------------------------------------------
       Tag                 Description            Shells   Functions and Types
 ---------------- ------------------------------  ------  ---------------------
 *                         def2-TZVP                  on all atoms 


 
                                 NWChem DFT Module
                                 -----------------
 
 
                         h2o2 roa calculations at 514.5 nm, input generated by va with delta_type=2
 
 
                      Basis "ao basis" -> "ao basis" (spherical)
                      -----
  O (Oxygen)
  ----------
            Exponent  Coefficients 
       -------------- ---------------------------------------------------------
  1 S  2.70323826E+04  0.000217
  1 S  4.05238714E+03  0.001684
  1 S  9.22327227E+02  0.008740
  1 S  2.61240710E+02  0.035240
  1 S  8.53546414E+01  0.111535
  1 S  3.10350352E+01  0.255890
 
  2 S  1.22608607E+01  0.397687
  2 S  4.99870760E+00  0.246278
 
  3 S  1.17031082E+00  1.000000
 
  4 S  4.64747410E-01  1.000000
 
  5 S  1.85045364E-01  1.000000
 
  6 P  6.32749548E+01  0.006069
  6 P  1.46270494E+01  0.041913
  6 P  4.45012235E+00  0.161538
  6 P  1.52757996E+00  0.357070
 
  7 P  5.29351179E-01  1.000000
 
  8 P  1.74784213E-01  1.000000
 
  9 D  2.31400000E+00  1.000000
 
 10 D  6.45000000E-01  1.000000
 
 11 F  1.42800000E+00  1.000000
 
  H (Hydrogen)
  ------------
            Exponent  Coefficients 
       -------------- ---------------------------------------------------------
  1 S  3.40613410E+01  0.006025
  1 S  5.12357460E+00  0.045021
  1 S  1.16466260E+00  0.201897
 
  2 S  3.27230410E-01  1.000000
 
  3 S  1.03072410E-01  1.000000
 
  4 P  8.00000000E-01  1.000000
 


 Summary of "ao basis" -> "ao basis" (spherical)
 ------------------------------------------------------------------------------
       Tag                 Description            Shells   Functions and Types
 ---------------- ------------------------------  ------  ---------------------
 O                         def2-TZVP                11       31   5s3p2d1f
 H                         def2-TZVP                 4        6   3s1p




 Summary of "ao basis" -> "ao basis" (spherical)
 ------------------------------------------------------------------------------
       Tag                 Description            Shells   Functions and Types
 ---------------- ------------------------------  ------  ---------------------
 O                         def2-TZVP                11       31   5s3p2d1f
 H                         def2-TZVP                 4        6   3s1p


  Caching 1-el integrals 
  itol2e modified to match energy
  convergence criterion.
  tol_rho modified to match energy
  convergence criterion.
 
            General Information
            -------------------
          SCF calculation type: DFT
          Wavefunction type:  closed shell.
          No. of atoms     :     4
          No. of electrons :    18
           Alpha electrons :     9
            Beta electrons :     9
          Charge           :     0
          Spin multiplicity:     1
          Use of symmetry is: off; symmetry adaption is: off
          Maximum number of iterations: 250
          This is a Direct SCF calculation.
          AO basis - number of functions:    74
                     number of shells:    30
          Convergence on energy requested:  1.00D-08
          Convergence on density requested:  1.00D-05
          Convergence on gradient requested:  1.00D-08
 
              XC Information
              --------------
                    Becke 1988 Exchange Functional  1.000          
              Lee-Yang-Parr Correlation Functional  1.000          
 
             Grid Information
             ----------------
          Grid used for XC integration:  xfine     
          Radial quadrature: Mura-Knowles        
          Angular quadrature: Lebedev. 
          Tag              B.-S. Rad. Rad. Pts. Rad. Cut. Ang. Pts.
          ---              ---------- --------- --------- ---------
          O                   0.60      100           8.0      1454
          H                   0.35      100           9.0      1202
          Grid pruning is: on 
          Number of quadrature shells:   400
          Spatial weights used:  Erf1
 
          Convergence Information
          -----------------------
          Convergence aids based upon iterative change in 
          total energy or number of iterations. 
          Levelshifting, if invoked, occurs when the 
          HOMO/LUMO gap drops below (HL_TOL):  1.00D-02
          DIIS, if invoked, will attempt to extrapolate 
          using up to (NFOCK): 10 stored Fock matrices.

                    Damping( 0%)  Levelshifting(0.0)       DIIS
                  --------------- ------------------- ---------------
          dE  on:    start             N/A                start   
          dE off:    2 iters           N/A              250 iters 

 
      Screening Tolerance Information
      -------------------------------
          Density screening/tol_rho:  1.00D-11
          AO Gaussian exp screening on grid/accAOfunc:  18
          CD Gaussian exp screening on grid/accCDfunc:  20
          XC Gaussian exp screening on grid/accXCfunc:  20
          Schwarz screening/accCoul:  1.00D-09

 
      Superposition of Atomic Density Guess
      -------------------------------------
 
 Sum of atomic energies:        -150.56823290
 
      Non-variational initial energy
      ------------------------------

 Total energy =    -150.694834
 1-e energy   =    -278.908181
 2-e energy   =      92.003362
 HOMO         =      -0.363249
 LUMO         =      -0.048936
 
   Time after variat. SCF:      1.3
   Time prior to 1st pass:      1.3

 Grid_pts file          = ./h2o2_514.5_06.inp.gridpts.0
 Record size in doubles =  12289        No. of grid_pts per rec  =   3070
 Max. records in memory =    210        Max. recs in file   =   1293931


           Memory utilization after 1st SCF pass: 
           Heap Space remaining (MW):       10.52            10522928
          Stack Space remaining (MW):       13.11            13106668

   convergence    iter        energy       DeltaE   RMS-Dens  Diis-err    time
 ---------------- ----- ----------------- --------- --------- ---------  ------
 d= 0,ls=0.0,diis     1   -151.5600669893 -1.88D+02  7.23D-03  6.75D-01     5.1
 d= 0,ls=0.0,diis     2   -151.5947425585 -3.47D-02  2.46D-03  5.77D-02     8.6
 d= 0,ls=0.0,diis     3   -151.5993071396 -4.56D-03  8.96D-04  1.26D-02    12.0
 d= 0,ls=0.0,diis     4   -151.6001451774 -8.38D-04  3.38D-04  3.17D-03    15.4
 d= 0,ls=0.0,diis     5   -151.6003898299 -2.45D-04  9.90D-05  2.74D-04    18.8
 d= 0,ls=0.0,diis     6   -151.6004080563 -1.82D-05  4.13D-05  7.02D-05    22.3
 d= 0,ls=0.0,diis     7   -151.6004143494 -6.29D-06  3.25D-06  3.25D-07    25.7
 d= 0,ls=0.0,diis     8   -151.6004143777 -2.84D-08  7.27D-07  4.80D-09    29.1
 d= 0,ls=0.0,diis     9   -151.6004143782 -4.09D-10  1.79D-07  3.32D-10    32.6


         Total DFT energy =     -151.600414378156
      One electron energy =     -280.228417371263
           Coulomb energy =      110.248150510448
    Exchange-Corr. energy =      -17.830133388774
 Nuclear repulsion energy =       36.209985871433

 Numeric. integr. density =       17.999999997221

     Total iterative time =     31.3s


 
                       DFT Final Molecular Orbital Analysis
                       ------------------------------------
 
 Vector    1  Occ=2.000000D+00  E=-1.883108D+01
              MO Center= -8.4D+00,  2.1D+00,  5.7D-01, r^2= 1.7D-02
   Bfn.  Coefficient  Atom+Function         Bfn.  Coefficient  Atom+Function  
  ----- ------------  ---------------      ----- ------------  ---------------
    33      0.638459  2 O  s                 32      0.435191  2 O  s          
    34      0.037187  2 O  s                 35     -0.025182  2 O  s          
 
 Vector    2  Occ=2.000000D+00  E=-1.883065D+01
              MO Center= -8.1D+00,  3.0D+00, -5.3D-01, r^2= 1.7D-02
   Bfn.  Coefficient  Atom+Function         Bfn.  Coefficient  Atom+Function  
  ----- ------------  ---------------      ----- ------------  ---------------
     2      0.638466  1 O  s                  1      0.435189  1 O  s          
     3      0.037105  1 O  s                  4     -0.025030  1 O  s          
 
 Vector    3  Occ=2.000000D+00  E=-1.012257D+00
              MO Center= -8.3D+00,  2.6D+00,  5.1D-02, r^2= 8.2D-01
   Bfn.  Coefficient  Atom+Function         Bfn.  Coefficient  Atom+Function  
  ----- ------------  ---------------      ----- ------------  ---------------
     4      0.311213  1 O  s                 35      0.310112  2 O  s          
     3      0.239588  1 O  s                 34      0.238440  2 O  s          
     2     -0.163176  1 O  s                 33     -0.162426  2 O  s          
     5      0.095639  1 O  s                 36      0.095280  2 O  s          
    38      0.072131  2 O  py                 1     -0.070103  1 O  s          
 
 Vector    4  Occ=2.000000D+00  E=-8.264303D-01
              MO Center= -8.3D+00,  2.7D+00,  7.5D-02, r^2= 1.3D+00
   Bfn.  Coefficient  Atom+Function         Bfn.  Coefficient  Atom+Function  
  ----- ------------  ---------------      ----- ------------  ---------------
    35     -0.323990  2 O  s                  4      0.321742  1 O  s          
    34     -0.253549  2 O  s                  3      0.252277  1 O  s          
    33      0.166844  2 O  s                  2     -0.165942  1 O  s          
    36     -0.138129  2 O  s                  5      0.137186  1 O  s          
    63      0.094842  3 H  s                 69     -0.094252  4 H  s          
 
 Vector    5  Occ=2.000000D+00  E=-4.778582D-01
              MO Center= -8.3D+00,  2.6D+00,  5.7D-02, r^2= 1.2D+00
   Bfn.  Coefficient  Atom+Function         Bfn.  Coefficient  Atom+Function  
  ----- ------------  ---------------      ----- ------------  ---------------
    39      0.310819  2 O  pz                42      0.241959  2 O  pz         
     7      0.207014  1 O  py                 8     -0.200826  1 O  pz         
    10      0.166286  1 O  py                11     -0.158063  1 O  pz         
    64      0.131373  3 H  s                 70      0.130489  4 H  s          
     6     -0.124933  1 O  px                45      0.109931  2 O  pz         
 
 Vector    6  Occ=2.000000D+00  E=-4.345617D-01
              MO Center= -8.3D+00,  2.6D+00,  3.7D-02, r^2= 1.3D+00
   Bfn.  Coefficient  Atom+Function         Bfn.  Coefficient  Atom+Function  
  ----- ------------  ---------------      ----- ------------  ---------------
     6      0.254483  1 O  px                 9      0.188070  1 O  px         
    37      0.176821  2 O  px                 4      0.159352  1 O  s          
    35     -0.158796  2 O  s                  5      0.157467  1 O  s          
    36     -0.157012  2 O  s                 39      0.155585  2 O  pz         
    38      0.152655  2 O  py                40      0.136251  2 O  px         
 
 Vector    7  Occ=2.000000D+00  E=-3.663854D-01
              MO Center= -8.2D+00,  2.5D+00, -2.1D-02, r^2= 1.3D+00
   Bfn.  Coefficient  Atom+Function         Bfn.  Coefficient  Atom+Function  
  ----- ------------  ---------------      ----- ------------  ---------------
    38      0.318793  2 O  py                41      0.249156  2 O  py         
     6     -0.238416  1 O  px                 8      0.216182  1 O  pz         
     9     -0.181876  1 O  px                11      0.175318  1 O  pz         
    44      0.165159  2 O  py                 5     -0.131359  1 O  s          
    36     -0.131313  2 O  s                 14      0.119820  1 O  pz         
 
 Vector    8  Occ=2.000000D+00  E=-2.770326D-01
              MO Center= -8.3D+00,  2.6D+00,  5.4D-02, r^2= 1.3D+00
   Bfn.  Coefficient  Atom+Function         Bfn.  Coefficient  Atom+Function  
  ----- ------------  ---------------      ----- ------------  ---------------
    37      0.344607  2 O  px                 7     -0.270354  1 O  py         
    40      0.267954  2 O  px                10     -0.217003  1 O  py         
    43      0.213964  2 O  px                13     -0.172085  1 O  py         
     8     -0.158307  1 O  pz                 6     -0.149872  1 O  px         
     5     -0.121949  1 O  s                 36     -0.121946  2 O  s          
 
 Vector    9  Occ=2.000000D+00  E=-2.321695D-01
              MO Center= -8.2D+00,  2.6D+00,  6.9D-03, r^2= 1.2D+00
   Bfn.  Coefficient  Atom+Function         Bfn.  Coefficient  Atom+Function  
  ----- ------------  ---------------      ----- ------------  ---------------
    37      0.282091  2 O  px                 7      0.274600  1 O  py         
    40      0.223012  2 O  px                38     -0.217091  2 O  py         
    10      0.214274  1 O  py                43      0.205073  2 O  px         
     8      0.203453  1 O  pz                13      0.188959  1 O  py         
    41     -0.165731  2 O  py                11      0.160946  1 O  pz         
 
 Vector   10  Occ=0.000000D+00  E=-6.127415D-02
              MO Center= -8.3D+00,  2.6D+00,  4.9D-02, r^2= 1.7D+00
   Bfn.  Coefficient  Atom+Function         Bfn.  Coefficient  Atom+Function  
  ----- ------------  ---------------      ----- ------------  ---------------
     5      0.497314  1 O  s                 36     -0.498303  2 O  s          
    44     -0.323787  2 O  py                14      0.300792  1 O  pz         
    13     -0.286574  1 O  py                71      0.284240  4 H  s          
    65     -0.281674  3 H  s                 45      0.279055  2 O  pz         
     8      0.264828  1 O  pz                38     -0.255152  2 O  py         
 
 Vector   11  Occ=0.000000D+00  E= 1.260605D-04
              MO Center= -8.6D+00,  3.0D+00,  3.1D-01, r^2= 4.3D+00
   Bfn.  Coefficient  Atom+Function         Bfn.  Coefficient  Atom+Function  
  ----- ------------  ---------------      ----- ------------  ---------------
    71      1.032206  4 H  s                 65      1.014224  3 H  s          
    36     -0.670516  2 O  s                  5     -0.666702  1 O  s          
    12      0.257469  1 O  px                45     -0.241602  2 O  pz         
    44     -0.147145  2 O  py                39     -0.128871  2 O  pz         
     3     -0.124432  1 O  s                 34     -0.124688  2 O  s          
 
 Vector   12  Occ=0.000000D+00  E= 4.483169D-02
              MO Center= -8.6D+00,  3.0D+00,  2.4D-01, r^2= 4.4D+00
   Bfn.  Coefficient  Atom+Function         Bfn.  Coefficient  Atom+Function  
  ----- ------------  ---------------      ----- ------------  ---------------
    65      1.249343  3 H  s                 71     -1.221831  4 H  s          
     5     -0.457420  1 O  s                 45      0.445604  2 O  pz         
    36      0.437994  2 O  s                 14      0.309602  1 O  pz         
    12      0.261914  1 O  px                39      0.231917  2 O  pz         
    13     -0.208004  1 O  py                 8      0.169623  1 O  pz         
 
 Vector   13  Occ=0.000000D+00  E= 3.446391D-01
              MO Center= -8.3D+00,  2.7D+00,  2.8D-01, r^2= 3.7D+00
   Bfn.  Coefficient  Atom+Function         Bfn.  Coefficient  Atom+Function  
  ----- ------------  ---------------      ----- ------------  ---------------
    70      1.374479  4 H  s                 64      1.030234  3 H  s          
    71     -0.698686  4 H  s                 45     -0.677374  2 O  pz         
    14      0.609528  1 O  pz                65     -0.513833  3 H  s          
    35     -0.385202  2 O  s                 41     -0.360767  2 O  py         
     9      0.350433  1 O  px                13     -0.320691  1 O  py         
 
 Vector   14  Occ=0.000000D+00  E= 3.484688D-01
              MO Center= -8.2D+00,  2.5D+00, -1.8D-02, r^2= 3.5D+00
   Bfn.  Coefficient  Atom+Function         Bfn.  Coefficient  Atom+Function  
  ----- ------------  ---------------      ----- ------------  ---------------
    64     -1.148642  3 H  s                  5      1.087881  1 O  s          
    44     -1.051770  2 O  py                36     -1.039786  2 O  s          
    12     -0.927348  1 O  px                70      0.917653  4 H  s          
    13     -0.718796  1 O  py                43     -0.651182  2 O  px         
    65      0.537589  3 H  s                 14      0.453923  1 O  pz         
 
 Vector   15  Occ=0.000000D+00  E= 3.554564D-01
              MO Center= -8.4D+00,  2.9D+00, -1.3D-02, r^2= 3.7D+00
   Bfn.  Coefficient  Atom+Function         Bfn.  Coefficient  Atom+Function  
  ----- ------------  ---------------      ----- ------------  ---------------
    64      1.312015  3 H  s                 70     -1.147144  4 H  s          
    45      0.662204  2 O  pz                65     -0.652074  3 H  s          
    13     -0.624348  1 O  py                71      0.584115  4 H  s          
    14      0.570696  1 O  pz                 9      0.428287  1 O  px         
    41      0.321880  2 O  py                44     -0.257678  2 O  py         
 
 Vector   16  Occ=0.000000D+00  E= 3.722195D-01
              MO Center= -8.0D+00,  2.3D+00, -1.4D-01, r^2= 2.6D+00
   Bfn.  Coefficient  Atom+Function         Bfn.  Coefficient  Atom+Function  
  ----- ------------  ---------------      ----- ------------  ---------------
    44     -0.614474  2 O  py                12      0.565831  1 O  px         
     4     -0.462070  1 O  s                 35     -0.462175  2 O  s          
    13     -0.430971  1 O  py                64      0.342602  3 H  s          
    70      0.337547  4 H  s                 45     -0.324788  2 O  pz         
    36      0.315647  2 O  s                  5      0.309358  1 O  s          
 
 Vector   17  Occ=0.000000D+00  E= 4.140367D-01
              MO Center= -8.3D+00,  2.6D+00,  4.2D-02, r^2= 3.0D+00
   Bfn.  Coefficient  Atom+Function         Bfn.  Coefficient  Atom+Function  
  ----- ------------  ---------------      ----- ------------  ---------------
    45      0.847501  2 O  pz                14     -0.836575  1 O  pz         
    12     -0.768184  1 O  px                43      0.768439  2 O  px         
    11      0.364017  1 O  pz                35      0.349144  2 O  s          
    42     -0.350843  2 O  pz                 4      0.342778  1 O  s          
    40     -0.295510  2 O  px                 9      0.282146  1 O  px         
 
 Vector   18  Occ=0.000000D+00  E= 4.423200D-01
              MO Center= -8.2D+00,  2.6D+00,  2.3D-02, r^2= 3.5D+00
   Bfn.  Coefficient  Atom+Function         Bfn.  Coefficient  Atom+Function  
  ----- ------------  ---------------      ----- ------------  ---------------
    44      1.237657  2 O  py                14     -1.011874  1 O  pz         
     5     -0.900983  1 O  s                 36      0.892664  2 O  s          
    12      0.807870  1 O  px                43     -0.636191  2 O  px         
    13     -0.512327  1 O  py                64      0.448057  3 H  s          
    70     -0.445483  4 H  s                 40      0.362999  2 O  px         
 
 Vector   19  Occ=0.000000D+00  E= 4.691749D-01
              MO Center= -8.3D+00,  2.7D+00,  9.7D-02, r^2= 4.0D+00
   Bfn.  Coefficient  Atom+Function         Bfn.  Coefficient  Atom+Function  
  ----- ------------  ---------------      ----- ------------  ---------------
    36      0.956456  2 O  s                  5      0.925587  1 O  s          
    71     -0.843233  4 H  s                 65     -0.829176  3 H  s          
    64      0.774994  3 H  s                 13      0.746114  1 O  py         
    70      0.745514  4 H  s                 43     -0.663946  2 O  px         
     4     -0.628121  1 O  s                 35     -0.630366  2 O  s          
 
 Vector   20  Occ=0.000000D+00  E= 5.247867D-01
              MO Center= -8.4D+00,  2.7D+00,  8.7D-02, r^2= 4.0D+00
   Bfn.  Coefficient  Atom+Function         Bfn.  Coefficient  Atom+Function  
  ----- ------------  ---------------      ----- ------------  ---------------
    45      1.539588  2 O  pz                65      1.419122  3 H  s          
    71     -1.398948  4 H  s                  5     -1.060306  1 O  s          
    36      1.042702  2 O  s                 12      1.030829  1 O  px         
    14      0.965108  1 O  pz                13     -0.713126  1 O  py         
     4      0.564520  1 O  s                 35     -0.553258  2 O  s          
 
 Vector   21  Occ=0.000000D+00  E= 5.879792D-01
              MO Center= -8.4D+00,  2.8D+00,  1.4D-01, r^2= 3.0D+00
   Bfn.  Coefficient  Atom+Function         Bfn.  Coefficient  Atom+Function  
  ----- ------------  ---------------      ----- ------------  ---------------
     5      2.588432  1 O  s                 36      2.566797  2 O  s          
     4     -1.464032  1 O  s                 35     -1.461784  2 O  s          
    12     -1.367649  1 O  px                64     -1.080968  3 H  s          
    70     -1.072601  4 H  s                 44      0.904908  2 O  py         
    65     -0.886481  3 H  s                 71     -0.873831  4 H  s          
 
 Vector   22  Occ=0.000000D+00  E= 6.680254D-01
              MO Center= -8.2D+00,  2.5D+00, -3.9D-02, r^2= 3.0D+00
   Bfn.  Coefficient  Atom+Function         Bfn.  Coefficient  Atom+Function  
  ----- ------------  ---------------      ----- ------------  ---------------
     5      5.587793  1 O  s                 36     -5.588020  2 O  s          
     4     -1.803756  1 O  s                 35      1.809111  2 O  s          
    14      1.722389  1 O  pz                44     -1.713225  2 O  py         
    45      1.628286  2 O  pz                13     -1.547376  1 O  py         
    64     -0.917762  3 H  s                 70      0.915106  4 H  s          
 
 Vector   23  Occ=0.000000D+00  E= 1.013253D+00
              MO Center= -8.3D+00,  2.7D+00,  9.2D-02, r^2= 1.5D+00
   Bfn.  Coefficient  Atom+Function         Bfn.  Coefficient  Atom+Function  
  ----- ------------  ---------------      ----- ------------  ---------------
    64     -0.346277  3 H  s                 70      0.339653  4 H  s          
    22      0.322723  1 O  d  0              68     -0.317314  3 H  pz         
    53     -0.285412  2 O  d  0              74     -0.265687  4 H  pz         
    23     -0.253109  1 O  d  1              54      0.252195  2 O  d  1       
    51      0.217754  2 O  d -2              73      0.217299  4 H  py         
 
 Vector   24  Occ=0.000000D+00  E= 1.081566D+00
              MO Center= -8.3D+00,  2.7D+00,  6.4D-02, r^2= 1.5D+00
   Bfn.  Coefficient  Atom+Function         Bfn.  Coefficient  Atom+Function  
  ----- ------------  ---------------      ----- ------------  ---------------
    54      0.343364  2 O  d  1              67      0.335808  3 H  py         
    20     -0.302576  1 O  d -2              22     -0.284481  1 O  d  0       
    72     -0.268506  4 H  px                52      0.238546  2 O  d -1       
    64     -0.239109  3 H  s                 70     -0.234135  4 H  s          
    74      0.205219  4 H  pz                53      0.198887  2 O  d  0       
 
 Vector   25  Occ=0.000000D+00  E= 1.186248D+00
              MO Center= -8.3D+00,  2.6D+00,  5.8D-02, r^2= 1.5D+00
   Bfn.  Coefficient  Atom+Function         Bfn.  Coefficient  Atom+Function  
  ----- ------------  ---------------      ----- ------------  ---------------
    55     -0.443723  2 O  d  2              23      0.426827  1 O  d  1       
     5     -0.370351  1 O  s                 36     -0.361969  2 O  s          
    64      0.246029  3 H  s                 70      0.241910  4 H  s          
    24      0.233852  1 O  d  2              68      0.233801  3 H  pz         
    12      0.230798  1 O  px                44     -0.229208  2 O  py         
 
 Vector   26  Occ=0.000000D+00  E= 1.228867D+00
              MO Center= -8.4D+00,  2.7D+00,  9.6D-02, r^2= 1.7D+00
   Bfn.  Coefficient  Atom+Function         Bfn.  Coefficient  Atom+Function  
  ----- ------------  ---------------      ----- ------------  ---------------
     5      0.627250  1 O  s                 36     -0.629159  2 O  s          
    72      0.404005  4 H  px                20     -0.383805  1 O  d -2       
    67      0.354385  3 H  py                43     -0.252216  2 O  px         
    51      0.250330  2 O  d -2              55      0.237828  2 O  d  2       
    68      0.236787  3 H  pz                13     -0.229662  1 O  py         
 
 Vector   27  Occ=0.000000D+00  E= 1.508750D+00
              MO Center= -8.4D+00,  2.8D+00,  1.3D-02, r^2= 2.5D+00
   Bfn.  Coefficient  Atom+Function         Bfn.  Coefficient  Atom+Function  
  ----- ------------  ---------------      ----- ------------  ---------------
    64      2.367104  3 H  s                 70      2.027775  4 H  s          
     4     -0.774565  1 O  s                 12      0.740595  1 O  px         
    35     -0.688117  2 O  s                 45     -0.683438  2 O  pz         
     5     -0.646367  1 O  s                 52     -0.609565  2 O  d -1       
    24     -0.581658  1 O  d  2               9      0.577995  1 O  px         
 
 Vector   28  Occ=0.000000D+00  E= 1.524743D+00
              MO Center= -8.4D+00,  2.7D+00,  2.2D-01, r^2= 2.5D+00
   Bfn.  Coefficient  Atom+Function         Bfn.  Coefficient  Atom+Function  
  ----- ------------  ---------------      ----- ------------  ---------------
    70      2.456929  4 H  s                 64     -2.204955  3 H  s          
    36     -1.324465  2 O  s                  5      1.264191  1 O  s          
    12     -0.707045  1 O  px                44     -0.639150  2 O  py         
    24      0.615461  1 O  d  2              52     -0.596699  2 O  d -1       
    35     -0.475381  2 O  s                 42     -0.465672  2 O  pz         
 
 Vector   29  Occ=0.000000D+00  E= 1.606876D+00
              MO Center= -8.4D+00,  2.7D+00,  9.6D-02, r^2= 1.7D+00
   Bfn.  Coefficient  Atom+Function         Bfn.  Coefficient  Atom+Function  
  ----- ------------  ---------------      ----- ------------  ---------------
    51     -0.408799  2 O  d -2              73     -0.404427  4 H  py         
    21      0.379582  1 O  d -1              68     -0.373865  3 H  pz         
    54     -0.315910  2 O  d  1              12      0.303061  1 O  px         
    22      0.270634  1 O  d  0              43     -0.271398  2 O  px         
    45     -0.266979  2 O  pz                74      0.265798  4 H  pz         
 
 Vector   30  Occ=0.000000D+00  E= 1.647822D+00
              MO Center= -8.3D+00,  2.6D+00,  6.1D-02, r^2= 1.6D+00
   Bfn.  Coefficient  Atom+Function         Bfn.  Coefficient  Atom+Function  
  ----- ------------  ---------------      ----- ------------  ---------------
    64      0.760462  3 H  s                 70      0.747868  4 H  s          
    21      0.548394  1 O  d -1              36     -0.497281  2 O  s          
     5     -0.490359  1 O  s                 53     -0.464509  2 O  d  0       
    44     -0.378705  2 O  py                55      0.379192  2 O  d  2       
    24     -0.361709  1 O  d  2              12      0.325527  1 O  px         
 
 Vector   31  Occ=0.000000D+00  E= 1.749327D+00
              MO Center= -8.3D+00,  2.7D+00,  8.6D-02, r^2= 1.8D+00
   Bfn.  Coefficient  Atom+Function         Bfn.  Coefficient  Atom+Function  
  ----- ------------  ---------------      ----- ------------  ---------------
     5      1.186287  1 O  s                 36     -1.180497  2 O  s          
    13     -0.625240  1 O  py                45      0.549319  2 O  pz         
    22     -0.493489  1 O  d  0              51     -0.477737  2 O  d -2       
    14      0.396460  1 O  pz                73      0.394776  4 H  py         
    43     -0.380089  2 O  px                54     -0.357345  2 O  d  1       
 
 Vector   32  Occ=0.000000D+00  E= 1.844653D+00
              MO Center= -8.3D+00,  2.7D+00,  6.8D-02, r^2= 2.2D+00
   Bfn.  Coefficient  Atom+Function         Bfn.  Coefficient  Atom+Function  
  ----- ------------  ---------------      ----- ------------  ---------------
     5      2.292737  1 O  s                 36     -2.285454  2 O  s          
     4     -1.230353  1 O  s                 35      1.212675  2 O  s          
    44     -1.019240  2 O  py                14      0.878476  1 O  pz         
    64      0.741990  3 H  s                 70     -0.736718  4 H  s          
     9      0.642552  1 O  px                12     -0.633519  1 O  px         
 
 Vector   33  Occ=0.000000D+00  E= 1.966683D+00
              MO Center= -8.4D+00,  2.8D+00,  1.7D-01, r^2= 1.9D+00
   Bfn.  Coefficient  Atom+Function         Bfn.  Coefficient  Atom+Function  
  ----- ------------  ---------------      ----- ------------  ---------------
    64      0.774437  3 H  s                 72     -0.762593  4 H  px         
    70      0.756945  4 H  s                 68      0.514957  3 H  pz         
    67      0.506852  3 H  py                 4     -0.452386  1 O  s          
    35     -0.453471  2 O  s                 20      0.445919  1 O  d -2       
     9      0.426490  1 O  px                42     -0.417781  2 O  pz         
 
 Vector   34  Occ=0.000000D+00  E= 2.026745D+00
              MO Center= -8.3D+00,  2.7D+00,  3.8D-02, r^2= 1.9D+00
   Bfn.  Coefficient  Atom+Function         Bfn.  Coefficient  Atom+Function  
  ----- ------------  ---------------      ----- ------------  ---------------
     5      1.144803  1 O  s                 36     -1.143808  2 O  s          
    70      0.682564  4 H  s                 64     -0.641717  3 H  s          
    67      0.644416  3 H  py                20      0.625533  1 O  d -2       
    13     -0.521755  1 O  py                72      0.518155  4 H  px         
    44     -0.500060  2 O  py                54      0.461203  2 O  d  1       
 
 Vector   35  Occ=0.000000D+00  E= 2.080799D+00
              MO Center= -8.3D+00,  2.7D+00,  1.0D-01, r^2= 1.8D+00
   Bfn.  Coefficient  Atom+Function         Bfn.  Coefficient  Atom+Function  
  ----- ------------  ---------------      ----- ------------  ---------------
    64      0.727606  3 H  s                 68      0.601434  3 H  pz         
    70     -0.598249  4 H  s                 55     -0.544868  2 O  d  2       
     4     -0.508989  1 O  s                 23     -0.496949  1 O  d  1       
    53     -0.489704  2 O  d  0              74      0.464625  4 H  pz         
    24     -0.443126  1 O  d  2              35      0.408545  2 O  s          
 
 Vector   36  Occ=0.000000D+00  E= 2.095969D+00
              MO Center= -8.3D+00,  2.6D+00,  2.2D-03, r^2= 2.1D+00
   Bfn.  Coefficient  Atom+Function         Bfn.  Coefficient  Atom+Function  
  ----- ------------  ---------------      ----- ------------  ---------------
    70      1.002407  4 H  s                 64      0.934543  3 H  s          
     9      0.835450  1 O  px                35     -0.736827  2 O  s          
    42     -0.711237  2 O  pz                 4     -0.695028  1 O  s          
    66      0.615231  3 H  px                73     -0.593989  4 H  py         
    41     -0.494219  2 O  py                22     -0.466358  1 O  d  0       
 
 Vector   37  Occ=0.000000D+00  E= 2.184848D+00
              MO Center= -8.4D+00,  2.8D+00,  1.2D-01, r^2= 2.3D+00
   Bfn.  Coefficient  Atom+Function         Bfn.  Coefficient  Atom+Function  
  ----- ------------  ---------------      ----- ------------  ---------------
    64      1.456010  3 H  s                 70     -1.422704  4 H  s          
     5     -1.289394  1 O  s                 36      1.291445  2 O  s          
     4     -0.900075  1 O  s                 35      0.868238  2 O  s          
    42      0.826317  2 O  pz                45     -0.772216  2 O  pz         
     9      0.764102  1 O  px                66      0.751534  3 H  px         
 
 Vector   38  Occ=0.000000D+00  E= 2.230819D+00
              MO Center= -8.3D+00,  2.7D+00,  9.1D-02, r^2= 2.0D+00
   Bfn.  Coefficient  Atom+Function         Bfn.  Coefficient  Atom+Function  
  ----- ------------  ---------------      ----- ------------  ---------------
    70      1.340682  4 H  s                 64      1.299892  3 H  s          
    35     -0.784414  2 O  s                 42     -0.787427  2 O  pz         
     4     -0.767614  1 O  s                 74     -0.706381  4 H  pz         
    10     -0.612065  1 O  py                 9      0.564968  1 O  px         
    68      0.521398  3 H  pz                43     -0.453579  2 O  px         
 
 Vector   39  Occ=0.000000D+00  E= 2.392239D+00
              MO Center= -8.3D+00,  2.6D+00,  3.6D-02, r^2= 1.7D+00
   Bfn.  Coefficient  Atom+Function         Bfn.  Coefficient  Atom+Function  
  ----- ------------  ---------------      ----- ------------  ---------------
    11      0.941345  1 O  pz                70      0.890062  4 H  s          
    64      0.841477  3 H  s                 41      0.716333  2 O  py         
    38     -0.703254  2 O  py                35     -0.645574  2 O  s          
     4     -0.621818  1 O  s                 40     -0.611302  2 O  px         
     8     -0.560666  1 O  pz                44     -0.549030  2 O  py         
 
 Vector   40  Occ=0.000000D+00  E= 2.424743D+00
              MO Center= -8.3D+00,  2.6D+00,  1.0D-01, r^2= 1.8D+00
   Bfn.  Coefficient  Atom+Function         Bfn.  Coefficient  Atom+Function  
  ----- ------------  ---------------      ----- ------------  ---------------
    70     -0.830958  4 H  s                 35      0.808347  2 O  s          
    45      0.779500  2 O  pz                74      0.682656  4 H  pz         
    64      0.676728  3 H  s                  4     -0.612231  1 O  s          
     6      0.598277  1 O  px                40     -0.544593  2 O  px         
    14      0.529072  1 O  pz                66      0.508587  3 H  px         
 
 Vector   41  Occ=0.000000D+00  E= 2.438969D+00
              MO Center= -8.3D+00,  2.7D+00,  1.1D-03, r^2= 1.3D+00
   Bfn.  Coefficient  Atom+Function         Bfn.  Coefficient  Atom+Function  
  ----- ------------  ---------------      ----- ------------  ---------------
     4      1.365715  1 O  s                 35      1.211144  2 O  s          
    64     -0.837671  3 H  s                  3     -0.716578  1 O  s          
    70     -0.710120  4 H  s                 34     -0.674943  2 O  s          
    39      0.630383  2 O  pz                41      0.592765  2 O  py         
    10     -0.557027  1 O  py                 8     -0.554038  1 O  pz         
 
 Vector   42  Occ=0.000000D+00  E= 2.582452D+00
              MO Center= -8.4D+00,  2.8D+00,  2.6D-01, r^2= 1.5D+00
   Bfn.  Coefficient  Atom+Function         Bfn.  Coefficient  Atom+Function  
  ----- ------------  ---------------      ----- ------------  ---------------
    36      2.067910  2 O  s                  5     -1.672958  1 O  s          
    70     -1.312957  4 H  s                 40      0.921410  2 O  px         
    64      0.900432  3 H  s                 10      0.842696  1 O  py         
    34      0.820549  2 O  s                 35     -0.763647  2 O  s          
    44      0.659370  2 O  py                 7     -0.632145  1 O  py         
 
 Vector   43  Occ=0.000000D+00  E= 2.597495D+00
              MO Center= -8.4D+00,  2.7D+00, -3.1D-02, r^2= 1.8D+00
   Bfn.  Coefficient  Atom+Function         Bfn.  Coefficient  Atom+Function  
  ----- ------------  ---------------      ----- ------------  ---------------
    64     -1.668208  3 H  s                  5      1.626356  1 O  s          
    70     -1.339114  4 H  s                 36      1.133332  2 O  s          
    66     -1.095540  3 H  px                 3      0.916080  1 O  s          
    34      0.734661  2 O  s                 12     -0.706514  1 O  px         
     4     -0.657485  1 O  s                 74      0.641487  4 H  pz         
 
 Vector   44  Occ=0.000000D+00  E= 2.678853D+00
              MO Center= -8.1D+00,  2.4D+00, -9.7D-02, r^2= 1.6D+00
   Bfn.  Coefficient  Atom+Function         Bfn.  Coefficient  Atom+Function  
  ----- ------------  ---------------      ----- ------------  ---------------
     5      2.701531  1 O  s                 36     -2.702754  2 O  s          
    35      2.110875  2 O  s                  4     -2.079084  1 O  s          
    34     -1.384329  2 O  s                  3      1.370866  1 O  s          
    41     -0.972534  2 O  py                 9     -0.739999  1 O  px         
    11      0.644457  1 O  pz                13     -0.577060  1 O  py         
 
 Vector   45  Occ=0.000000D+00  E= 2.723985D+00
              MO Center= -8.3D+00,  2.7D+00,  7.2D-02, r^2= 1.7D+00
   Bfn.  Coefficient  Atom+Function         Bfn.  Coefficient  Atom+Function  
  ----- ------------  ---------------      ----- ------------  ---------------
     4      2.414959  1 O  s                 35      2.379310  2 O  s          
     3     -1.574902  1 O  s                 34     -1.550410  2 O  s          
     5     -1.542315  1 O  s                 36     -1.494285  2 O  s          
    40     -0.705992  2 O  px                 9      0.529553  1 O  px         
    10      0.504074  1 O  py                37      0.445988  2 O  px         
 
 Vector   46  Occ=0.000000D+00  E= 3.587886D+00
              MO Center= -8.4D+00,  2.7D+00,  1.9D-01, r^2= 1.7D+00
   Bfn.  Coefficient  Atom+Function         Bfn.  Coefficient  Atom+Function  
  ----- ------------  ---------------      ----- ------------  ---------------
    35     -3.171157  2 O  s                  4      2.939953  1 O  s          
     9     -1.644838  1 O  px                70      1.628845  4 H  s          
    64     -1.514540  3 H  s                 34      1.503010  2 O  s          
     3     -1.391129  1 O  s                 42     -1.354172  2 O  pz         
    41     -1.206340  2 O  py                66     -1.121875  3 H  px         
 
 Vector   47  Occ=0.000000D+00  E= 3.639915D+00
              MO Center= -8.4D+00,  2.8D+00,  4.5D-02, r^2= 1.6D+00
   Bfn.  Coefficient  Atom+Function         Bfn.  Coefficient  Atom+Function  
  ----- ------------  ---------------      ----- ------------  ---------------
     4      2.762601  1 O  s                 35      2.445159  2 O  s          
     9     -1.826211  1 O  px                42      1.462038  2 O  pz         
    64     -1.464656  3 H  s                 70     -1.306513  4 H  s          
     3     -1.198899  1 O  s                 66     -1.187910  3 H  px         
    34     -1.054330  2 O  s                 74      0.936167  4 H  pz         
 
 Vector   48  Occ=0.000000D+00  E= 3.854627D+00
              MO Center= -8.3D+00,  2.6D+00,  2.2D-02, r^2= 9.6D-01
   Bfn.  Coefficient  Atom+Function         Bfn.  Coefficient  Atom+Function  
  ----- ------------  ---------------      ----- ------------  ---------------
    42      1.678762  2 O  pz                11      1.482455  1 O  pz         
    35     -1.321928  2 O  s                  4      1.281959  1 O  s          
    10     -1.165113  1 O  py                34      1.046470  2 O  s          
     3     -1.032816  1 O  s                 52      0.813843  2 O  d -1       
    41     -0.793282  2 O  py                21     -0.582566  1 O  d -1       
 
 Vector   49  Occ=0.000000D+00  E= 4.660207D+00
              MO Center= -8.2D+00,  2.6D+00,  2.2D-02, r^2= 1.0D+00
   Bfn.  Coefficient  Atom+Function         Bfn.  Coefficient  Atom+Function  
  ----- ------------  ---------------      ----- ------------  ---------------
    30      0.336134  1 O  f  2              28      0.334325  1 O  f  0       
    26      0.330915  1 O  f -2              57      0.311328  2 O  f -2       
    59      0.300681  2 O  f  0              60      0.294509  2 O  f  1       
    61      0.285364  2 O  f  2               9      0.275075  1 O  px         
    25     -0.274086  1 O  f -3              56     -0.266689  2 O  f -3       
 
 Vector   50  Occ=0.000000D+00  E= 4.720378D+00
              MO Center= -8.3D+00,  2.6D+00,  2.4D-02, r^2= 9.6D-01
   Bfn.  Coefficient  Atom+Function         Bfn.  Coefficient  Atom+Function  
  ----- ------------  ---------------      ----- ------------  ---------------
    27      0.482551  1 O  f -1              58     -0.390863  2 O  f -1       
    57      0.348794  2 O  f -2              61     -0.345353  2 O  f  2       
    31      0.277771  1 O  f  3              30      0.259301  1 O  f  2       
     5     -0.248119  1 O  s                 36     -0.247662  2 O  s          
    26     -0.230191  1 O  f -2              62     -0.207806  2 O  f  3       
 
 Vector   51  Occ=0.000000D+00  E= 4.745086D+00
              MO Center= -8.2D+00,  2.6D+00,  2.1D-02, r^2= 1.1D+00
   Bfn.  Coefficient  Atom+Function         Bfn.  Coefficient  Atom+Function  
  ----- ------------  ---------------      ----- ------------  ---------------
     4      0.527627  1 O  s                 35     -0.519695  2 O  s          
    26     -0.493999  1 O  f -2              62      0.447949  2 O  f  3       
     9     -0.421580  1 O  px                59      0.374825  2 O  f  0       
    27     -0.331675  1 O  f -1              28      0.301621  1 O  f  0       
    41     -0.279167  2 O  py                42     -0.277008  2 O  pz         
 
 Vector   52  Occ=0.000000D+00  E= 4.845150D+00
              MO Center= -8.2D+00,  2.6D+00,  1.2D-02, r^2= 1.0D+00
   Bfn.  Coefficient  Atom+Function         Bfn.  Coefficient  Atom+Function  
  ----- ------------  ---------------      ----- ------------  ---------------
    29      0.522892  1 O  f  1              56     -0.470875  2 O  f -3       
    60     -0.408824  2 O  f  1              25      0.281421  1 O  f -3       
    28     -0.235547  1 O  f  0              31      0.214661  1 O  f  3       
    62     -0.211865  2 O  f  3              61      0.155004  2 O  f  2       
    27     -0.152261  1 O  f -1              57     -0.119590  2 O  f -2       
 
 Vector   53  Occ=0.000000D+00  E= 4.954100D+00
              MO Center= -8.3D+00,  2.6D+00,  3.9D-02, r^2= 1.1D+00
   Bfn.  Coefficient  Atom+Function         Bfn.  Coefficient  Atom+Function  
  ----- ------------  ---------------      ----- ------------  ---------------
    31      0.534848  1 O  f  3              56      0.477619  2 O  f -3       
    59      0.387024  2 O  f  0              28     -0.322819  1 O  f  0       
    27     -0.256229  1 O  f -1              62     -0.249895  2 O  f  3       
    42      0.232494  2 O  pz                11      0.225975  1 O  pz         
    73      0.173623  4 H  py                60      0.167767  2 O  f  1       
 
 Vector   54  Occ=0.000000D+00  E= 5.197675D+00
              MO Center= -8.3D+00,  2.6D+00,  4.3D-02, r^2= 1.0D+00
   Bfn.  Coefficient  Atom+Function         Bfn.  Coefficient  Atom+Function  
  ----- ------------  ---------------      ----- ------------  ---------------
    25      0.594649  1 O  f -3              56      0.412321  2 O  f -3       
    62      0.364683  2 O  f  3              59     -0.276334  2 O  f  0       
    61      0.274369  2 O  f  2              30      0.265556  1 O  f  2       
    29      0.219122  1 O  f  1              67     -0.214492  3 H  py         
    57      0.201555  2 O  f -2              72     -0.193124  4 H  px         
 
 Vector   55  Occ=0.000000D+00  E= 5.266006D+00
              MO Center= -8.3D+00,  2.4D+00,  3.8D-01, r^2= 8.6D-01
   Bfn.  Coefficient  Atom+Function         Bfn.  Coefficient  Atom+Function  
  ----- ------------  ---------------      ----- ------------  ---------------
    61     -0.487765  2 O  f  2              60      0.484925  2 O  f  1       
    56     -0.426283  2 O  f -3              25      0.280145  1 O  f -3       
    72      0.260392  4 H  px                57     -0.245991  2 O  f -2       
    30      0.223652  1 O  f  2              58      0.211827  2 O  f -1       
    62      0.203575  2 O  f  3              28     -0.193342  1 O  f  0       
 
 Vector   56  Occ=0.000000D+00  E= 5.269836D+00
              MO Center= -8.2D+00,  2.9D+00, -3.2D-01, r^2= 8.6D-01
   Bfn.  Coefficient  Atom+Function         Bfn.  Coefficient  Atom+Function  
  ----- ------------  ---------------      ----- ------------  ---------------
    29      0.673889  1 O  f  1              30     -0.410651  1 O  f  2       
    60      0.403098  2 O  f  1              27      0.295754  1 O  f -1       
    26     -0.273852  1 O  f -2              68      0.266673  3 H  pz         
    25     -0.198954  1 O  f -3              58      0.174841  2 O  f -1       
    67      0.165235  3 H  py                62      0.150915  2 O  f  3       
 
 Vector   57  Occ=0.000000D+00  E= 5.288961D+00
              MO Center= -8.3D+00,  2.6D+00,  3.0D-02, r^2= 9.8D-01
   Bfn.  Coefficient  Atom+Function         Bfn.  Coefficient  Atom+Function  
  ----- ------------  ---------------      ----- ------------  ---------------
    62      0.536956  2 O  f  3              31      0.407255  1 O  f  3       
    25     -0.402423  1 O  f -3              28     -0.380773  1 O  f  0       
    58     -0.271706  2 O  f -1              59     -0.272594  2 O  f  0       
     9     -0.234518  1 O  px                60     -0.208065  2 O  f  1       
    74      0.207363  4 H  pz                67      0.195327  3 H  py         
 
 Vector   58  Occ=0.000000D+00  E= 5.572058D+00
              MO Center= -8.2D+00,  2.6D+00,  1.3D-02, r^2= 9.6D-01
   Bfn.  Coefficient  Atom+Function         Bfn.  Coefficient  Atom+Function  
  ----- ------------  ---------------      ----- ------------  ---------------
    59      0.584531  2 O  f  0              35      0.541961  2 O  s          
     4      0.527340  1 O  s                 26      0.502828  1 O  f -2       
     9     -0.444229  1 O  px                42      0.417040  2 O  pz         
    27      0.384794  1 O  f -1              70     -0.385063  4 H  s          
    64     -0.376595  3 H  s                 66     -0.318340  3 H  px         
 
 Vector   59  Occ=0.000000D+00  E= 5.595439D+00
              MO Center= -8.2D+00,  2.6D+00,  2.3D-02, r^2= 8.7D-01
   Bfn.  Coefficient  Atom+Function         Bfn.  Coefficient  Atom+Function  
  ----- ------------  ---------------      ----- ------------  ---------------
    42      0.390382  2 O  pz                28     -0.383792  1 O  f  0       
    57      0.381260  2 O  f -2               9      0.349565  1 O  px         
    59      0.327550  2 O  f  0              29     -0.291597  1 O  f  1       
    61      0.286213  2 O  f  2               4     -0.283032  1 O  s          
    49     -0.273478  2 O  d  1              26     -0.271660  1 O  f -2       
 
 Vector   60  Occ=0.000000D+00  E= 5.900490D+00
              MO Center= -8.3D+00,  2.6D+00,  9.4D-02, r^2= 9.9D-01
   Bfn.  Coefficient  Atom+Function         Bfn.  Coefficient  Atom+Function  
  ----- ------------  ---------------      ----- ------------  ---------------
    42      0.720706  2 O  pz                35      0.643043  2 O  s          
     9      0.598908  1 O  px                47      0.597580  2 O  d -1       
     4     -0.553263  1 O  s                 69     -0.489966  4 H  s          
    74      0.459686  4 H  pz                66      0.457329  3 H  px         
    63      0.443816  3 H  s                 70     -0.404127  4 H  s          
 
 Vector   61  Occ=0.000000D+00  E= 6.007827D+00
              MO Center= -8.3D+00,  2.7D+00,  4.5D-02, r^2= 1.0D+00
   Bfn.  Coefficient  Atom+Function         Bfn.  Coefficient  Atom+Function  
  ----- ------------  ---------------      ----- ------------  ---------------
     4      1.005832  1 O  s                 35      1.005358  2 O  s          
     9     -0.751325  1 O  px                42      0.604361  2 O  pz         
    66     -0.541127  3 H  px                63     -0.520288  3 H  s          
    69     -0.489245  4 H  s                 18     -0.470971  1 O  d  1       
    74      0.470783  4 H  pz                64     -0.431796  3 H  s          
 
 Vector   62  Occ=0.000000D+00  E= 6.108371D+00
              MO Center= -8.3D+00,  2.6D+00,  1.4D-02, r^2= 9.0D-01
   Bfn.  Coefficient  Atom+Function         Bfn.  Coefficient  Atom+Function  
  ----- ------------  ---------------      ----- ------------  ---------------
     5      1.265540  1 O  s                 36     -1.250245  2 O  s          
     4     -1.048251  1 O  s                 35      1.007193  2 O  s          
    16      0.700487  1 O  d -1              48      0.573205  2 O  d  0       
     3      0.452081  1 O  s                 34     -0.437524  2 O  s          
    44     -0.430135  2 O  py                50     -0.400171  2 O  d  2       
 
 Vector   63  Occ=0.000000D+00  E= 6.116664D+00
              MO Center= -8.2D+00,  2.6D+00,  1.8D-02, r^2= 8.9D-01
   Bfn.  Coefficient  Atom+Function         Bfn.  Coefficient  Atom+Function  
  ----- ------------  ---------------      ----- ------------  ---------------
    50      0.604451  2 O  d  2              19     -0.514937  1 O  d  2       
    18     -0.472908  1 O  d  1              17     -0.381660  1 O  d  0       
    49      0.341104  2 O  d  1              48      0.308555  2 O  d  0       
    55     -0.302563  2 O  d  2              23      0.272266  1 O  d  1       
    46      0.249660  2 O  d -2              24      0.224493  1 O  d  2       
 
 Vector   64  Occ=0.000000D+00  E= 6.179201D+00
              MO Center= -8.2D+00,  2.6D+00, -6.0D-03, r^2= 9.2D-01
   Bfn.  Coefficient  Atom+Function         Bfn.  Coefficient  Atom+Function  
  ----- ------------  ---------------      ----- ------------  ---------------
    15      0.663894  1 O  d -2              49     -0.466082  2 O  d  1       
     4     -0.406866  1 O  s                 47     -0.379628  2 O  d -1       
    20     -0.376556  1 O  d -2              35     -0.370054  2 O  s          
    54      0.360153  2 O  d  1              50      0.335933  2 O  d  2       
     9      0.328676  1 O  px                64      0.326229  3 H  s          
 
 Vector   65  Occ=0.000000D+00  E= 6.199386D+00
              MO Center= -8.2D+00,  2.6D+00,  1.6D-02, r^2= 9.0D-01
   Bfn.  Coefficient  Atom+Function         Bfn.  Coefficient  Atom+Function  
  ----- ------------  ---------------      ----- ------------  ---------------
    46      0.604133  2 O  d -2              17      0.557050  1 O  d  0       
     5      0.465097  1 O  s                 36     -0.465252  2 O  s          
    15     -0.439132  1 O  d -2              49      0.391078  2 O  d  1       
    51     -0.358125  2 O  d -2              48     -0.329962  2 O  d  0       
    22     -0.307941  1 O  d  0              18     -0.305846  1 O  d  1       
 
 Vector   66  Occ=0.000000D+00  E= 6.256799D+00
              MO Center= -8.2D+00,  2.6D+00,  2.1D-02, r^2= 9.4D-01
   Bfn.  Coefficient  Atom+Function         Bfn.  Coefficient  Atom+Function  
  ----- ------------  ---------------      ----- ------------  ---------------
    15      0.588828  1 O  d -2              18     -0.525833  1 O  d  1       
    50     -0.462774  2 O  d  2              20     -0.435991  1 O  d -2       
    49      0.435873  2 O  d  1              46     -0.423861  2 O  d -2       
     4      0.370435  1 O  s                 35     -0.356606  2 O  s          
    55      0.334680  2 O  d  2              23      0.284114  1 O  d  1       
 
 Vector   67  Occ=0.000000D+00  E= 6.524406D+00
              MO Center= -8.3D+00,  2.6D+00,  3.3D-02, r^2= 1.0D+00
   Bfn.  Coefficient  Atom+Function         Bfn.  Coefficient  Atom+Function  
  ----- ------------  ---------------      ----- ------------  ---------------
    70      0.860533  4 H  s                 64      0.845881  3 H  s          
     9      0.708987  1 O  px                42     -0.702520  2 O  pz         
    16     -0.621156  1 O  d -1              46      0.607290  2 O  d -2       
    51     -0.566093  2 O  d -2              35     -0.514582  2 O  s          
     4     -0.511072  1 O  s                 24     -0.476602  1 O  d  2       
 
 Vector   68  Occ=0.000000D+00  E= 6.620116D+00
              MO Center= -8.2D+00,  2.6D+00,  1.8D-02, r^2= 1.1D+00
   Bfn.  Coefficient  Atom+Function         Bfn.  Coefficient  Atom+Function  
  ----- ------------  ---------------      ----- ------------  ---------------
    64     -0.892720  3 H  s                 24      0.881421  1 O  d  2       
    70      0.868366  4 H  s                  4      0.847180  1 O  s          
     9     -0.824379  1 O  px                35     -0.821695  2 O  s          
    19     -0.707441  1 O  d  2              54      0.616246  2 O  d  1       
    42     -0.586478  2 O  pz                 5      0.575821  1 O  s          
 
 Vector   69  Occ=0.000000D+00  E= 6.754636D+00
              MO Center= -8.2D+00,  2.6D+00,  1.6D-02, r^2= 1.0D+00
   Bfn.  Coefficient  Atom+Function         Bfn.  Coefficient  Atom+Function  
  ----- ------------  ---------------      ----- ------------  ---------------
    17      0.606833  1 O  d  0              22     -0.582022  1 O  d  0       
    48      0.573592  2 O  d  0              53     -0.525063  2 O  d  0       
    47     -0.515207  2 O  d -1              16     -0.414787  1 O  d -1       
    52      0.402326  2 O  d -1              51      0.352626  2 O  d -2       
    19     -0.284937  1 O  d  2              46     -0.285112  2 O  d -2       
 
 Vector   70  Occ=0.000000D+00  E= 6.841438D+00
              MO Center= -8.3D+00,  2.6D+00,  3.0D-02, r^2= 1.2D+00
   Bfn.  Coefficient  Atom+Function         Bfn.  Coefficient  Atom+Function  
  ----- ------------  ---------------      ----- ------------  ---------------
     4      1.287738  1 O  s                 35     -1.288027  2 O  s          
    64     -1.067812  3 H  s                 70      1.068535  4 H  s          
     9     -0.978571  1 O  px                42     -0.872363  2 O  pz         
    23     -0.765014  1 O  d  1              63     -0.756364  3 H  s          
    69      0.752064  4 H  s                 66     -0.743136  3 H  px         
 
 Vector   71  Occ=0.000000D+00  E= 7.044674D+00
              MO Center= -8.2D+00,  2.6D+00,  1.2D-02, r^2= 1.1D+00
   Bfn.  Coefficient  Atom+Function         Bfn.  Coefficient  Atom+Function  
  ----- ------------  ---------------      ----- ------------  ---------------
     4      1.477808  1 O  s                 35      1.419078  2 O  s          
    64     -0.971790  3 H  s                  9     -0.963632  1 O  px         
    70     -0.927879  4 H  s                 63     -0.796121  3 H  s          
    52      0.773692  2 O  d -1              42      0.762053  2 O  pz         
    69     -0.757665  4 H  s                 23     -0.715467  1 O  d  1       
 
 Vector   72  Occ=0.000000D+00  E= 7.708761D+00
              MO Center= -8.2D+00,  2.6D+00,  1.9D-02, r^2= 1.1D+00
   Bfn.  Coefficient  Atom+Function         Bfn.  Coefficient  Atom+Function  
  ----- ------------  ---------------      ----- ------------  ---------------
    42      1.620570  2 O  pz                 4      1.584033  1 O  s          
    35     -1.583570  2 O  s                 11      1.531077  1 O  pz         
    52      1.381431  2 O  d -1              10     -1.278611  1 O  py         
    21     -1.233276  1 O  d -1              41     -1.121745  2 O  py         
     3     -1.082257  1 O  s                 34      1.081449  2 O  s          
 
 Vector   73  Occ=0.000000D+00  E= 4.266694D+01
              MO Center= -8.2D+00,  2.6D+00,  2.0D-02, r^2= 6.6D-01
   Bfn.  Coefficient  Atom+Function         Bfn.  Coefficient  Atom+Function  
  ----- ------------  ---------------      ----- ------------  ---------------
     2      1.196111  1 O  s                 33      1.194495  2 O  s          
     4      1.099014  1 O  s                 35      1.096440  2 O  s          
     3     -1.060758  1 O  s                 34     -1.059237  2 O  s          
     1     -0.982903  1 O  s                 32     -0.981567  2 O  s          
     5     -0.479738  1 O  s                 36     -0.477819  2 O  s          
 
 Vector   74  Occ=0.000000D+00  E= 4.313565D+01
              MO Center= -8.2D+00,  2.6D+00,  2.0D-02, r^2= 6.6D-01
   Bfn.  Coefficient  Atom+Function         Bfn.  Coefficient  Atom+Function  
  ----- ------------  ---------------      ----- ------------  ---------------
     4      1.432989  1 O  s                 35     -1.434076  2 O  s          
     3     -1.251853  1 O  s                 34      1.253601  2 O  s          
     2      1.214973  1 O  s                 33     -1.216642  2 O  s          
     1     -0.984744  1 O  s                 32      0.986087  2 O  s          
     5     -0.674523  1 O  s                 36      0.673759  2 O  s          
 

 center of mass
 --------------
 x = -15.61131345 y =   4.91631890 z =   0.05853669

 moments of inertia (a.u.)
 ------------------
          69.985625427482          -8.595781384764           9.088404661983
          -8.595781384764          49.210417310635          31.294745669904
           9.088404661983          31.294745669904          32.287061272417
 
     Multipole analysis of the density
     ---------------------------------
 
     L   x y z        total         alpha         beta         nuclear
     -   - - -        -----         -----         ----         -------
     0   0 0 0     -0.000000     -9.000000     -9.000000     18.000000
 
     1   1 0 0     -0.394065    140.555465    140.555465   -281.504995
     1   0 1 0      0.477565    -44.313182    -44.313182     89.103929
     1   0 0 1      0.272685     -0.564884     -0.564884      1.402453
 
     2   2 0 0      3.539425  -2201.317690  -2201.317690   4406.174805
     2   1 1 0    -10.176632    689.874151    689.874151  -1389.924933
     2   1 0 1     -2.668898     11.214572     11.214572    -25.098041
     2   0 2 0     -4.821308   -229.925545   -229.925545    455.029782
     2   0 1 1      1.281282      5.484041      5.484041     -9.686800
     2   0 0 2     -6.389197    -16.339164    -16.339164     26.289132
 
 
            General Information
            -------------------
          SCF calculation type: DFT
          Wavefunction type:  closed shell.
          No. of atoms     :     4
          No. of electrons :    18
           Alpha electrons :     9
            Beta electrons :     9
          Charge           :     0
          Spin multiplicity:     1
          Use of symmetry is: off; symmetry adaption is: off
          Maximum number of iterations: 250
          This is a Direct SCF calculation.
          AO basis - number of functions:    74
                     number of shells:    30
          Convergence on energy requested:  1.00D-08
          Convergence on density requested:  1.00D-05
          Convergence on gradient requested:  1.00D-08
 
              XC Information
              --------------
                    Becke 1988 Exchange Functional  1.000          
              Lee-Yang-Parr Correlation Functional  1.000          
 
             Grid Information
             ----------------
          Grid used for XC integration:  xfine     
          Radial quadrature: Mura-Knowles        
          Angular quadrature: Lebedev. 
          Tag              B.-S. Rad. Rad. Pts. Rad. Cut. Ang. Pts.
          ---              ---------- --------- --------- ---------
          O                   0.60      100           8.0      1454
          H                   0.35      100           9.0      1202
          Grid pruning is: on 
          Number of quadrature shells:   400
          Spatial weights used:  Erf1
 
          Convergence Information
          -----------------------
          Convergence aids based upon iterative change in 
          total energy or number of iterations. 
          Levelshifting, if invoked, occurs when the 
          HOMO/LUMO gap drops below (HL_TOL):  1.00D-02
          DIIS, if invoked, will attempt to extrapolate 
          using up to (NFOCK): 10 stored Fock matrices.

                    Damping( 0%)  Levelshifting(0.0)       DIIS
                  --------------- ------------------- ---------------
          dE  on:    start             N/A                start   
          dE off:    2 iters           N/A              250 iters 

 
      Screening Tolerance Information
      -------------------------------
          Density screening/tol_rho:  1.00D-11
          AO Gaussian exp screening on grid/accAOfunc:  18
          CD Gaussian exp screening on grid/accCDfunc:  20
          XC Gaussian exp screening on grid/accXCfunc:  20
          Schwarz screening/accCoul:  1.00D-09

 
 
                            NWChem DFT Gradient Module
                            --------------------------
 
 
                         h2o2 roa calculations at 514.5 nm, input generated by va with delta_type=2
 
 

  charge          =   0.00
  wavefunction    = closed shell



                         DFT ENERGY GRADIENTS

    atom               coordinates                        gradient
                 x          y          z           x          y          z
   1 O     -15.222132   5.762765  -1.000464   -0.019610   0.004062  -0.008571
   2 O     -15.936796   3.992347   1.073223    0.005681   0.009071   0.014137
   3 H     -16.863474   6.100757  -1.679152    0.019494  -0.003700   0.007798
   4 H     -15.370094   4.962281   2.499539   -0.005564  -0.009433  -0.013364
 
                 ----------------------------------------
                 |  Time  |  1-e(secs)   |  2-e(secs)   |
                 ----------------------------------------
                 |  CPU   |       0.01   |       2.25   |
                 ----------------------------------------
                 |  WALL  |       0.01   |       2.26   |
                 ----------------------------------------

 Task  times  cpu:       38.4s     wall:       39.2s
 
 
                                NWChem Input Module
                                -------------------
 
 
                              NWChem Property Module
                              ----------------------
 
 
                         h2o2 roa calculations at 514.5 nm, input generated by va with delta_type=2
 
 
                                 NWChem DFT Module
                                 -----------------
 
 
                         h2o2 roa calculations at 514.5 nm, input generated by va with delta_type=2
 
 


 Summary of "ao basis" -> "ao basis" (spherical)
 ------------------------------------------------------------------------------
       Tag                 Description            Shells   Functions and Types
 ---------------- ------------------------------  ------  ---------------------
 O                         def2-TZVP                11       31   5s3p2d1f
 H                         def2-TZVP                 4        6   3s1p


  Caching 1-el integrals 
 
            General Information
            -------------------
          SCF calculation type: DFT
          Wavefunction type:  closed shell.
          No. of atoms     :     4
          No. of electrons :    18
           Alpha electrons :     9
            Beta electrons :     9
          Charge           :     0
          Spin multiplicity:     1
          Use of symmetry is: off; symmetry adaption is: off
          Maximum number of iterations: 250
          This is a Direct SCF calculation.
          AO basis - number of functions:    74
                     number of shells:    30
          Convergence on energy requested:  1.00D-08
          Convergence on density requested:  1.00D-05
          Convergence on gradient requested:  1.00D-08
 
              XC Information
              --------------
                    Becke 1988 Exchange Functional  1.000          
              Lee-Yang-Parr Correlation Functional  1.000          
 
             Grid Information
             ----------------
          Grid used for XC integration:  xfine     
          Radial quadrature: Mura-Knowles        
          Angular quadrature: Lebedev. 
          Tag              B.-S. Rad. Rad. Pts. Rad. Cut. Ang. Pts.
          ---              ---------- --------- --------- ---------
          O                   0.60      100           8.0      1454
          H                   0.35      100           9.0      1202
          Grid pruning is: on 
          Number of quadrature shells:   400
          Spatial weights used:  Erf1
 
          Convergence Information
          -----------------------
          Convergence aids based upon iterative change in 
          total energy or number of iterations. 
          Levelshifting, if invoked, occurs when the 
          HOMO/LUMO gap drops below (HL_TOL):  1.00D-02
          DIIS, if invoked, will attempt to extrapolate 
          using up to (NFOCK): 10 stored Fock matrices.

                    Damping( 0%)  Levelshifting(0.0)       DIIS
                  --------------- ------------------- ---------------
          dE  on:    start             N/A                start   
          dE off:    2 iters           N/A              250 iters 

 
      Screening Tolerance Information
      -------------------------------
          Density screening/tol_rho:  1.00D-11
          AO Gaussian exp screening on grid/accAOfunc:  18
          CD Gaussian exp screening on grid/accCDfunc:  20
          XC Gaussian exp screening on grid/accXCfunc:  20
          Schwarz screening/accCoul:  1.00D-09


 Loading old vectors from job with title :

h2o2 roa calculations at 514.5 nm, input generated by va with delta_type=2

   Time after variat. SCF:     39.9
   Time prior to 1st pass:     39.9

 Grid_pts file          = ./h2o2_514.5_06.inp.gridpts.0
 Record size in doubles =  12289        No. of grid_pts per rec  =   3070
 Max. records in memory =    210        Max. recs in file   =   3881561


           Memory utilization after 1st SCF pass: 
           Heap Space remaining (MW):       10.52            10522928
          Stack Space remaining (MW):       13.11            13106668

   convergence    iter        energy       DeltaE   RMS-Dens  Diis-err    time
 ---------------- ----- ----------------- --------- --------- ---------  ------
 d= 0,ls=0.0,diis     1   -151.6004143782 -1.88D+02  1.70D-08  1.07D-12    43.5
 d= 0,ls=0.0,diis     2   -151.6004143782 -1.14D-13  7.12D-09  9.12D-13    46.9


         Total DFT energy =     -151.600414378187
      One electron energy =     -280.228438532051
           Coulomb energy =      110.248173656155
    Exchange-Corr. energy =      -17.830135373724
 Nuclear repulsion energy =       36.209985871433

 Numeric. integr. density =       17.999999997221

     Total iterative time =      7.1s


 
                       DFT Final Molecular Orbital Analysis
                       ------------------------------------
 
 Vector    1  Occ=2.000000D+00  E=-1.883108D+01
              MO Center= -8.4D+00,  2.1D+00,  5.7D-01, r^2= 1.7D-02
   Bfn.  Coefficient  Atom+Function         Bfn.  Coefficient  Atom+Function  
  ----- ------------  ---------------      ----- ------------  ---------------
    33      0.638459  2 O  s                 32      0.435191  2 O  s          
    34      0.037187  2 O  s                 35     -0.025182  2 O  s          
 
 Vector    2  Occ=2.000000D+00  E=-1.883065D+01
              MO Center= -8.1D+00,  3.0D+00, -5.3D-01, r^2= 1.7D-02
   Bfn.  Coefficient  Atom+Function         Bfn.  Coefficient  Atom+Function  
  ----- ------------  ---------------      ----- ------------  ---------------
     2      0.638466  1 O  s                  1      0.435189  1 O  s          
     3      0.037105  1 O  s                  4     -0.025030  1 O  s          
 
 Vector    3  Occ=2.000000D+00  E=-1.012257D+00
              MO Center= -8.3D+00,  2.6D+00,  5.1D-02, r^2= 8.2D-01
   Bfn.  Coefficient  Atom+Function         Bfn.  Coefficient  Atom+Function  
  ----- ------------  ---------------      ----- ------------  ---------------
     4      0.311213  1 O  s                 35      0.310112  2 O  s          
     3      0.239588  1 O  s                 34      0.238440  2 O  s          
     2     -0.163176  1 O  s                 33     -0.162426  2 O  s          
     5      0.095639  1 O  s                 36      0.095280  2 O  s          
    38      0.072131  2 O  py                 1     -0.070103  1 O  s          
 
 Vector    4  Occ=2.000000D+00  E=-8.264305D-01
              MO Center= -8.3D+00,  2.7D+00,  7.5D-02, r^2= 1.3D+00
   Bfn.  Coefficient  Atom+Function         Bfn.  Coefficient  Atom+Function  
  ----- ------------  ---------------      ----- ------------  ---------------
    35     -0.323990  2 O  s                  4      0.321742  1 O  s          
    34     -0.253549  2 O  s                  3      0.252277  1 O  s          
    33      0.166844  2 O  s                  2     -0.165942  1 O  s          
    36     -0.138129  2 O  s                  5      0.137186  1 O  s          
    63      0.094842  3 H  s                 69     -0.094252  4 H  s          
 
 Vector    5  Occ=2.000000D+00  E=-4.778584D-01
              MO Center= -8.3D+00,  2.6D+00,  5.7D-02, r^2= 1.2D+00
   Bfn.  Coefficient  Atom+Function         Bfn.  Coefficient  Atom+Function  
  ----- ------------  ---------------      ----- ------------  ---------------
    39      0.310819  2 O  pz                42      0.241959  2 O  pz         
     7      0.207014  1 O  py                 8     -0.200826  1 O  pz         
    10      0.166286  1 O  py                11     -0.158063  1 O  pz         
    64      0.131373  3 H  s                 70      0.130489  4 H  s          
     6     -0.124933  1 O  px                45      0.109931  2 O  pz         
 
 Vector    6  Occ=2.000000D+00  E=-4.345618D-01
              MO Center= -8.3D+00,  2.6D+00,  3.7D-02, r^2= 1.3D+00
   Bfn.  Coefficient  Atom+Function         Bfn.  Coefficient  Atom+Function  
  ----- ------------  ---------------      ----- ------------  ---------------
     6      0.254483  1 O  px                 9      0.188070  1 O  px         
    37      0.176821  2 O  px                 4      0.159352  1 O  s          
    35     -0.158796  2 O  s                  5      0.157467  1 O  s          
    36     -0.157012  2 O  s                 39      0.155585  2 O  pz         
    38      0.152655  2 O  py                40      0.136251  2 O  px         
 
 Vector    7  Occ=2.000000D+00  E=-3.663854D-01
              MO Center= -8.2D+00,  2.5D+00, -2.1D-02, r^2= 1.3D+00
   Bfn.  Coefficient  Atom+Function         Bfn.  Coefficient  Atom+Function  
  ----- ------------  ---------------      ----- ------------  ---------------
    38      0.318793  2 O  py                41      0.249156  2 O  py         
     6     -0.238416  1 O  px                 8      0.216182  1 O  pz         
     9     -0.181876  1 O  px                11      0.175318  1 O  pz         
    44      0.165159  2 O  py                 5     -0.131359  1 O  s          
    36     -0.131313  2 O  s                 14      0.119820  1 O  pz         
 
 Vector    8  Occ=2.000000D+00  E=-2.770327D-01
              MO Center= -8.3D+00,  2.6D+00,  5.4D-02, r^2= 1.3D+00
   Bfn.  Coefficient  Atom+Function         Bfn.  Coefficient  Atom+Function  
  ----- ------------  ---------------      ----- ------------  ---------------
    37      0.344607  2 O  px                 7     -0.270354  1 O  py         
    40      0.267954  2 O  px                10     -0.217003  1 O  py         
    43      0.213964  2 O  px                13     -0.172085  1 O  py         
     8     -0.158307  1 O  pz                 6     -0.149872  1 O  px         
     5     -0.121949  1 O  s                 36     -0.121946  2 O  s          
 
 Vector    9  Occ=2.000000D+00  E=-2.321696D-01
              MO Center= -8.2D+00,  2.6D+00,  6.9D-03, r^2= 1.2D+00
   Bfn.  Coefficient  Atom+Function         Bfn.  Coefficient  Atom+Function  
  ----- ------------  ---------------      ----- ------------  ---------------
    37      0.282091  2 O  px                 7      0.274600  1 O  py         
    40      0.223012  2 O  px                38     -0.217091  2 O  py         
    10      0.214274  1 O  py                43      0.205073  2 O  px         
     8      0.203453  1 O  pz                13      0.188958  1 O  py         
    41     -0.165731  2 O  py                11      0.160946  1 O  pz         
 
 Vector   10  Occ=0.000000D+00  E=-6.127426D-02
              MO Center= -8.3D+00,  2.6D+00,  4.9D-02, r^2= 1.7D+00
   Bfn.  Coefficient  Atom+Function         Bfn.  Coefficient  Atom+Function  
  ----- ------------  ---------------      ----- ------------  ---------------
     5      0.497314  1 O  s                 36     -0.498303  2 O  s          
    44     -0.323787  2 O  py                14      0.300791  1 O  pz         
    13     -0.286574  1 O  py                71      0.284240  4 H  s          
    65     -0.281674  3 H  s                 45      0.279055  2 O  pz         
     8      0.264828  1 O  pz                38     -0.255152  2 O  py         
 
 Vector   11  Occ=0.000000D+00  E= 1.259585D-04
              MO Center= -8.6D+00,  3.0D+00,  3.1D-01, r^2= 4.3D+00
[...]
    70      0.860533  4 H  s                 64      0.845881  3 H  s          
     9      0.708987  1 O  px                42     -0.702520  2 O  pz         
    16     -0.621156  1 O  d -1              46      0.607290  2 O  d -2       
    51     -0.566093  2 O  d -2              35     -0.514582  2 O  s          
     4     -0.511072  1 O  s                 24     -0.476602  1 O  d  2       
 
 Vector   68  Occ=0.000000D+00  E= 6.620116D+00
              MO Center= -8.2D+00,  2.6D+00,  1.8D-02, r^2= 1.1D+00
   Bfn.  Coefficient  Atom+Function         Bfn.  Coefficient  Atom+Function  
  ----- ------------  ---------------      ----- ------------  ---------------
    64     -0.892720  3 H  s                 24      0.881421  1 O  d  2       
    70      0.868366  4 H  s                  4      0.847181  1 O  s          
     9     -0.824379  1 O  px                35     -0.821695  2 O  s          
    19     -0.707441  1 O  d  2              54      0.616246  2 O  d  1       
    42     -0.586478  2 O  pz                 5      0.575821  1 O  s          
 
 Vector   69  Occ=0.000000D+00  E= 6.754636D+00
              MO Center= -8.2D+00,  2.6D+00,  1.6D-02, r^2= 1.0D+00
   Bfn.  Coefficient  Atom+Function         Bfn.  Coefficient  Atom+Function  
  ----- ------------  ---------------      ----- ------------  ---------------
    17      0.606832  1 O  d  0              22     -0.582022  1 O  d  0       
    48      0.573592  2 O  d  0              53     -0.525063  2 O  d  0       
    47     -0.515207  2 O  d -1              16     -0.414787  1 O  d -1       
    52      0.402326  2 O  d -1              51      0.352626  2 O  d -2       
    19     -0.284937  1 O  d  2              46     -0.285112  2 O  d -2       
 
 Vector   70  Occ=0.000000D+00  E= 6.841438D+00
              MO Center= -8.3D+00,  2.6D+00,  3.0D-02, r^2= 1.2D+00
   Bfn.  Coefficient  Atom+Function         Bfn.  Coefficient  Atom+Function  
  ----- ------------  ---------------      ----- ------------  ---------------
     4      1.287738  1 O  s                 35     -1.288027  2 O  s          
    64     -1.067812  3 H  s                 70      1.068535  4 H  s          
     9     -0.978571  1 O  px                42     -0.872363  2 O  pz         
    23     -0.765014  1 O  d  1              63     -0.756364  3 H  s          
    69      0.752064  4 H  s                 66     -0.743136  3 H  px         
 
 Vector   71  Occ=0.000000D+00  E= 7.044674D+00
              MO Center= -8.2D+00,  2.6D+00,  1.2D-02, r^2= 1.1D+00
   Bfn.  Coefficient  Atom+Function         Bfn.  Coefficient  Atom+Function  
  ----- ------------  ---------------      ----- ------------  ---------------
     4      1.477808  1 O  s                 35      1.419078  2 O  s          
    64     -0.971790  3 H  s                  9     -0.963632  1 O  px         
    70     -0.927879  4 H  s                 63     -0.796121  3 H  s          
    52      0.773692  2 O  d -1              42      0.762052  2 O  pz         
    69     -0.757665  4 H  s                 23     -0.715467  1 O  d  1       
 
 Vector   72  Occ=0.000000D+00  E= 7.708761D+00
              MO Center= -8.2D+00,  2.6D+00,  1.9D-02, r^2= 1.1D+00
   Bfn.  Coefficient  Atom+Function         Bfn.  Coefficient  Atom+Function  
  ----- ------------  ---------------      ----- ------------  ---------------
    42      1.620570  2 O  pz                 4      1.584033  1 O  s          
    35     -1.583570  2 O  s                 11      1.531077  1 O  pz         
    52      1.381431  2 O  d -1              10     -1.278611  1 O  py         
    21     -1.233276  1 O  d -1              41     -1.121745  2 O  py         
     3     -1.082257  1 O  s                 34      1.081449  2 O  s          
 
 Vector   73  Occ=0.000000D+00  E= 4.266694D+01
              MO Center= -8.2D+00,  2.6D+00,  2.0D-02, r^2= 6.6D-01
   Bfn.  Coefficient  Atom+Function         Bfn.  Coefficient  Atom+Function  
  ----- ------------  ---------------      ----- ------------  ---------------
     2      1.196111  1 O  s                 33      1.194495  2 O  s          
     4      1.099014  1 O  s                 35      1.096440  2 O  s          
     3     -1.060758  1 O  s                 34     -1.059237  2 O  s          
     1     -0.982903  1 O  s                 32     -0.981567  2 O  s          
     5     -0.479738  1 O  s                 36     -0.477819  2 O  s          
 
 Vector   74  Occ=0.000000D+00  E= 4.313565D+01
              MO Center= -8.2D+00,  2.6D+00,  2.0D-02, r^2= 6.6D-01
   Bfn.  Coefficient  Atom+Function         Bfn.  Coefficient  Atom+Function  
  ----- ------------  ---------------      ----- ------------  ---------------
     4      1.432989  1 O  s                 35     -1.434076  2 O  s          
     3     -1.251853  1 O  s                 34      1.253601  2 O  s          
     2      1.214973  1 O  s                 33     -1.216642  2 O  s          
     1     -0.984744  1 O  s                 32      0.986087  2 O  s          
     5     -0.674523  1 O  s                 36      0.673759  2 O  s          
 

 center of mass
 --------------
 x = -15.61131345 y =   4.91631890 z =   0.05853669

 moments of inertia (a.u.)
 ------------------
          69.985625427482          -8.595781384764           9.088404661983
          -8.595781384764          49.210417310635          31.294745669904
           9.088404661983          31.294745669904          32.287061272417
 
     Multipole analysis of the density
     ---------------------------------
 
     L   x y z        total         alpha         beta         nuclear
     -   - - -        -----         -----         ----         -------
     0   0 0 0     -0.000000     -9.000000     -9.000000     18.000000
 
     1   1 0 0     -0.394065    140.555465    140.555465   -281.504995
     1   0 1 0      0.477564    -44.313182    -44.313182     89.103929
     1   0 0 1      0.272685     -0.564884     -0.564884      1.402453
 
     2   2 0 0      3.539407  -2201.317699  -2201.317699   4406.174805
     2   1 1 0    -10.176618    689.874158    689.874158  -1389.924933
     2   1 0 1     -2.668892     11.214575     11.214575    -25.098041
     2   0 2 0     -4.821314   -229.925548   -229.925548    455.029782
     2   0 1 1      1.281279      5.484040      5.484040     -9.686800
     2   0 0 2     -6.389197    -16.339164    -16.339164     26.289132
 
 *** CALLING NEW AORESP DRIVER FOR CLOSED AND OPEN SHELLS ***
 Entering AOResponse driver routine


--------------------------------------------------------------------------------

          ****************
          *** RESPONSE ***
          ****************

 Response module for NWChem and dynamic CPKS solver
 developed by J. Autschbach and coworkers, SUNY Buffalo
 The methodology used in this program is described in 
 ChemPhysChem 12 (2011), 3224-3235 (main reference)
 J. Chem. Phys. 123 (2005), 114103
 J. Chem. Phys. 122 (2005), 224115
 J. Chem. Phys. 122 (2005), 074105
 Comp. Lett. 3 (2007), 131-150 (contact JA for a copy)
 Please cite this work in publications based on results
 obtained with this code. Thank you!

 For extension of response module to open shell
 calculations please acknowledge:
 F. Aquino, Northwestern University, Schatz Rsrch Group
 The update to the methodology is described in
 J. Phys. Chem. A 118 (2014) 517-525



          -----------------------------------------------
          Solving response equations for perturbing field
          -----------------------------------------------

 number of frequencies:     1
 frequency in a.u.:  0.8855800E-01
 Perturbing field: electric
 Using GIAO formalism for OptRot
 Adding quadrupole terms to OptRot
 to create an origin in dependent tensor.
 Using El. Dipole Length Gauge
 
 Applying DAMPING constant of  0.003700 a.u.
 
 Setting up CPKS
 with frequency omega =      0.08855800 a.u.
 and a damping of            0.00370000 a.u.

 
                            NWChem Dynamic CPHF Module
                            --------------------------
 
 
    scftype = RHF 
    nclosed =    9
      nopen =    0
  variables =     2340
  num. vecs =        3
  tolerance =   1.0D-09
  max. iter =  100

 SCF residual:   4.444200471408546E-007


Iterative solution of linear equations
  No. of variables     1170
  No. of equations        3
  Maximum subspace       99
       Convergence  1.0D-09
        Start time     50.6


   iter   nsub   residual    time 
   ----  ------  --------  --------- 
 dft_CPHF2_read: failed to open./h2o2_514.5_06.inp.aoresp_fiao_f1
     1      3    5.18D+00      78.2
     2      6    2.18D+00     106.1
     3      9    1.64D-01     133.9
     4     12    8.07D-03     161.9
     5     15    2.00D-03     189.8
     6     18    2.98D-04     217.8
     7     21    1.90D-05     245.8
     8     24    9.38D-07     273.9
     9     27    5.38D-08     301.9
    10     30    2.57D-09     329.9
    11     33    3.41D-10     357.9

 Calculating some arrays needed for GIAO optical rotation

    0 giaofock schwarz done =      98.67%
    0 giaofock schwarz done =      98.67%
 aor_r1_tensor_giao: roadata output requested
 dip-quad polarizability Re:

              1        2        3        4        5        6      
    1 -328.4350  41.9377  -4.6044   6.8525   2.8354   0.1808
    2  -23.9419-184.5978  54.9705 118.2855 -15.4121   3.1119
    3   -6.7449  55.1318-245.8133 -35.1484  80.0061   7.6710
 traceless dip-quad polarizability:

              1        2        3      
    1 -331.9516  62.9066  -6.9066
    2   62.9066 170.9797   4.2531
    3   -6.9066   4.2531 160.9720

              1        2        3      
    1  -84.6406-276.8966  82.4557
    2 -276.8966 128.7005 -23.1181
    3   82.4557 -23.1181 -44.0599

              1        2        3      
    1    6.9938  82.6977-368.7199
    2   82.6977 -35.6114 120.0092
    3 -368.7199 120.0092  28.6177

 roa begin

 alpha real:
 XX       0.1042857152941E+02
 XY       0.7772247997183E+00
 XZ       0.1633029835272E+00
 YX       0.7772247998385E+00
 YY       0.1198481193546E+02
 YZ      -0.3408156916537E+01
 ZX       0.1633029836198E+00
 ZY      -0.3408156916613E+01
 ZZ       0.1567936152790E+02

 alpha im:
 XX       0.2118116863402E-01
 XY       0.2880973578388E-02
 XZ      -0.2939591458144E-02
 YX       0.2880973659255E-02
 YY       0.2985413828779E-01
 YZ      -0.1346098623165E-01
 ZX      -0.2939591428464E-02
 ZY      -0.1346098605411E-01
 ZZ       0.3956280292942E-01

 beta real:
 XX      -0.2538615715570E-01
 XY      -0.5009807146030E-01
 XZ       0.2917078793330E+01
 YX       0.7775563126693E+00
 YY       0.2221375225689E+01
 YZ       0.8373195553961E+01
 ZX      -0.3149873861727E+01
 ZY      -0.1079048715776E+02
 ZZ      -0.2200944870656E+01

 G-prime = -omega beta(real):
 XX      -0.2538615715570E-01
 XY      -0.5009807146030E-01
 XZ       0.2917078793330E+01
 YX       0.7775563126693E+00
 YY       0.2221375225689E+01
 YZ       0.8373195553961E+01
 ZX      -0.3149873861727E+01
 ZY      -0.1079048715776E+02
 ZZ      -0.2200944870656E+01

 beta im:
 XX       0.5219891846338E-03
 XY       0.4784092890742E-02
 XZ       0.5618671514826E-01
 YX       0.3454055408095E-01
 YY       0.9605736320821E-01
 YZ       0.1304121701003E+00
 ZX      -0.6011286220955E-01
 ZY      -0.2237018302038E+00
 ZZ      -0.9904202957503E-01

 G-prime = -omega beta(imag):
 XX       0.5219891846338E-03
 XY       0.4784092890742E-02
 XZ       0.5618671514826E-01
 YX       0.3454055408095E-01
 YY       0.9605736320821E-01
 YZ       0.1304121701003E+00
 ZX      -0.6011286220955E-01
 ZY      -0.2237018302038E+00
 ZZ      -0.9904202957503E-01

 dipole-quadrupole real (Cartesian):
 XXX     -0.3284349835379E+03
 XXY      0.4193773570762E+02
 XXZ     -0.4604416259829E+01
 XYY      0.6852541073378E+01
 XYZ      0.2835425177649E+01
 XZZ      0.1807584901549E+00
 YXX     -0.2394191303723E+02
 YXY     -0.1845977601061E+03
 YXZ      0.5497045474434E+02
 YYY      0.1182854846320E+03
 YYZ     -0.1541208357121E+02
 YZZ      0.3111880256832E+01
 ZXX     -0.6744945667163E+01
 ZXY      0.5513179388083E+02
 ZXZ     -0.2458132866515E+03
 ZYY     -0.3514839458616E+02
 ZYZ      0.8000611216244E+02
 ZZZ      0.7670984994999E+01

 dipole-quadrupole imag (Cartesian):
 XXX     -0.6709312495049E+00
 XXY      0.6779223196527E-01
 XXZ      0.4248578332955E-01
 XYY      0.2709693440942E-01
 XYZ     -0.1155208417349E-01
 XZZ     -0.2521763093139E-02
 YXX     -0.8801808407970E-01
 YXY     -0.4597777790085E+00
 YXZ      0.2179717839268E+00
 YYY      0.3026233779996E+00
 YYZ     -0.6378711425754E-01
 YZZ      0.3570891773017E-02
 ZXX      0.8859384908991E-01
 ZXY      0.1997321234331E+00
 ZXZ     -0.6254648661615E+00
 ZYY     -0.1419949934837E+00
 ZYZ      0.2067764154866E+00
 ZZZ      0.2728058373537E-01

 dipole-quadrupole (traceless):
 XXX     -0.3319516333197E+03
 XXY      0.6290660356143E+02
 XXZ     -0.6906624389744E+01
 XYY      0.1709796535972E+03
 XYZ      0.4253137766473E+01
 XZZ      0.1609719797224E+03
 YXX     -0.8464059548165E+02
 YXY     -0.2768966401591E+03
 YXZ      0.8245568211652E+02
 YYY      0.1287005010222E+03
 YYZ     -0.2311812535682E+02
 YZZ     -0.4405990554056E+02
 ZXX      0.6993759128418E+01
 ZXY      0.8269769082124E+02
 ZXZ     -0.3687199299773E+03
 ZYY     -0.3561141425008E+02
 ZYZ      0.1200091682437E+03
 ZZZ      0.2861765512166E+02

 roa end


 Electric Dipole Response Matrix (nonzero elements):

              1        2        3      
    1   10.4286   0.7772   0.1633
    2    0.7772  11.9848  -3.4082
    3    0.1633  -3.4082  15.6794
 
 Imaginary part:

              1        2        3      
    1    0.0212   0.0029  -0.0029
    2    0.0029   0.0299  -0.0135
    3   -0.0029  -0.0135   0.0396

 ------------------------------------------
 average:        12.69758 + I       0.03020


 DFT Linear Response polarizability / au 
 Frequency  =       0.0885580 / au
 Wavelength =     514.5029585 / nm
              X              Y              Z
 -----------------------------------------------
 X      10.4285715      0.7772248      0.1633030
 Y       0.7772248     11.9848119     -3.4081569
 Z       0.1633030     -3.4081569     15.6793615
 -----------------------------------------------
 Eigenvalues =      10.9733639      9.4015282     17.7178529
 Isotropic   =      12.6975817
 Anisotropic =       6.2482012
 -----------------------------------------------
 *************************

 DFT Linear Response IMAG polarizability / au 
 Frequency  =       0.0885580 / au
 Wavelength =     514.5029585 / nm
              X              Y              Z
 -----------------------------------------------
 X       0.0211812      0.0028810     -0.0029396
 Y       0.0028810      0.0298541     -0.0134610
 Z      -0.0029396     -0.0134610      0.0395628
 -----------------------------------------------
 Eigenvalues =       0.0211685      0.0198308      0.0495988
 Isotropic   =       0.0301994
 Anisotropic =       0.0237781
 -----------------------------------------------
 *************************

 Magnetic Dipole Response Matrix (nonzero elements):
 Optical rotation tensor Beta
 (Buckingham-Dunn version including dipole-quadrupole terms)

              1        2        3      
    1    0.2060   0.2917  -1.4393
    2    0.2917   1.0643   0.0121
    3   -1.4393   0.0121  -1.2144
 
 Imaginary part:

              1        2        3      
    1   -0.0059  -0.0540  -0.6345
    2   -0.3900  -1.0847  -1.4726
    3    0.6788   2.5260   1.1184

 ------------------------------------------
 average:         0.01865 + I       0.00927

 Principal components and PAS (Real part)
                 -2.11768
                  1.32823
                  0.84541
 ------------------------
 average:         0.01865

              1        2        3      
    1    0.5306   0.6350  -0.5615
    2   -0.0519   0.6855   0.7262
    3    0.8461  -0.3562   0.3966

 Chiral response tensor (Real part):

              1        2        3      
    1   -0.0750  -0.1459   0.7196
    2   -0.1459  -0.5042  -0.0061
    3    0.7196  -0.0061   0.6352
 
 Principal components and PAS (Real part)
                  1.08682
                 -0.63613
                 -0.39472
 ------------------------
 average:         0.01865

              1        2        3      
    1    0.5306   0.6350  -0.5615
    2   -0.0519   0.6855   0.7262
    3    0.8461  -0.3562   0.3966
 Exiting AOResponse driver routine

 Task  times  cpu:      345.5s     wall:      347.7s
 
 
                                NWChem Input Module
                                -------------------
 
 
 Summary of allocated global arrays
-----------------------------------
  No active global arrays



                         GA Statistics for process    0
                         ------------------------------

       create   destroy   get      put      acc     scatter   gather  read&inc
calls: 2444     2444     6.45e+06 5.32e+06 4.85e+05 1938        0     1953     
number of processes/call 1.00e+00 1.00e+00 1.00e+00 0.00e+00 0.00e+00
bytes total:             1.20e+09 1.67e+08 1.12e+09 5.92e+02 0.00e+00 1.56e+04
bytes remote:            0.00e+00 0.00e+00 0.00e+00 0.00e+00 0.00e+00 0.00e+00
Max memory consumed for GA by this process: 11498464 bytes
 
MA_summarize_allocated_blocks: starting scan ...
MA_summarize_allocated_blocks: scan completed: 0 heap blocks, 0 stack blocks
MA usage statistics:

	allocation statistics:
					      heap	     stack
					      ----	     -----
	current number of blocks	         0	         0
	maximum number of blocks	        24	        52
	current total bytes		         0	         0
	maximum total bytes		  20676928	  42215048
	maximum total K-bytes		     20677	     42216
	maximum total M-bytes		        21	        43
 
 
                                     CITATION
                                     --------
                Please cite the following reference when publishing
                           results obtained with NWChem:
 
                 M. Valiev, E.J. Bylaska, N. Govind, K. Kowalski,
              T.P. Straatsma, H.J.J. van Dam, D. Wang, J. Nieplocha,
                        E. Apra, T.L. Windus, W.A. de Jong
                 "NWChem: a comprehensive and scalable open-source
                  solution for large scale molecular simulations"
                      Comput. Phys. Commun. 181, 1477 (2010)
                           doi:10.1016/j.cpc.2010.04.018
 
                                      AUTHORS
                                      -------
          E. Apra, E. J. Bylaska, W. A. de Jong, N. Govind, K. Kowalski,
       T. P. Straatsma, M. Valiev, H. J. J. van Dam, D. Wang, T. L. Windus,
        J. Hammond, J. Autschbach, K. Bhaskaran-Nair, J. Brabec, K. Lopata,
    S. A. Fischer, S. Krishnamoorthy, M. Jacquelin, W. Ma, M. Klemm, O. Villa,
      Y. Chen, V. Anisimov, F. Aquino, S. Hirata, M. T. Hackler, V. Konjkov,
            D. Mejia-Rodriguez, T. Risthaus, M. Malagoli, A. Marenich,
   A. Otero-de-la-Roza, J. Mullin, P. Nichols, R. Peverati, J. Pittner, Y. Zhao,
        P.-D. Fan, A. Fonari, M. J. Williamson, R. J. Harrison, J. R. Rehr,
      M. Dupuis, D. Silverstein, D. M. A. Smith, J. Nieplocha, V. Tipparaju,
    M. Krishnan, B. E. Van Kuiken, A. Vazquez-Mayagoitia, L. Jensen, M. Swart,
      Q. Wu, T. Van Voorhis, A. A. Auer, M. Nooijen, L. D. Crosby, E. Brown,
      G. Cisneros, G. I. Fann, H. Fruchtl, J. Garza, K. Hirao, R. A. Kendall,
      J. A. Nichols, K. Tsemekhman, K. Wolinski, J. Anchell, D. E. Bernholdt,
      P. Borowski, T. Clark, D. Clerc, H. Dachsel, M. J. O. Deegan, K. Dyall,
    D. Elwood, E. Glendening, M. Gutowski, A. C. Hess, J. Jaffe, B. G. Johnson,
     J. Ju, R. Kobayashi, R. Kutteh, Z. Lin, R. Littlefield, X. Long, B. Meng,
      T. Nakajima, S. Niu, L. Pollack, M. Rosing, K. Glaesemann, G. Sandrone,
      M. Stave, H. Taylor, G. Thomas, J. H. van Lenthe, A. T. Wong, Z. Zhang.

 Total times  cpu:      383.9s     wall:      387.5s
