 argument  1 = h2o2_514.5_01.inp
 


============================== echo of input deck ==============================
echo
start h2o2_514.5_01.inp
title "h2o2 roa calculations at 514.5 nm, input generated by va with delta_type=2"
charge 0



geometry units angstrom nocenter noautoz noautosym nucleus point;symmetry c1
 O -8.053861  3.050620 -0.528239
 O -8.435203  2.112350  0.567300
 H -8.941116  3.215187 -0.908959
 H -8.108728  2.626644  1.334223
end

basis spherical
* library def2-TZVP
end

 set prop:newaoresp 1
 set aor:roadata T
 set cphf:maxsub 100
 set cphf:acc 1.0d-10
 set cphf:maxiter 100

property
    response 1   0.088558
    bdtensor
    convergence 1e-9
    damping 0.0037
    giao
end

dft
 direct
 mult 1
 xc becke88 lyp
 iterations 250
 tolerances tight
 grid xfine
 convergence nolevelshifting
 convergence energy 1e-8
 convergence gradient 1e-8


end

task dft gradient
task dft property
================================================================================


                                         
                                         
 
 
              Northwest Computational Chemistry Package (NWChem) 6.8
              ------------------------------------------------------
 
 
                    Environmental Molecular Sciences Laboratory
                       Pacific Northwest National Laboratory
                                Richland, WA 99352
 
                              Copyright (c) 1994-2017
                       Pacific Northwest National Laboratory
                            Battelle Memorial Institute
 
             NWChem is an open-source computational chemistry package
                        distributed under the terms of the
                      Educational Community License (ECL) 2.0
             A copy of the license is included with this distribution
                              in the LICENSE.TXT file
 
                                  ACKNOWLEDGMENT
                                  --------------

            This software and its documentation were developed at the
            EMSL at Pacific Northwest National Laboratory, a multiprogram
            national laboratory, operated for the U.S. Department of Energy
            by Battelle under Contract Number DE-AC05-76RL01830. Support
            for this work was provided by the Department of Energy Office
            of Biological and Environmental Research, Office of Basic
            Energy Sciences, and the Office of Advanced Scientific Computing.


           Job information
           ---------------

    hostname        = cpn-f11-17-01.cbls.ccr.buffalo.edu
    program         = /util/academic/nwchem/nwchem-6.8/bin/LINUX64/nwchem
    date            = Thu Feb 28 18:48:56 2019

    compiled        = Tue_Nov_06_14:59:08_2018
    source          = /util/academic/nwchem/nwchem-6.8
    nwchem branch   = 6.8
    nwchem revision = v6.8-47-gdf6c956
    ga revision     = ga-5.6.3
    use scalapack   = F
    input           = h2o2_514.5_01.inp
    prefix          = h2o2_514.5_01.inp.
    data base       = ./h2o2_514.5_01.inp.db
    status          = startup
    nproc           =        1
    time left       =     -1s



           Memory information
           ------------------

    heap     =   13107200 doubles =    100.0 Mbytes
    stack    =   13107197 doubles =    100.0 Mbytes
    global   =   26214400 doubles =    200.0 Mbytes (distinct from heap & stack)
    total    =   52428797 doubles =    400.0 Mbytes
    verify   = yes
    hardfail = no 


           Directory information
           ---------------------
 
  0 permanent = .
  0 scratch   = .
 
 
 
 
                                NWChem Input Module
                                -------------------
 
 
                         h2o2 roa calculations at 514.5 nm, input generated by va with delta_type=2
                         ---------------------------------

 Scaling coordinates for geometry "geometry" by  1.889725989
 (inverse scale =  0.529177249)

 
 
                             Geometry "geometry" -> ""
                             -------------------------
 
 Output coordinates in angstroms (scale by  1.889725989 to convert to a.u.)
 
  No.       Tag          Charge          X              Y              Z
 ---- ---------------- ---------- -------------- -------------- --------------
    1 O                    8.0000    -8.05386100     3.05062000    -0.52823900
    2 O                    8.0000    -8.43520300     2.11235000     0.56730000
    3 H                    1.0000    -8.94111600     3.21518700    -0.90895900
    4 H                    1.0000    -8.10872800     2.62664400     1.33422300
 
      Atomic Mass 
      ----------- 
 
      O                 15.994910
      H                  1.007825
 

 Effective nuclear repulsion energy (a.u.)      35.9901015154

            Nuclear Dipole moment (a.u.) 
            ----------------------------
        X                 Y               Z
 ---------------- ---------------- ----------------
  -281.4980354533    89.0922485597     1.3941491275
 
 
            XYZ format geometry
            -------------------
     4
 geometry
 O                    -8.05386100     3.05062000    -0.52823900
 O                    -8.43520300     2.11235000     0.56730000
 H                    -8.94111600     3.21518700    -0.90895900
 H                    -8.10872800     2.62664400     1.33422300
 
 ==============================================================================
                                internuclear distances
 ------------------------------------------------------------------------------
       center one      |      center two      | atomic units |  angstroms
 ------------------------------------------------------------------------------
    3 H                |   1 O                |     1.85082  |     0.97941
    4 H                |   2 O                |     1.85083  |     0.97942
 ------------------------------------------------------------------------------
                         number of included internuclear distances:          2
 ==============================================================================



  warning:::::::::::::: from_environment
  NWCHEM_BASIS_LIBRARY set to: <
 /util/academic/nwchem/nwchem-6.8/src/basis/libraries>
  but file does not exist !
  using .nwchemrc or compiled library


 Summary of "ao basis" -> "" (spherical)
 ------------------------------------------------------------------------------
       Tag                 Description            Shells   Functions and Types
 ---------------- ------------------------------  ------  ---------------------
 *                         def2-TZVP                  on all atoms 


 
                                 NWChem DFT Module
                                 -----------------
 
 
                         h2o2 roa calculations at 514.5 nm, input generated by va with delta_type=2
 
 
                      Basis "ao basis" -> "ao basis" (spherical)
                      -----
  O (Oxygen)
  ----------
            Exponent  Coefficients 
       -------------- ---------------------------------------------------------
  1 S  2.70323826E+04  0.000217
  1 S  4.05238714E+03  0.001684
  1 S  9.22327227E+02  0.008740
  1 S  2.61240710E+02  0.035240
  1 S  8.53546414E+01  0.111535
  1 S  3.10350352E+01  0.255890
 
  2 S  1.22608607E+01  0.397687
  2 S  4.99870760E+00  0.246278
 
  3 S  1.17031082E+00  1.000000
 
  4 S  4.64747410E-01  1.000000
 
  5 S  1.85045364E-01  1.000000
 
  6 P  6.32749548E+01  0.006069
  6 P  1.46270494E+01  0.041913
  6 P  4.45012235E+00  0.161538
  6 P  1.52757996E+00  0.357070
 
  7 P  5.29351179E-01  1.000000
 
  8 P  1.74784213E-01  1.000000
 
  9 D  2.31400000E+00  1.000000
 
 10 D  6.45000000E-01  1.000000
 
 11 F  1.42800000E+00  1.000000
 
  H (Hydrogen)
  ------------
            Exponent  Coefficients 
       -------------- ---------------------------------------------------------
  1 S  3.40613410E+01  0.006025
  1 S  5.12357460E+00  0.045021
  1 S  1.16466260E+00  0.201897
 
  2 S  3.27230410E-01  1.000000
 
  3 S  1.03072410E-01  1.000000
 
  4 P  8.00000000E-01  1.000000
 


 Summary of "ao basis" -> "ao basis" (spherical)
 ------------------------------------------------------------------------------
       Tag                 Description            Shells   Functions and Types
 ---------------- ------------------------------  ------  ---------------------
 O                         def2-TZVP                11       31   5s3p2d1f
 H                         def2-TZVP                 4        6   3s1p




 Summary of "ao basis" -> "ao basis" (spherical)
 ------------------------------------------------------------------------------
       Tag                 Description            Shells   Functions and Types
 ---------------- ------------------------------  ------  ---------------------
 O                         def2-TZVP                11       31   5s3p2d1f
 H                         def2-TZVP                 4        6   3s1p


  Caching 1-el integrals 
  itol2e modified to match energy
  convergence criterion.
  tol_rho modified to match energy
  convergence criterion.
 
            General Information
            -------------------
          SCF calculation type: DFT
          Wavefunction type:  closed shell.
          No. of atoms     :     4
          No. of electrons :    18
           Alpha electrons :     9
            Beta electrons :     9
          Charge           :     0
          Spin multiplicity:     1
          Use of symmetry is: off; symmetry adaption is: off
          Maximum number of iterations: 250
          This is a Direct SCF calculation.
          AO basis - number of functions:    74
                     number of shells:    30
          Convergence on energy requested:  1.00D-08
          Convergence on density requested:  1.00D-05
          Convergence on gradient requested:  1.00D-08
 
              XC Information
              --------------
                    Becke 1988 Exchange Functional  1.000          
              Lee-Yang-Parr Correlation Functional  1.000          
 
             Grid Information
             ----------------
          Grid used for XC integration:  xfine     
          Radial quadrature: Mura-Knowles        
          Angular quadrature: Lebedev. 
          Tag              B.-S. Rad. Rad. Pts. Rad. Cut. Ang. Pts.
          ---              ---------- --------- --------- ---------
          O                   0.60      100           8.0      1454
          H                   0.35      100           9.0      1202
          Grid pruning is: on 
          Number of quadrature shells:   400
          Spatial weights used:  Erf1
 
          Convergence Information
          -----------------------
          Convergence aids based upon iterative change in 
          total energy or number of iterations. 
          Levelshifting, if invoked, occurs when the 
          HOMO/LUMO gap drops below (HL_TOL):  1.00D-02
          DIIS, if invoked, will attempt to extrapolate 
          using up to (NFOCK): 10 stored Fock matrices.

                    Damping( 0%)  Levelshifting(0.0)       DIIS
                  --------------- ------------------- ---------------
          dE  on:    start             N/A                start   
          dE off:    2 iters           N/A              250 iters 

 
      Screening Tolerance Information
      -------------------------------
          Density screening/tol_rho:  1.00D-11
          AO Gaussian exp screening on grid/accAOfunc:  18
          CD Gaussian exp screening on grid/accCDfunc:  20
          XC Gaussian exp screening on grid/accXCfunc:  20
          Schwarz screening/accCoul:  1.00D-09

 
      Superposition of Atomic Density Guess
      -------------------------------------
 
 Sum of atomic energies:        -150.56823290
 
      Non-variational initial energy
      ------------------------------

 Total energy =    -150.654693
 1-e energy   =    -278.544048
 2-e energy   =      91.899254
 HOMO         =      -0.357122
 LUMO         =      -0.045941
 
   Time after variat. SCF:      1.3
   Time prior to 1st pass:      1.3

 Grid_pts file          = ./h2o2_514.5_01.inp.gridpts.0
 Record size in doubles =  12289        No. of grid_pts per rec  =   3070
 Max. records in memory =    210        Max. recs in file   =   3881815


           Memory utilization after 1st SCF pass: 
           Heap Space remaining (MW):       10.52            10522928
          Stack Space remaining (MW):       13.11            13106668

   convergence    iter        energy       DeltaE   RMS-Dens  Diis-err    time
 ---------------- ----- ----------------- --------- --------- ---------  ------
 d= 0,ls=0.0,diis     1   -151.5599599151 -1.88D+02  7.32D-03  6.78D-01     5.0
 d= 0,ls=0.0,diis     2   -151.5951043133 -3.51D-02  2.61D-03  5.95D-02     8.5
 d= 0,ls=0.0,diis     3   -151.5996897349 -4.59D-03  1.02D-03  1.64D-02    11.9
 d= 0,ls=0.0,diis     4   -151.6008261367 -1.14D-03  3.57D-04  3.74D-03    15.3
 d= 0,ls=0.0,diis     5   -151.6011391441 -3.13D-04  5.11D-05  6.65D-05    18.8
 d= 0,ls=0.0,diis     6   -151.6011458167 -6.67D-06  5.26D-06  7.37D-07    22.2
 d= 0,ls=0.0,diis     7   -151.6011458826 -6.59D-08  1.19D-06  1.19D-08    25.6
 d= 0,ls=0.0,diis     8   -151.6011458835 -9.05D-10  4.31D-07  2.20D-09    29.0


         Total DFT energy =     -151.601145883526
      One electron energy =     -279.843019712142
           Coulomb energy =      110.063406373934
    Exchange-Corr. energy =      -17.811634060762
 Nuclear repulsion energy =       35.990101515443

 Numeric. integr. density =       17.999999997148

     Total iterative time =     27.8s


 
                       DFT Final Molecular Orbital Analysis
                       ------------------------------------
 
 Vector    1  Occ=2.000000D+00  E=-1.883180D+01
              MO Center= -8.2D+00,  2.8D+00, -1.9D-01, r^2= 4.9D-01
   Bfn.  Coefficient  Atom+Function         Bfn.  Coefficient  Atom+Function  
  ----- ------------  ---------------      ----- ------------  ---------------
     2      0.529543  1 O  s                  1      0.361005  1 O  s          
    33     -0.357009  2 O  s                 32     -0.243428  2 O  s          
     3      0.031574  1 O  s          
 
 Vector    2  Occ=2.000000D+00  E=-1.883177D+01
              MO Center= -8.3D+00,  2.4D+00,  2.2D-01, r^2= 4.9D-01
   Bfn.  Coefficient  Atom+Function         Bfn.  Coefficient  Atom+Function  
  ----- ------------  ---------------      ----- ------------  ---------------
    33      0.529679  2 O  s                 32      0.360987  2 O  s          
     2      0.357211  1 O  s                  1      0.243402  1 O  s          
    34      0.030037  2 O  s          
 
 Vector    3  Occ=2.000000D+00  E=-1.007632D+00
              MO Center= -8.3D+00,  2.6D+00,  5.2D-02, r^2= 8.2D-01
   Bfn.  Coefficient  Atom+Function         Bfn.  Coefficient  Atom+Function  
  ----- ------------  ---------------      ----- ------------  ---------------
     4      0.312768  1 O  s                 35      0.312760  2 O  s          
     3      0.239256  1 O  s                 34      0.239248  2 O  s          
     2     -0.163038  1 O  s                 33     -0.163033  2 O  s          
     5      0.096826  1 O  s                 36      0.096823  2 O  s          
    38      0.071035  2 O  py                 1     -0.070048  1 O  s          
 
 Vector    4  Occ=2.000000D+00  E=-8.191826D-01
              MO Center= -8.3D+00,  2.7D+00,  7.0D-02, r^2= 1.3D+00
   Bfn.  Coefficient  Atom+Function         Bfn.  Coefficient  Atom+Function  
  ----- ------------  ---------------      ----- ------------  ---------------
     4      0.326798  1 O  s                 35     -0.326805  2 O  s          
     3      0.254025  1 O  s                 34     -0.254029  2 O  s          
     2     -0.167206  1 O  s                 33      0.167210  2 O  s          
     5      0.140745  1 O  s                 36     -0.140747  2 O  s          
    63      0.090890  3 H  s                 69     -0.090891  4 H  s          
 
 Vector    5  Occ=2.000000D+00  E=-4.722527D-01
              MO Center= -8.3D+00,  2.7D+00,  5.9D-02, r^2= 1.3D+00
   Bfn.  Coefficient  Atom+Function         Bfn.  Coefficient  Atom+Function  
  ----- ------------  ---------------      ----- ------------  ---------------
    39      0.311104  2 O  pz                42      0.243537  2 O  pz         
     7      0.205803  1 O  py                 8     -0.204240  1 O  pz         
    10      0.165816  1 O  py                11     -0.161409  1 O  pz         
    64      0.130113  3 H  s                 70      0.130107  4 H  s          
     6     -0.119625  1 O  px                45      0.112031  2 O  pz         
 
 Vector    6  Occ=2.000000D+00  E=-4.343547D-01
              MO Center= -8.3D+00,  2.6D+00,  3.6D-02, r^2= 1.3D+00
   Bfn.  Coefficient  Atom+Function         Bfn.  Coefficient  Atom+Function  
  ----- ------------  ---------------      ----- ------------  ---------------
     6      0.252379  1 O  px                 9      0.188144  1 O  px         
    37      0.178922  2 O  px                 4      0.154638  1 O  s          
    35     -0.154636  2 O  s                  5      0.153667  1 O  s          
    36     -0.153663  2 O  s                 39      0.153930  2 O  pz         
    38      0.149416  2 O  py                40      0.138094  2 O  px         
 
 Vector    7  Occ=2.000000D+00  E=-3.643934D-01
              MO Center= -8.2D+00,  2.5D+00, -1.9D-02, r^2= 1.3D+00
   Bfn.  Coefficient  Atom+Function         Bfn.  Coefficient  Atom+Function  
  ----- ------------  ---------------      ----- ------------  ---------------
    38      0.319295  2 O  py                41      0.249761  2 O  py         
     6     -0.241637  1 O  px                 8      0.212167  1 O  pz         
     9     -0.184953  1 O  px                11      0.171848  1 O  pz         
    44      0.165854  2 O  py                 5     -0.130998  1 O  s          
    36     -0.131005  2 O  s                 12     -0.120139  1 O  px         
 
 Vector    8  Occ=2.000000D+00  E=-2.779741D-01
              MO Center= -8.3D+00,  2.6D+00,  5.5D-02, r^2= 1.3D+00
   Bfn.  Coefficient  Atom+Function         Bfn.  Coefficient  Atom+Function  
  ----- ------------  ---------------      ----- ------------  ---------------
    37      0.343763  2 O  px                 7     -0.271386  1 O  py         
    40      0.267323  2 O  px                10     -0.217187  1 O  py         
    43      0.212551  2 O  px                13     -0.171887  1 O  py         
     8     -0.157154  1 O  pz                 6     -0.145895  1 O  px         
     5     -0.123501  1 O  s                 36     -0.123509  2 O  s          
 
 Vector    9  Occ=2.000000D+00  E=-2.289644D-01
              MO Center= -8.2D+00,  2.6D+00,  7.7D-03, r^2= 1.2D+00
   Bfn.  Coefficient  Atom+Function         Bfn.  Coefficient  Atom+Function  
  ----- ------------  ---------------      ----- ------------  ---------------
    37      0.280204  2 O  px                 7      0.275098  1 O  py         
    40      0.221205  2 O  px                38     -0.219571  2 O  py         
    10      0.214834  1 O  py                43      0.204972  2 O  px         
     8      0.202066  1 O  pz                13      0.190829  1 O  py         
    41     -0.168136  2 O  py                11      0.159381  1 O  pz         
 
 Vector   10  Occ=0.000000D+00  E=-6.048862D-02
              MO Center= -8.3D+00,  2.6D+00,  4.9D-02, r^2= 1.7D+00
   Bfn.  Coefficient  Atom+Function         Bfn.  Coefficient  Atom+Function  
  ----- ------------  ---------------      ----- ------------  ---------------
     5      0.498427  1 O  s                 36     -0.498423  2 O  s          
    44     -0.325913  2 O  py                14      0.297246  1 O  pz         
    65     -0.289404  3 H  s                 71      0.289402  4 H  s          
    13     -0.286556  1 O  py                45      0.274860  2 O  pz         
     8      0.261705  1 O  pz                38     -0.256306  2 O  py         
 
 Vector   11  Occ=0.000000D+00  E=-3.630214D-03
              MO Center= -8.6D+00,  3.0D+00,  2.7D-01, r^2= 4.3D+00
   Bfn.  Coefficient  Atom+Function         Bfn.  Coefficient  Atom+Function  
  ----- ------------  ---------------      ----- ------------  ---------------
    65      0.998293  3 H  s                 71      0.998272  4 H  s          
     5     -0.644983  1 O  s                 36     -0.644978  2 O  s          
    12      0.261322  1 O  px                45     -0.237714  2 O  pz         
    44     -0.145154  2 O  py                39     -0.130177  2 O  pz         
     6      0.126054  1 O  px                 3     -0.122748  1 O  s          
 
 Vector   12  Occ=0.000000D+00  E= 3.963215D-02
              MO Center= -8.6D+00,  3.0D+00,  2.5D-01, r^2= 4.4D+00
   Bfn.  Coefficient  Atom+Function         Bfn.  Coefficient  Atom+Function  
  ----- ------------  ---------------      ----- ------------  ---------------
    65      1.188979  3 H  s                 71     -1.188997  4 H  s          
    45      0.446338  2 O  pz                 5     -0.417865  1 O  s          
    36      0.417877  2 O  s                 14      0.312218  1 O  pz         
    12      0.255245  1 O  px                39      0.237844  2 O  pz         
    13     -0.203224  1 O  py                 8      0.173843  1 O  pz         
 
 Vector   13  Occ=0.000000D+00  E= 3.361015D-01
              MO Center= -8.4D+00,  2.8D+00,  1.4D-01, r^2= 3.8D+00
   Bfn.  Coefficient  Atom+Function         Bfn.  Coefficient  Atom+Function  
  ----- ------------  ---------------      ----- ------------  ---------------
    64      1.197643  3 H  s                 70      1.197612  4 H  s          
    65     -0.667093  3 H  s                 71     -0.667077  4 H  s          
    45     -0.617782  2 O  pz                14      0.545621  1 O  pz         
     9      0.355750  1 O  px                41     -0.322473  2 O  py         
     4     -0.319158  1 O  s                 35     -0.319160  2 O  s          
 
 Vector   14  Occ=0.000000D+00  E= 3.451118D-01
              MO Center= -8.3D+00,  2.6D+00,  5.3D-02, r^2= 3.6D+00
   Bfn.  Coefficient  Atom+Function         Bfn.  Coefficient  Atom+Function  
  ----- ------------  ---------------      ----- ------------  ---------------
    64      1.440836  3 H  s                 70     -1.440815  4 H  s          
    65     -0.797621  3 H  s                 71      0.797609  4 H  s          
     5     -0.762858  1 O  s                 36      0.762859  2 O  s          
    12      0.741315  1 O  px                44      0.731558  2 O  py         
    43      0.450563  2 O  px                 4     -0.382908  1 O  s          
 
 Vector   15  Occ=0.000000D+00  E= 3.517665D-01
              MO Center= -8.3D+00,  2.7D+00,  7.6D-02, r^2= 3.9D+00
   Bfn.  Coefficient  Atom+Function         Bfn.  Coefficient  Atom+Function  
  ----- ------------  ---------------      ----- ------------  ---------------
    13      0.885093  1 O  py                44      0.765255  2 O  py         
    45     -0.767217  2 O  pz                14     -0.698982  1 O  pz         
     5     -0.678696  1 O  s                 36      0.678706  2 O  s          
    43      0.543543  2 O  px                64     -0.514398  3 H  s          
    70      0.514512  4 H  s                 12      0.444577  1 O  px         
 
 Vector   16  Occ=0.000000D+00  E= 3.725921D-01
              MO Center= -8.0D+00,  2.3D+00, -1.3D-01, r^2= 2.6D+00
   Bfn.  Coefficient  Atom+Function         Bfn.  Coefficient  Atom+Function  
  ----- ------------  ---------------      ----- ------------  ---------------
    44      0.612519  2 O  py                12     -0.547112  1 O  px         
     4      0.442236  1 O  s                 35      0.442234  2 O  s          
    13      0.421993  1 O  py                 5     -0.327957  1 O  s          
    36     -0.327957  2 O  s                 41     -0.320859  2 O  py         
    43     -0.307448  2 O  px                45      0.300764  2 O  pz         
 
 Vector   17  Occ=0.000000D+00  E= 4.119374D-01
              MO Center= -8.3D+00,  2.6D+00,  3.8D-02, r^2= 3.0D+00
   Bfn.  Coefficient  Atom+Function         Bfn.  Coefficient  Atom+Function  
  ----- ------------  ---------------      ----- ------------  ---------------
    45     -0.877952  2 O  pz                14      0.867062  1 O  pz         
    12      0.764911  1 O  px                43     -0.749041  2 O  px         
     4     -0.368709  1 O  s                 11     -0.368986  1 O  pz         
    35     -0.368708  2 O  s                 42      0.355163  2 O  pz         
    40      0.279520  2 O  px                 9     -0.259459  1 O  px         
 
 Vector   18  Occ=0.000000D+00  E= 4.437954D-01
              MO Center= -8.2D+00,  2.6D+00,  2.2D-02, r^2= 3.5D+00
   Bfn.  Coefficient  Atom+Function         Bfn.  Coefficient  Atom+Function  
  ----- ------------  ---------------      ----- ------------  ---------------
    44      1.210177  2 O  py                14     -1.005860  1 O  pz         
     5     -0.820023  1 O  s                 36      0.819998  2 O  s          
    12      0.778531  1 O  px                43     -0.644801  2 O  px         
    13     -0.512850  1 O  py                64      0.408752  3 H  s          
    70     -0.408766  4 H  s                 40      0.363581  2 O  px         
 
 Vector   19  Occ=0.000000D+00  E= 4.653227D-01
              MO Center= -8.3D+00,  2.7D+00,  8.3D-02, r^2= 4.1D+00
   Bfn.  Coefficient  Atom+Function         Bfn.  Coefficient  Atom+Function  
  ----- ------------  ---------------      ----- ------------  ---------------
     5      0.977777  1 O  s                 36      0.977761  2 O  s          
    65     -0.812923  3 H  s                 71     -0.812900  4 H  s          
    13      0.766003  1 O  py                64      0.674473  3 H  s          
    70      0.674474  4 H  s                 43     -0.671075  2 O  px         
     4     -0.618430  1 O  s                 35     -0.618426  2 O  s          
 
 Vector   20  Occ=0.000000D+00  E= 5.229083D-01
              MO Center= -8.3D+00,  2.7D+00,  8.3D-02, r^2= 4.0D+00
   Bfn.  Coefficient  Atom+Function         Bfn.  Coefficient  Atom+Function  
  ----- ------------  ---------------      ----- ------------  ---------------
    45      1.551237  2 O  pz                65      1.338605  3 H  s          
    71     -1.338602  4 H  s                 12      1.056679  1 O  px         
     5     -1.001258  1 O  s                 36      1.001233  2 O  s          
    14      0.970837  1 O  pz                13     -0.702713  1 O  py         
     4      0.520121  1 O  s                 35     -0.520107  2 O  s          
 
 Vector   21  Occ=0.000000D+00  E= 5.842544D-01
              MO Center= -8.4D+00,  2.8D+00,  1.4D-01, r^2= 3.0D+00
   Bfn.  Coefficient  Atom+Function         Bfn.  Coefficient  Atom+Function  
  ----- ------------  ---------------      ----- ------------  ---------------
     5      2.498717  1 O  s                 36      2.498678  2 O  s          
     4     -1.464143  1 O  s                 35     -1.464134  2 O  s          
    12     -1.351519  1 O  px                64     -1.032212  3 H  s          
    70     -1.032207  4 H  s                 44      0.893014  2 O  py         
    65     -0.844010  3 H  s                 71     -0.844023  4 H  s          
 
 Vector   22  Occ=0.000000D+00  E= 6.702645D-01
              MO Center= -8.2D+00,  2.5D+00, -3.6D-02, r^2= 3.0D+00
   Bfn.  Coefficient  Atom+Function         Bfn.  Coefficient  Atom+Function  
  ----- ------------  ---------------      ----- ------------  ---------------
     5      5.596066  1 O  s                 36     -5.596091  2 O  s          
     4     -1.830760  1 O  s                 35      1.830782  2 O  s          
    44     -1.723554  2 O  py                14      1.713191  1 O  pz         
    45      1.614036  2 O  pz                13     -1.549255  1 O  py         
    12     -0.907229  1 O  px                64     -0.909792  3 H  s          
 
 Vector   23  Occ=0.000000D+00  E= 1.009707D+00
              MO Center= -8.3D+00,  2.7D+00,  9.0D-02, r^2= 1.5D+00
   Bfn.  Coefficient  Atom+Function         Bfn.  Coefficient  Atom+Function  
  ----- ------------  ---------------      ----- ------------  ---------------
    22      0.327198  1 O  d  0              68     -0.315682  3 H  pz         
    64     -0.313560  3 H  s                 70      0.313556  4 H  s          
    53     -0.281459  2 O  d  0              74     -0.257610  4 H  pz         
    23     -0.249575  1 O  d  1              54      0.247925  2 O  d  1       
    73      0.226828  4 H  py                51      0.218009  2 O  d -2       
 
 Vector   24  Occ=0.000000D+00  E= 1.083668D+00
              MO Center= -8.3D+00,  2.7D+00,  6.1D-02, r^2= 1.5D+00
   Bfn.  Coefficient  Atom+Function         Bfn.  Coefficient  Atom+Function  
  ----- ------------  ---------------      ----- ------------  ---------------
    54      0.341847  2 O  d  1              67      0.338418  3 H  py         
    20     -0.302602  1 O  d -2              22     -0.283581  1 O  d  0       
    72     -0.271041  4 H  px                52      0.237718  2 O  d -1       
    74      0.203159  4 H  pz                53      0.201145  2 O  d  0       
    64     -0.188187  3 H  s                 70     -0.188179  4 H  s          
 
 Vector   25  Occ=0.000000D+00  E= 1.189024D+00
              MO Center= -8.3D+00,  2.6D+00,  5.3D-02, r^2= 1.5D+00
   Bfn.  Coefficient  Atom+Function         Bfn.  Coefficient  Atom+Function  
  ----- ------------  ---------------      ----- ------------  ---------------
    55     -0.448676  2 O  d  2              23      0.424561  1 O  d  1       
     5     -0.347809  1 O  s                 36     -0.347825  2 O  s          
    24      0.246051  1 O  d  2              68      0.233982  3 H  pz         
    64      0.228804  3 H  s                 70      0.228807  4 H  s          
    44     -0.225520  2 O  py                12      0.223500  1 O  px         
 
 Vector   26  Occ=0.000000D+00  E= 1.220417D+00
              MO Center= -8.4D+00,  2.7D+00,  1.0D-01, r^2= 1.7D+00
   Bfn.  Coefficient  Atom+Function         Bfn.  Coefficient  Atom+Function  
  ----- ------------  ---------------      ----- ------------  ---------------
     5      0.672077  1 O  s                 36     -0.672066  2 O  s          
    72      0.400374  4 H  px                20     -0.385628  1 O  d -2       
    67      0.354306  3 H  py                43     -0.266523  2 O  px         
    55      0.250935  2 O  d  2              13     -0.243613  1 O  py         
    51      0.239147  2 O  d -2              68      0.230312  3 H  pz         
 
 Vector   27  Occ=0.000000D+00  E= 1.519652D+00
              MO Center= -8.4D+00,  2.8D+00,  1.2D-01, r^2= 2.5D+00
   Bfn.  Coefficient  Atom+Function         Bfn.  Coefficient  Atom+Function  
  ----- ------------  ---------------      ----- ------------  ---------------
    64      2.031148  3 H  s                 70      2.030731  4 H  s          
    45     -0.689524  2 O  pz                12      0.656302  1 O  px         
     4     -0.621289  1 O  s                 35     -0.621221  2 O  s          
    52     -0.620339  2 O  d -1              24     -0.521559  1 O  d  2       
     5     -0.494651  1 O  s                 36     -0.494420  2 O  s          
 
 Vector   28  Occ=0.000000D+00  E= 1.535702D+00
              MO Center= -8.4D+00,  2.7D+00,  1.1D-01, r^2= 2.5D+00
   Bfn.  Coefficient  Atom+Function         Bfn.  Coefficient  Atom+Function  
  ----- ------------  ---------------      ----- ------------  ---------------
    64      2.159776  3 H  s                 70     -2.160135  4 H  s          
     5     -1.271940  1 O  s                 36      1.272022  2 O  s          
    12      0.725633  1 O  px                24     -0.627222  1 O  d  2       
    44      0.608314  2 O  py                52      0.512900  2 O  d -1       
    23      0.427540  1 O  d  1              65     -0.421801  3 H  s          
 
 Vector   29  Occ=0.000000D+00  E= 1.594582D+00
              MO Center= -8.4D+00,  2.7D+00,  1.0D-01, r^2= 1.7D+00
   Bfn.  Coefficient  Atom+Function         Bfn.  Coefficient  Atom+Function  
  ----- ------------  ---------------      ----- ------------  ---------------
    73      0.414438  4 H  py                68      0.386632  3 H  pz         
    51      0.382320  2 O  d -2              21     -0.333599  1 O  d -1       
    54      0.323627  2 O  d  1              74     -0.276535  4 H  pz         
    12     -0.269968  1 O  px                45      0.269750  2 O  pz         
    22     -0.267498  1 O  d  0              14     -0.262760  1 O  pz         
 
 Vector   30  Occ=0.000000D+00  E= 1.643712D+00
              MO Center= -8.3D+00,  2.6D+00,  5.1D-02, r^2= 1.6D+00
   Bfn.  Coefficient  Atom+Function         Bfn.  Coefficient  Atom+Function  
  ----- ------------  ---------------      ----- ------------  ---------------
    64      0.644898  3 H  s                 70      0.644904  4 H  s          
    21      0.567374  1 O  d -1               5     -0.465577  1 O  s          
    36     -0.465545  2 O  s                 53     -0.455208  2 O  d  0       
    44     -0.363278  2 O  py                55      0.358037  2 O  d  2       
    24     -0.331396  1 O  d  2              12      0.317330  1 O  px         
 
 Vector   31  Occ=0.000000D+00  E= 1.749608D+00
              MO Center= -8.3D+00,  2.7D+00,  8.8D-02, r^2= 1.8D+00
   Bfn.  Coefficient  Atom+Function         Bfn.  Coefficient  Atom+Function  
  ----- ------------  ---------------      ----- ------------  ---------------
     5      1.212461  1 O  s                 36     -1.212466  2 O  s          
    13     -0.636898  1 O  py                45      0.566816  2 O  pz         
    22     -0.480555  1 O  d  0              51     -0.482340  2 O  d -2       
    14      0.415987  1 O  pz                73      0.415908  4 H  py         
    43     -0.381611  2 O  px                44     -0.371784  2 O  py         
 
 Vector   32  Occ=0.000000D+00  E= 1.853544D+00
              MO Center= -8.3D+00,  2.7D+00,  6.4D-02, r^2= 2.2D+00
   Bfn.  Coefficient  Atom+Function         Bfn.  Coefficient  Atom+Function  
  ----- ------------  ---------------      ----- ------------  ---------------
     5      2.193661  1 O  s                 36     -2.193658  2 O  s          
     4     -1.124445  1 O  s                 35      1.124436  2 O  s          
    44     -0.994789  2 O  py                14      0.879896  1 O  pz         
    64      0.738070  3 H  s                 70     -0.738065  4 H  s          
    12     -0.600242  1 O  px                 9      0.586206  1 O  px         
 
 Vector   33  Occ=0.000000D+00  E= 1.956710D+00
              MO Center= -8.4D+00,  2.8D+00,  1.5D-01, r^2= 1.9D+00
   Bfn.  Coefficient  Atom+Function         Bfn.  Coefficient  Atom+Function  
  ----- ------------  ---------------      ----- ------------  ---------------
    64      0.727299  3 H  s                 70      0.727289  4 H  s          
    72     -0.730765  4 H  px                67      0.518136  3 H  py         
    68      0.512788  3 H  pz                20      0.444774  1 O  d -2       
     4     -0.383341  1 O  s                 35     -0.383330  2 O  s          
    42     -0.374409  2 O  pz                 9      0.369275  1 O  px         
 
 Vector   34  Occ=0.000000D+00  E= 2.010020D+00
              MO Center= -8.3D+00,  2.6D+00,  5.6D-02, r^2= 1.9D+00
   Bfn.  Coefficient  Atom+Function         Bfn.  Coefficient  Atom+Function  
  ----- ------------  ---------------      ----- ------------  ---------------
     5      1.152314  1 O  s                 36     -1.152317  2 O  s          
    20      0.619157  1 O  d -2              67      0.608421  3 H  py         
    64     -0.556232  3 H  s                 70      0.556222  4 H  s          
    72      0.538602  4 H  px                13     -0.502266  1 O  py         
    44     -0.497988  2 O  py                54      0.472371  2 O  d  1       
 
 Vector   35  Occ=0.000000D+00  E= 2.072929D+00
              MO Center= -8.3D+00,  2.7D+00,  7.4D-02, r^2= 1.8D+00
   Bfn.  Coefficient  Atom+Function         Bfn.  Coefficient  Atom+Function  
  ----- ------------  ---------------      ----- ------------  ---------------
    68      0.564784  3 H  pz                64      0.541695  3 H  s          
    70     -0.541653  4 H  s                 53     -0.504241  2 O  d  0       
    55     -0.492428  2 O  d  2              23     -0.489372  1 O  d  1       
    24     -0.480433  1 O  d  2              74      0.418854  4 H  pz         
    73     -0.394287  4 H  py                 4     -0.382193  1 O  s          
 
 Vector   36  Occ=0.000000D+00  E= 2.096794D+00
              MO Center= -8.3D+00,  2.6D+00,  3.2D-02, r^2= 2.1D+00
   Bfn.  Coefficient  Atom+Function         Bfn.  Coefficient  Atom+Function  
  ----- ------------  ---------------      ----- ------------  ---------------
    64      0.876816  3 H  s                 70      0.876819  4 H  s          
     9      0.784567  1 O  px                42     -0.632363  2 O  pz         
     4     -0.608556  1 O  s                 35     -0.608567  2 O  s          
    73     -0.578810  4 H  py                66      0.540330  3 H  px         
    22     -0.480923  1 O  d  0              41     -0.447178  2 O  py         
 
 Vector   37  Occ=0.000000D+00  E= 2.187775D+00
              MO Center= -8.4D+00,  2.8D+00,  1.3D-01, r^2= 2.3D+00
   Bfn.  Coefficient  Atom+Function         Bfn.  Coefficient  Atom+Function  
  ----- ------------  ---------------      ----- ------------  ---------------
    64      1.557859  3 H  s                 70     -1.557807  4 H  s          
     5     -1.308554  1 O  s                 36      1.308550  2 O  s          
     4     -0.898453  1 O  s                 35      0.898419  2 O  s          
    42      0.844995  2 O  pz                 9      0.761101  1 O  px         
    45     -0.750150  2 O  pz                66      0.728161  3 H  px         
 
 Vector   38  Occ=0.000000D+00  E= 2.225446D+00
              MO Center= -8.3D+00,  2.7D+00,  8.2D-02, r^2= 2.0D+00
   Bfn.  Coefficient  Atom+Function         Bfn.  Coefficient  Atom+Function  
  ----- ------------  ---------------      ----- ------------  ---------------
    64      1.343779  3 H  s                 70      1.343860  4 H  s          
    42     -0.771501  2 O  pz                 4     -0.760554  1 O  s          
    35     -0.760591  2 O  s                 74     -0.687463  4 H  pz         
     9      0.585873  1 O  px                10     -0.584781  1 O  py         
    68      0.488384  3 H  pz                20     -0.445603  1 O  d -2       
 
 Vector   39  Occ=0.000000D+00  E= 2.385519D+00
              MO Center= -8.3D+00,  2.6D+00,  4.1D-02, r^2= 1.8D+00
   Bfn.  Coefficient  Atom+Function         Bfn.  Coefficient  Atom+Function  
  ----- ------------  ---------------      ----- ------------  ---------------
    64      1.037603  3 H  s                 70      1.037624  4 H  s          
    11      0.854539  1 O  pz                 4     -0.728761  1 O  s          
    35     -0.728758  2 O  s                 40     -0.673055  2 O  px         
    38     -0.644994  2 O  py                41      0.610747  2 O  py         
    74     -0.556953  4 H  pz                66      0.542312  3 H  px         
 
 Vector   40  Occ=0.000000D+00  E= 2.404363D+00
              MO Center= -8.3D+00,  2.6D+00,  4.5D-02, r^2= 1.9D+00
   Bfn.  Coefficient  Atom+Function         Bfn.  Coefficient  Atom+Function  
  ----- ------------  ---------------      ----- ------------  ---------------
    64      0.905166  3 H  s                 70     -0.905119  4 H  s          
    45      0.746139  2 O  pz                74      0.689959  4 H  pz         
    66      0.627448  3 H  px                 4     -0.608746  1 O  s          
    35      0.608683  2 O  s                  6      0.582483  1 O  px         
    12      0.585246  1 O  px                14      0.541877  1 O  pz         
 
 Vector   41  Occ=0.000000D+00  E= 2.429235D+00
              MO Center= -8.3D+00,  2.6D+00,  5.2D-02, r^2= 1.4D+00
   Bfn.  Coefficient  Atom+Function         Bfn.  Coefficient  Atom+Function  
  ----- ------------  ---------------      ----- ------------  ---------------
     4      1.050975  1 O  s                 35      1.050991  2 O  s          
    41      0.706248  2 O  py                64     -0.706239  3 H  s          
    70     -0.706244  4 H  s                 39      0.670150  2 O  pz         
     8     -0.613439  1 O  pz                11      0.566324  1 O  pz         
     3     -0.553800  1 O  s                 34     -0.553806  2 O  s          
 
 Vector   42  Occ=0.000000D+00  E= 2.564972D+00
              MO Center= -8.3D+00,  2.6D+00,  5.5D-02, r^2= 1.8D+00
   Bfn.  Coefficient  Atom+Function         Bfn.  Coefficient  Atom+Function  
  ----- ------------  ---------------      ----- ------------  ---------------
    64     -1.429773  3 H  s                 70     -1.430128  4 H  s          
     5      1.372622  1 O  s                 36      1.373238  2 O  s          
    66     -0.945924  3 H  px                 3      0.863617  1 O  s          
    34      0.863834  2 O  s                  4     -0.718201  1 O  s          
    35     -0.718429  2 O  s                 74      0.673389  4 H  pz         
 
 Vector   43  Occ=0.000000D+00  E= 2.569882D+00
              MO Center= -8.5D+00,  2.8D+00,  1.7D-01, r^2= 1.5D+00
   Bfn.  Coefficient  Atom+Function         Bfn.  Coefficient  Atom+Function  
  ----- ------------  ---------------      ----- ------------  ---------------
     5      1.914399  1 O  s                 36     -1.913899  2 O  s          
    40     -1.036729  2 O  px                64     -1.038556  3 H  s          
    70      1.038073  4 H  s                 10     -0.810855  1 O  py         
     4     -0.778068  1 O  s                 35      0.777764  2 O  s          
     3      0.712817  1 O  s                 34     -0.712484  2 O  s          
 
 Vector   44  Occ=0.000000D+00  E= 2.674308D+00
              MO Center= -8.1D+00,  2.4D+00, -9.9D-02, r^2= 1.5D+00
   Bfn.  Coefficient  Atom+Function         Bfn.  Coefficient  Atom+Function  
  ----- ------------  ---------------      ----- ------------  ---------------
     5      2.693567  1 O  s                 36     -2.693522  2 O  s          
     4     -2.077594  1 O  s                 35      2.077510  2 O  s          
     3      1.357035  1 O  s                 34     -1.356985  2 O  s          
    41     -0.979855  2 O  py                 9     -0.762327  1 O  px         
    11      0.621892  1 O  pz                13     -0.591323  1 O  py         
 
 Vector   45  Occ=0.000000D+00  E= 2.717350D+00
              MO Center= -8.3D+00,  2.7D+00,  7.7D-02, r^2= 1.7D+00
   Bfn.  Coefficient  Atom+Function         Bfn.  Coefficient  Atom+Function  
  ----- ------------  ---------------      ----- ------------  ---------------
     4      2.439620  1 O  s                 35      2.439726  2 O  s          
     3     -1.581901  1 O  s                 34     -1.581972  2 O  s          
     5     -1.477994  1 O  s                 36     -1.478133  2 O  s          
    40     -0.684933  2 O  px                10      0.496530  1 O  py         
     9      0.488625  1 O  px                37      0.443621  2 O  px         
 
 Vector   46  Occ=0.000000D+00  E= 3.563955D+00
              MO Center= -8.4D+00,  2.8D+00,  1.2D-01, r^2= 1.7D+00
   Bfn.  Coefficient  Atom+Function         Bfn.  Coefficient  Atom+Function  
  ----- ------------  ---------------      ----- ------------  ---------------
     4      2.931057  1 O  s                 35     -2.931023  2 O  s          
     9     -1.678033  1 O  px                64     -1.509967  3 H  s          
    70      1.509945  4 H  s                  3     -1.428827  1 O  s          
    34      1.428819  2 O  s                 42     -1.325199  2 O  pz         
    66     -1.166460  3 H  px                41     -1.080981  2 O  py         
 
 Vector   47  Occ=0.000000D+00  E= 3.614231D+00
              MO Center= -8.4D+00,  2.7D+00,  1.1D-01, r^2= 1.6D+00
   Bfn.  Coefficient  Atom+Function         Bfn.  Coefficient  Atom+Function  
  ----- ------------  ---------------      ----- ------------  ---------------
     4      2.527232  1 O  s                 35      2.527239  2 O  s          
     9     -1.711458  1 O  px                42      1.485085  2 O  pz         
    64     -1.314001  3 H  s                 70     -1.314009  4 H  s          
     3     -1.148985  1 O  s                 34     -1.148989  2 O  s          
    66     -1.108347  3 H  px                74      0.972130  4 H  pz         
 
 Vector   48  Occ=0.000000D+00  E= 3.846863D+00
              MO Center= -8.3D+00,  2.6D+00,  2.4D-02, r^2= 9.4D-01
   Bfn.  Coefficient  Atom+Function         Bfn.  Coefficient  Atom+Function  
  ----- ------------  ---------------      ----- ------------  ---------------
    42      1.614900  2 O  pz                 4      1.456672  1 O  s          
    35     -1.456700  2 O  s                 11      1.448869  1 O  pz         
    10     -1.137875  1 O  py                 3     -1.098521  1 O  s          
    34      1.098534  2 O  s                 41     -0.846015  2 O  py         
    52      0.782688  2 O  d -1              21     -0.594922  1 O  d -1       
 
 Vector   49  Occ=0.000000D+00  E= 4.657506D+00
              MO Center= -8.2D+00,  2.6D+00,  2.2D-02, r^2= 1.0D+00
   Bfn.  Coefficient  Atom+Function         Bfn.  Coefficient  Atom+Function  
  ----- ------------  ---------------      ----- ------------  ---------------
    28      0.330344  1 O  f  0              30      0.329855  1 O  f  2       
    26      0.327640  1 O  f -2              57      0.305210  2 O  f -2       
    61      0.304906  2 O  f  2              59      0.300244  2 O  f  0       
    60      0.286869  2 O  f  1              25     -0.280579  1 O  f -3       
     9      0.265033  1 O  px                56     -0.264455  2 O  f -3       
 
 Vector   50  Occ=0.000000D+00  E= 4.719298D+00
              MO Center= -8.3D+00,  2.6D+00,  2.4D-02, r^2= 9.6D-01
   Bfn.  Coefficient  Atom+Function         Bfn.  Coefficient  Atom+Function  
  ----- ------------  ---------------      ----- ------------  ---------------
    27      0.477352  1 O  f -1              58     -0.396526  2 O  f -1       
    57      0.356860  2 O  f -2              61     -0.337990  2 O  f  2       
    31      0.281802  1 O  f  3              30      0.261118  1 O  f  2       
     5     -0.243610  1 O  s                 36     -0.243613  2 O  s          
    26     -0.234754  1 O  f -2              62     -0.196348  2 O  f  3       
 
 Vector   51  Occ=0.000000D+00  E= 4.745813D+00
              MO Center= -8.2D+00,  2.6D+00,  2.2D-02, r^2= 1.1D+00
   Bfn.  Coefficient  Atom+Function         Bfn.  Coefficient  Atom+Function  
  ----- ------------  ---------------      ----- ------------  ---------------
     4      0.509781  1 O  s                 35     -0.509788  2 O  s          
    26     -0.482829  1 O  f -2              62      0.447052  2 O  f  3       
     9     -0.411454  1 O  px                59      0.378167  2 O  f  0       
    27     -0.348373  1 O  f -1              28      0.295594  1 O  f  0       
    41     -0.271929  2 O  py                42     -0.270222  2 O  pz         
 
 Vector   52  Occ=0.000000D+00  E= 4.851206D+00
              MO Center= -8.2D+00,  2.6D+00,  1.4D-02, r^2= 1.0D+00
   Bfn.  Coefficient  Atom+Function         Bfn.  Coefficient  Atom+Function  
  ----- ------------  ---------------      ----- ------------  ---------------
    29      0.519289  1 O  f  1              56     -0.471565  2 O  f -3       
    60     -0.414582  2 O  f  1              25      0.288759  1 O  f -3       
    28     -0.240137  1 O  f  0              31      0.212673  1 O  f  3       
    62     -0.211282  2 O  f  3              27     -0.143237  1 O  f -1       
    61      0.143507  2 O  f  2              57     -0.122991  2 O  f -2       
 
 Vector   53  Occ=0.000000D+00  E= 4.936276D+00
              MO Center= -8.3D+00,  2.6D+00,  3.4D-02, r^2= 1.1D+00
   Bfn.  Coefficient  Atom+Function         Bfn.  Coefficient  Atom+Function  
  ----- ------------  ---------------      ----- ------------  ---------------
    31      0.531262  1 O  f  3              56      0.454451  2 O  f -3       
    59      0.389750  2 O  f  0              28     -0.335925  1 O  f  0       
    62     -0.271507  2 O  f  3              27     -0.253201  1 O  f -1       
    42      0.221116  2 O  pz                11      0.209330  1 O  pz         
    58      0.165886  2 O  f -1              60      0.166603  2 O  f  1       
 
 Vector   54  Occ=0.000000D+00  E= 5.193195D+00
              MO Center= -8.3D+00,  2.6D+00,  3.3D-02, r^2= 1.0D+00
   Bfn.  Coefficient  Atom+Function         Bfn.  Coefficient  Atom+Function  
  ----- ------------  ---------------      ----- ------------  ---------------
    25      0.606708  1 O  f -3              56      0.440808  2 O  f -3       
    61      0.320645  2 O  f  2              30      0.304642  1 O  f  2       
    62      0.295452  2 O  f  3              59     -0.264666  2 O  f  0       
    67     -0.220964  3 H  py                72     -0.198750  4 H  px         
    57      0.192158  2 O  f -2              15     -0.164752  1 O  d -2       
 
 Vector   55  Occ=0.000000D+00  E= 5.250589D+00
              MO Center= -8.3D+00,  2.6D+00,  3.9D-02, r^2= 1.0D+00
   Bfn.  Coefficient  Atom+Function         Bfn.  Coefficient  Atom+Function  
  ----- ------------  ---------------      ----- ------------  ---------------
    61      0.422043  2 O  f  2              56      0.419189  2 O  f -3       
    29      0.407922  1 O  f  1              30     -0.347960  1 O  f  2       
    25     -0.322098  1 O  f -3              60     -0.267484  2 O  f  1       
    68      0.220073  3 H  pz                27      0.204137  1 O  f -1       
    26     -0.197724  1 O  f -2              72     -0.197599  4 H  px         
 
 Vector   56  Occ=0.000000D+00  E= 5.259802D+00
              MO Center= -8.3D+00,  2.6D+00,  2.3D-02, r^2= 1.0D+00
   Bfn.  Coefficient  Atom+Function         Bfn.  Coefficient  Atom+Function  
  ----- ------------  ---------------      ----- ------------  ---------------
    29      0.591484  1 O  f  1              60      0.557420  2 O  f  1       
    62      0.289547  2 O  f  3              61     -0.245322  2 O  f  2       
    58      0.243115  2 O  f -1              30     -0.228529  1 O  f  2       
    26     -0.223998  1 O  f -2              27      0.221578  1 O  f -1       
    68      0.176928  3 H  pz                72      0.136924  4 H  px         
 
 Vector   57  Occ=0.000000D+00  E= 5.280480D+00
              MO Center= -8.3D+00,  2.6D+00,  3.6D-02, r^2= 9.8D-01
   Bfn.  Coefficient  Atom+Function         Bfn.  Coefficient  Atom+Function  
  ----- ------------  ---------------      ----- ------------  ---------------
    62      0.529923  2 O  f  3              25     -0.414711  1 O  f -3       
    31      0.399284  1 O  f  3              28     -0.374038  1 O  f  0       
    59     -0.287569  2 O  f  0              58     -0.278035  2 O  f -1       
     9     -0.220366  1 O  px                60     -0.212522  2 O  f  1       
    74      0.199391  4 H  pz                67      0.181884  3 H  py         
 
 Vector   58  Occ=0.000000D+00  E= 5.560734D+00
              MO Center= -8.2D+00,  2.6D+00,  1.4D-02, r^2= 9.7D-01
   Bfn.  Coefficient  Atom+Function         Bfn.  Coefficient  Atom+Function  
  ----- ------------  ---------------      ----- ------------  ---------------
    59      0.574518  2 O  f  0               4      0.553491  1 O  s          
    35      0.553516  2 O  s                 26      0.510639  1 O  f -2       
     9     -0.478735  1 O  px                42      0.428989  2 O  pz         
    27      0.391727  1 O  f -1              64     -0.391578  3 H  s          
    70     -0.391595  4 H  s                 66     -0.343492  3 H  px         
 
 Vector   59  Occ=0.000000D+00  E= 5.593724D+00
              MO Center= -8.2D+00,  2.6D+00,  2.3D-02, r^2= 8.8D-01
   Bfn.  Coefficient  Atom+Function         Bfn.  Coefficient  Atom+Function  
  ----- ------------  ---------------      ----- ------------  ---------------
    42      0.402224  2 O  pz                57      0.394827  2 O  f -2       
    28     -0.389331  1 O  f  0               9      0.363040  1 O  px         
    59      0.326431  2 O  f  0               4     -0.298905  1 O  s          
    35      0.298866  2 O  s                 29     -0.287464  1 O  f  1       
    19     -0.281495  1 O  d  2              61      0.281735  2 O  f  2       
 
 Vector   60  Occ=0.000000D+00  E= 5.851291D+00
              MO Center= -8.3D+00,  2.6D+00,  5.0D-02, r^2= 1.0D+00
   Bfn.  Coefficient  Atom+Function         Bfn.  Coefficient  Atom+Function  
  ----- ------------  ---------------      ----- ------------  ---------------
    42     -0.682038  2 O  pz                 4      0.677115  1 O  s          
    35     -0.677115  2 O  s                  9     -0.652117  1 O  px         
    47     -0.533354  2 O  d -1              66     -0.502909  3 H  px         
    63     -0.473177  3 H  s                 69      0.473178  4 H  s          
    74     -0.456605  4 H  pz                11     -0.396791  1 O  pz         
 
 Vector   61  Occ=0.000000D+00  E= 5.946989D+00
              MO Center= -8.3D+00,  2.7D+00,  6.8D-02, r^2= 1.0D+00
   Bfn.  Coefficient  Atom+Function         Bfn.  Coefficient  Atom+Function  
  ----- ------------  ---------------      ----- ------------  ---------------
     4      0.960925  1 O  s                 35      0.960921  2 O  s          
     9     -0.719467  1 O  px                42      0.627225  2 O  pz         
    66     -0.528005  3 H  px                63     -0.489690  3 H  s          
    69     -0.489686  4 H  s                 74      0.491886  4 H  pz         
    18     -0.431371  1 O  d  1              64     -0.427711  3 H  s          
 
 Vector   62  Occ=0.000000D+00  E= 6.096936D+00
              MO Center= -8.2D+00,  2.6D+00,  2.3D-02, r^2= 8.9D-01
   Bfn.  Coefficient  Atom+Function         Bfn.  Coefficient  Atom+Function  
  ----- ------------  ---------------      ----- ------------  ---------------
     5      1.246731  1 O  s                 36     -1.246728  2 O  s          
     4     -0.974153  1 O  s                 35      0.974148  2 O  s          
    16      0.695254  1 O  d -1              48      0.569985  2 O  d  0       
     3      0.437330  1 O  s                 34     -0.437329  2 O  s          
    44     -0.426464  2 O  py                14      0.385829  1 O  pz         
 
 Vector   63  Occ=0.000000D+00  E= 6.112960D+00
              MO Center= -8.2D+00,  2.6D+00,  2.1D-02, r^2= 8.9D-01
   Bfn.  Coefficient  Atom+Function         Bfn.  Coefficient  Atom+Function  
  ----- ------------  ---------------      ----- ------------  ---------------
    50      0.602811  2 O  d  2              19     -0.510228  1 O  d  2       
    18     -0.477489  1 O  d  1              17     -0.381698  1 O  d  0       
    49      0.350322  2 O  d  1              48      0.313405  2 O  d  0       
    55     -0.300123  2 O  d  2              23      0.259991  1 O  d  1       
    46      0.238342  2 O  d -2              24      0.232021  1 O  d  2       
 
 Vector   64  Occ=0.000000D+00  E= 6.176616D+00
              MO Center= -8.2D+00,  2.6D+00,  4.8D-03, r^2= 9.1D-01
   Bfn.  Coefficient  Atom+Function         Bfn.  Coefficient  Atom+Function  
  ----- ------------  ---------------      ----- ------------  ---------------
    15      0.663545  1 O  d -2              49     -0.484036  2 O  d  1       
    20     -0.383611  1 O  d -2              47     -0.370274  2 O  d -1       
    50      0.361918  2 O  d  2              54      0.360799  2 O  d  1       
    17      0.308142  1 O  d  0              64      0.302418  3 H  s          
    70      0.302424  4 H  s                  4     -0.291309  1 O  s          
 
 Vector   65  Occ=0.000000D+00  E= 6.199419D+00
              MO Center= -8.2D+00,  2.6D+00,  1.6D-02, r^2= 9.0D-01
   Bfn.  Coefficient  Atom+Function         Bfn.  Coefficient  Atom+Function  
  ----- ------------  ---------------      ----- ------------  ---------------
    46      0.594275  2 O  d -2              17      0.572938  1 O  d  0       
     5      0.469125  1 O  s                 36     -0.469124  2 O  s          
    15     -0.411864  1 O  d -2              49      0.396502  2 O  d  1       
    51     -0.351165  2 O  d -2              48     -0.333610  2 O  d  0       
    18     -0.318146  1 O  d  1              22     -0.315083  1 O  d  0       
 
 Vector   66  Occ=0.000000D+00  E= 6.246816D+00
              MO Center= -8.2D+00,  2.6D+00,  2.2D-02, r^2= 9.4D-01
   Bfn.  Coefficient  Atom+Function         Bfn.  Coefficient  Atom+Function  
  ----- ------------  ---------------      ----- ------------  ---------------
    15      0.621372  1 O  d -2              18     -0.483871  1 O  d  1       
    50     -0.482891  2 O  d  2              20     -0.440535  1 O  d -2       
    46     -0.418846  2 O  d -2              49      0.403025  2 O  d  1       
    55      0.338165  2 O  d  2               4      0.336361  1 O  s          
    35     -0.336340  2 O  s                 47      0.295694  2 O  d -1       
 
 Vector   67  Occ=0.000000D+00  E= 6.512224D+00
              MO Center= -8.3D+00,  2.6D+00,  2.5D-02, r^2= 1.0D+00
   Bfn.  Coefficient  Atom+Function         Bfn.  Coefficient  Atom+Function  
  ----- ------------  ---------------      ----- ------------  ---------------
    64      0.802927  3 H  s                 70      0.802905  4 H  s          
     9      0.647638  1 O  px                42     -0.645752  2 O  pz         
    16     -0.634237  1 O  d -1              46      0.616103  2 O  d -2       
    51     -0.559784  2 O  d -2              24     -0.481268  1 O  d  2       
    74     -0.436570  4 H  pz                 4     -0.426575  1 O  s          
 
 Vector   68  Occ=0.000000D+00  E= 6.619006D+00
              MO Center= -8.2D+00,  2.6D+00,  2.0D-02, r^2= 1.1D+00
   Bfn.  Coefficient  Atom+Function         Bfn.  Coefficient  Atom+Function  
  ----- ------------  ---------------      ----- ------------  ---------------
    24      0.868055  1 O  d  2              64     -0.870018  3 H  s          
    70      0.870024  4 H  s                  4      0.783161  1 O  s          
     9     -0.779868  1 O  px                35     -0.783153  2 O  s          
    19     -0.721094  1 O  d  2              54      0.629123  2 O  d  1       
     5      0.610303  1 O  s                 36     -0.610312  2 O  s          
 
 Vector   69  Occ=0.000000D+00  E= 6.753850D+00
              MO Center= -8.2D+00,  2.6D+00,  1.6D-02, r^2= 1.0D+00
   Bfn.  Coefficient  Atom+Function         Bfn.  Coefficient  Atom+Function  
  ----- ------------  ---------------      ----- ------------  ---------------
    17      0.604537  1 O  d  0              22     -0.576791  1 O  d  0       
    48      0.569923  2 O  d  0              53     -0.519139  2 O  d  0       
    47     -0.508094  2 O  d -1              16     -0.409396  1 O  d -1       
    52      0.398368  2 O  d -1              51      0.363354  2 O  d -2       
    46     -0.298193  2 O  d -2              19     -0.280776  1 O  d  2       
 
 Vector   70  Occ=0.000000D+00  E= 6.809922D+00
              MO Center= -8.2D+00,  2.6D+00,  2.1D-02, r^2= 1.2D+00
   Bfn.  Coefficient  Atom+Function         Bfn.  Coefficient  Atom+Function  
  ----- ------------  ---------------      ----- ------------  ---------------
     4      1.112947  1 O  s                 35     -1.112938  2 O  s          
    64     -0.955659  3 H  s                 70      0.955659  4 H  s          
     9     -0.846292  1 O  px                23     -0.758790  1 O  d  1       
    42     -0.737454  2 O  pz                66     -0.671802  3 H  px         
    52     -0.645559  2 O  d -1              63     -0.638044  3 H  s          
 
 Vector   71  Occ=0.000000D+00  E= 7.023916D+00
              MO Center= -8.2D+00,  2.6D+00,  2.2D-02, r^2= 1.1D+00
   Bfn.  Coefficient  Atom+Function         Bfn.  Coefficient  Atom+Function  
  ----- ------------  ---------------      ----- ------------  ---------------
     4      1.303521  1 O  s                 35      1.303523  2 O  s          
    64     -0.856935  3 H  s                 70     -0.856928  4 H  s          
     9     -0.836198  1 O  px                52      0.744977  2 O  d -1       
    23     -0.692149  1 O  d  1              42      0.685464  2 O  pz         
    63     -0.678931  3 H  s                 69     -0.678922  4 H  s          
 
 Vector   72  Occ=0.000000D+00  E= 7.712854D+00
              MO Center= -8.2D+00,  2.6D+00,  1.9D-02, r^2= 1.1D+00
   Bfn.  Coefficient  Atom+Function         Bfn.  Coefficient  Atom+Function  
  ----- ------------  ---------------      ----- ------------  ---------------
    42      1.617158  2 O  pz                 4      1.577269  1 O  s          
    35     -1.577260  2 O  s                 11      1.530102  1 O  pz         
    52      1.379472  2 O  d -1              10     -1.274485  1 O  py         
    21     -1.230789  1 O  d -1              41     -1.121465  2 O  py         
     3     -1.075385  1 O  s                 34      1.075381  2 O  s          
 
 Vector   73  Occ=0.000000D+00  E= 4.266729D+01
              MO Center= -8.2D+00,  2.6D+00,  2.1D-02, r^2= 6.6D-01
   Bfn.  Coefficient  Atom+Function         Bfn.  Coefficient  Atom+Function  
  ----- ------------  ---------------      ----- ------------  ---------------
     2      1.195357  1 O  s                 33      1.195331  2 O  s          
     4      1.091340  1 O  s                 35      1.091309  2 O  s          
     3     -1.059879  1 O  s                 34     -1.059852  2 O  s          
     1     -0.982248  1 O  s                 32     -0.982227  2 O  s          
     5     -0.468183  1 O  s                 36     -0.468168  2 O  s          
 
 Vector   74  Occ=0.000000D+00  E= 4.314132D+01
              MO Center= -8.2D+00,  2.6D+00,  2.0D-02, r^2= 6.6D-01
   Bfn.  Coefficient  Atom+Function         Bfn.  Coefficient  Atom+Function  
  ----- ------------  ---------------      ----- ------------  ---------------
     4      1.430278  1 O  s                 35     -1.430300  2 O  s          
     3     -1.253700  1 O  s                 34      1.253723  2 O  s          
     2      1.216034  1 O  s                 33     -1.216060  2 O  s          
     1     -0.985443  1 O  s                 32      0.985464  2 O  s          
     5     -0.671527  1 O  s                 36      0.671536  2 O  s          
 

 center of mass
 --------------
 x = -15.61131347 y =   4.91631964 z =   0.05853701

 moments of inertia (a.u.)
 ------------------
          70.130313568675          -8.692592920124           8.938012042372
          -8.692592920124          49.516876751496          31.288454909424
           8.938012042372          31.288454909424          32.478111234392
 
     Multipole analysis of the density
     ---------------------------------
 
     L   x y z        total         alpha         beta         nuclear
     -   - - -        -----         -----         ----         -------
     0   0 0 0     -0.000000     -9.000000     -9.000000     18.000000
 
     1   1 0 0     -0.382123    140.557956    140.557956   -281.498035
     1   0 1 0      0.462540    -44.314854    -44.314854     89.092249
     1   0 0 1      0.263175     -0.565487     -0.565487      1.394149
 
     2   2 0 0      3.187759  -2201.455757  -2201.455757   4406.099273
     2   1 1 0     -9.856362    689.902847    689.902847  -1389.662056
     2   1 0 1     -2.435682     11.172254     11.172254    -24.780190
     2   0 2 0     -5.024555   -229.958944   -229.958944    454.893333
     2   0 1 1      1.238266      5.480970      5.480970     -9.723675
     2   0 0 2     -6.356795    -16.415053    -16.415053     26.473312
 
 
            General Information
            -------------------
          SCF calculation type: DFT
          Wavefunction type:  closed shell.
          No. of atoms     :     4
          No. of electrons :    18
           Alpha electrons :     9
            Beta electrons :     9
          Charge           :     0
          Spin multiplicity:     1
          Use of symmetry is: off; symmetry adaption is: off
          Maximum number of iterations: 250
          This is a Direct SCF calculation.
          AO basis - number of functions:    74
                     number of shells:    30
          Convergence on energy requested:  1.00D-08
          Convergence on density requested:  1.00D-05
          Convergence on gradient requested:  1.00D-08
 
              XC Information
              --------------
                    Becke 1988 Exchange Functional  1.000          
              Lee-Yang-Parr Correlation Functional  1.000          
 
             Grid Information
             ----------------
          Grid used for XC integration:  xfine     
          Radial quadrature: Mura-Knowles        
          Angular quadrature: Lebedev. 
          Tag              B.-S. Rad. Rad. Pts. Rad. Cut. Ang. Pts.
          ---              ---------- --------- --------- ---------
          O                   0.60      100           8.0      1454
          H                   0.35      100           9.0      1202
          Grid pruning is: on 
          Number of quadrature shells:   400
          Spatial weights used:  Erf1
 
          Convergence Information
          -----------------------
          Convergence aids based upon iterative change in 
          total energy or number of iterations. 
          Levelshifting, if invoked, occurs when the 
          HOMO/LUMO gap drops below (HL_TOL):  1.00D-02
          DIIS, if invoked, will attempt to extrapolate 
          using up to (NFOCK): 10 stored Fock matrices.

                    Damping( 0%)  Levelshifting(0.0)       DIIS
                  --------------- ------------------- ---------------
          dE  on:    start             N/A                start   
          dE off:    2 iters           N/A              250 iters 

 
      Screening Tolerance Information
      -------------------------------
          Density screening/tol_rho:  1.00D-11
          AO Gaussian exp screening on grid/accAOfunc:  18
          CD Gaussian exp screening on grid/accCDfunc:  20
          XC Gaussian exp screening on grid/accXCfunc:  20
          Schwarz screening/accCoul:  1.00D-09

 
 
                            NWChem DFT Gradient Module
                            --------------------------
 
 
                         h2o2 roa calculations at 514.5 nm, input generated by va with delta_type=2
 
 

  charge          =   0.00
  wavefunction    = closed shell



                         DFT ENERGY GRADIENTS

    atom               coordinates                        gradient
                 x          y          z           x          y          z
   1 O     -15.219590   5.764836  -0.998227    0.000226   0.000137   0.000179
   2 O     -15.940222   3.991763   1.072042   -0.000269  -0.000085  -0.000151
   3 H     -16.896259   6.075822  -1.717683   -0.000188  -0.000106  -0.000180
   4 H     -15.323274   4.963637   2.521316    0.000232   0.000054   0.000152
 
                 ----------------------------------------
                 |  Time  |  1-e(secs)   |  2-e(secs)   |
                 ----------------------------------------
                 |  CPU   |       0.01   |       2.24   |
                 ----------------------------------------
                 |  WALL  |       0.01   |       2.25   |
                 ----------------------------------------

 Task  times  cpu:       34.9s     wall:       35.7s
 
 
                                NWChem Input Module
                                -------------------
 
 
                              NWChem Property Module
                              ----------------------
 
 
                         h2o2 roa calculations at 514.5 nm, input generated by va with delta_type=2
 
 
                                 NWChem DFT Module
                                 -----------------
 
 
                         h2o2 roa calculations at 514.5 nm, input generated by va with delta_type=2
 
 


 Summary of "ao basis" -> "ao basis" (spherical)
 ------------------------------------------------------------------------------
       Tag                 Description            Shells   Functions and Types
 ---------------- ------------------------------  ------  ---------------------
 O                         def2-TZVP                11       31   5s3p2d1f
 H                         def2-TZVP                 4        6   3s1p


  Caching 1-el integrals 
 
            General Information
            -------------------
          SCF calculation type: DFT
          Wavefunction type:  closed shell.
          No. of atoms     :     4
          No. of electrons :    18
           Alpha electrons :     9
            Beta electrons :     9
          Charge           :     0
          Spin multiplicity:     1
          Use of symmetry is: off; symmetry adaption is: off
          Maximum number of iterations: 250
          This is a Direct SCF calculation.
          AO basis - number of functions:    74
                     number of shells:    30
          Convergence on energy requested:  1.00D-08
          Convergence on density requested:  1.00D-05
          Convergence on gradient requested:  1.00D-08
 
              XC Information
              --------------
                    Becke 1988 Exchange Functional  1.000          
              Lee-Yang-Parr Correlation Functional  1.000          
 
             Grid Information
             ----------------
          Grid used for XC integration:  xfine     
          Radial quadrature: Mura-Knowles        
          Angular quadrature: Lebedev. 
          Tag              B.-S. Rad. Rad. Pts. Rad. Cut. Ang. Pts.
          ---              ---------- --------- --------- ---------
          O                   0.60      100           8.0      1454
          H                   0.35      100           9.0      1202
          Grid pruning is: on 
          Number of quadrature shells:   400
          Spatial weights used:  Erf1
 
          Convergence Information
          -----------------------
          Convergence aids based upon iterative change in 
          total energy or number of iterations. 
          Levelshifting, if invoked, occurs when the 
          HOMO/LUMO gap drops below (HL_TOL):  1.00D-02
          DIIS, if invoked, will attempt to extrapolate 
          using up to (NFOCK): 10 stored Fock matrices.

                    Damping( 0%)  Levelshifting(0.0)       DIIS
                  --------------- ------------------- ---------------
          dE  on:    start             N/A                start   
          dE off:    2 iters           N/A              250 iters 

 
      Screening Tolerance Information
      -------------------------------
          Density screening/tol_rho:  1.00D-11
          AO Gaussian exp screening on grid/accAOfunc:  18
          CD Gaussian exp screening on grid/accCDfunc:  20
          XC Gaussian exp screening on grid/accXCfunc:  20
          Schwarz screening/accCoul:  1.00D-09


 Loading old vectors from job with title :

h2o2 roa calculations at 514.5 nm, input generated by va with delta_type=2

   Time after variat. SCF:     36.3
   Time prior to 1st pass:     36.3

 Grid_pts file          = ./h2o2_514.5_01.inp.gridpts.0
 Record size in doubles =  12289        No. of grid_pts per rec  =   3070
 Max. records in memory =    210        Max. recs in file   =   3881642


           Memory utilization after 1st SCF pass: 
           Heap Space remaining (MW):       10.52            10522928
          Stack Space remaining (MW):       13.11            13106668

   convergence    iter        energy       DeltaE   RMS-Dens  Diis-err    time
 ---------------- ----- ----------------- --------- --------- ---------  ------
 d= 0,ls=0.0,diis     1   -151.6011458835 -1.88D+02  8.89D-07  2.49D-09    40.0
 d= 0,ls=0.0,diis     2   -151.6011458816  1.88D-09  6.72D-07  2.40D-08    43.4
 d= 0,ls=0.0,diis     3   -151.6011458837 -2.10D-09  2.37D-08  7.53D-12    46.8


         Total DFT energy =     -151.601145883724
      One electron energy =     -279.843054606678
           Coulomb energy =      110.063444561586
    Exchange-Corr. energy =      -17.811637354074
 Nuclear repulsion energy =       35.990101515443

 Numeric. integr. density =       17.999999997148

     Total iterative time =     10.4s


 
                       DFT Final Molecular Orbital Analysis
                       ------------------------------------
 
 Vector    1  Occ=2.000000D+00  E=-1.883180D+01
              MO Center= -8.2D+00,  2.6D+00,  2.5D-02, r^2= 5.7D-01
   Bfn.  Coefficient  Atom+Function         Bfn.  Coefficient  Atom+Function  
  ----- ------------  ---------------      ----- ------------  ---------------
    33     -0.453972  2 O  s                  2      0.449187  1 O  s          
    32     -0.309508  2 O  s                  1      0.306247  1 O  s          
    34     -0.027378  2 O  s                  3      0.027110  1 O  s          
 
 Vector    2  Occ=2.000000D+00  E=-1.883177D+01
              MO Center= -8.2D+00,  2.6D+00,  1.4D-02, r^2= 5.7D-01
   Bfn.  Coefficient  Atom+Function         Bfn.  Coefficient  Atom+Function  
  ----- ------------  ---------------      ----- ------------  ---------------
     2      0.454143  1 O  s                 33      0.449359  2 O  s          
     1      0.309486  1 O  s                 32      0.306225  2 O  s          
     3      0.025444  1 O  s                 34      0.025155  2 O  s          
 
 Vector    3  Occ=2.000000D+00  E=-1.007632D+00
              MO Center= -8.3D+00,  2.6D+00,  5.2D-02, r^2= 8.2D-01
   Bfn.  Coefficient  Atom+Function         Bfn.  Coefficient  Atom+Function  
  ----- ------------  ---------------      ----- ------------  ---------------
     4      0.312764  1 O  s                 35      0.312764  2 O  s          
     3      0.239252  1 O  s                 34      0.239252  2 O  s          
     2     -0.163036  1 O  s                 33     -0.163035  2 O  s          
     5      0.096825  1 O  s                 36      0.096825  2 O  s          
    38      0.071036  2 O  py                 1     -0.070047  1 O  s          
 
 Vector    4  Occ=2.000000D+00  E=-8.191829D-01
              MO Center= -8.3D+00,  2.7D+00,  7.0D-02, r^2= 1.3D+00
   Bfn.  Coefficient  Atom+Function         Bfn.  Coefficient  Atom+Function  
  ----- ------------  ---------------      ----- ------------  ---------------
     4      0.326801  1 O  s                 35     -0.326802  2 O  s          
     3      0.254027  1 O  s                 34     -0.254027  2 O  s          
     2     -0.167208  1 O  s                 33      0.167208  2 O  s          
     5      0.140746  1 O  s                 36     -0.140746  2 O  s          
    63      0.090891  3 H  s                 69     -0.090890  4 H  s          
 
 Vector    5  Occ=2.000000D+00  E=-4.722532D-01
              MO Center= -8.3D+00,  2.7D+00,  5.9D-02, r^2= 1.3D+00
   Bfn.  Coefficient  Atom+Function         Bfn.  Coefficient  Atom+Function  
  ----- ------------  ---------------      ----- ------------  ---------------
    39      0.311109  2 O  pz                42      0.243541  2 O  pz         
     7      0.205803  1 O  py                 8     -0.204237  1 O  pz         
    10      0.165816  1 O  py                11     -0.161407  1 O  pz         
    64      0.130110  3 H  s                 70      0.130109  4 H  s          
     6     -0.119620  1 O  px                45      0.112032  2 O  pz         
 
 Vector    6  Occ=2.000000D+00  E=-4.343549D-01
              MO Center= -8.3D+00,  2.6D+00,  3.6D-02, r^2= 1.3D+00
   Bfn.  Coefficient  Atom+Function         Bfn.  Coefficient  Atom+Function  
  ----- ------------  ---------------      ----- ------------  ---------------
     6      0.252376  1 O  px                 9      0.188142  1 O  px         
    37      0.178926  2 O  px                 4      0.154637  1 O  s          
    35     -0.154638  2 O  s                  5      0.153664  1 O  s          
    36     -0.153665  2 O  s                 39      0.153924  2 O  pz         
    38      0.149423  2 O  py                40      0.138097  2 O  px         
 
 Vector    7  Occ=2.000000D+00  E=-3.643936D-01
              MO Center= -8.2D+00,  2.5D+00, -1.9D-02, r^2= 1.3D+00
   Bfn.  Coefficient  Atom+Function         Bfn.  Coefficient  Atom+Function  
  ----- ------------  ---------------      ----- ------------  ---------------
    38      0.319297  2 O  py                41      0.249763  2 O  py         
     6     -0.241639  1 O  px                 8      0.212162  1 O  pz         
     9     -0.184954  1 O  px                11      0.171844  1 O  pz         
    44      0.165855  2 O  py                 5     -0.131002  1 O  s          
    36     -0.131001  2 O  s                 12     -0.120139  1 O  px         
 
 Vector    8  Occ=2.000000D+00  E=-2.779744D-01
              MO Center= -8.3D+00,  2.6D+00,  5.5D-02, r^2= 1.3D+00
   Bfn.  Coefficient  Atom+Function         Bfn.  Coefficient  Atom+Function  
  ----- ------------  ---------------      ----- ------------  ---------------
    37      0.343771  2 O  px                 7     -0.271377  1 O  py         
    40      0.267329  2 O  px                10     -0.217180  1 O  py         
    43      0.212556  2 O  px                13     -0.171881  1 O  py         
     8     -0.157149  1 O  pz                 6     -0.145901  1 O  px         
     5     -0.123506  1 O  s                 36     -0.123505  2 O  s          
 
 Vector    9  Occ=2.000000D+00  E=-2.289648D-01
              MO Center= -8.2D+00,  2.6D+00,  7.7D-03, r^2= 1.2D+00
   Bfn.  Coefficient  Atom+Function         Bfn.  Coefficient  Atom+Function  
  ----- ------------  ---------------      ----- ------------  ---------------
    37      0.280193  2 O  px                 7      0.275107  1 O  py         
    40      0.221196  2 O  px                38     -0.219569  2 O  py         
    10      0.214842  1 O  py                43      0.204963  2 O  px         
     8      0.202073  1 O  pz                13      0.190836  1 O  py         
    41     -0.168134  2 O  py                11      0.159386  1 O  pz         
 
 Vector   10  Occ=0.000000D+00  E=-6.048896D-02
              MO Center= -8.3D+00,  2.6D+00,  4.9D-02, r^2= 1.7D+00
   Bfn.  Coefficient  Atom+Function         Bfn.  Coefficient  Atom+Function  
  ----- ------------  ---------------      ----- ------------  ---------------
     5      0.498425  1 O  s                 36     -0.498423  2 O  s          
    44     -0.325911  2 O  py                14      0.297247  1 O  pz         
    65     -0.289403  3 H  s                 71      0.289401  4 H  s          
    13     -0.286557  1 O  py                45      0.274859  2 O  pz         
[...]
    64      0.802916  3 H  s                 70      0.802917  4 H  s          
     9      0.647626  1 O  px                42     -0.645760  2 O  pz         
    16     -0.634240  1 O  d -1              46      0.616102  2 O  d -2       
    51     -0.559786  2 O  d -2              24     -0.481258  1 O  d  2       
    74     -0.436576  4 H  pz                 4     -0.426559  1 O  s          
 
 Vector   68  Occ=0.000000D+00  E= 6.619006D+00
              MO Center= -8.2D+00,  2.6D+00,  2.0D-02, r^2= 1.1D+00
   Bfn.  Coefficient  Atom+Function         Bfn.  Coefficient  Atom+Function  
  ----- ------------  ---------------      ----- ------------  ---------------
    24      0.868059  1 O  d  2              64     -0.870024  3 H  s          
    70      0.870019  4 H  s                  4      0.783162  1 O  s          
     9     -0.779872  1 O  px                35     -0.783154  2 O  s          
    19     -0.721098  1 O  d  2              54      0.629122  2 O  d  1       
     5      0.610307  1 O  s                 36     -0.610308  2 O  s          
 
 Vector   69  Occ=0.000000D+00  E= 6.753849D+00
              MO Center= -8.2D+00,  2.6D+00,  1.6D-02, r^2= 1.0D+00
   Bfn.  Coefficient  Atom+Function         Bfn.  Coefficient  Atom+Function  
  ----- ------------  ---------------      ----- ------------  ---------------
    17      0.604540  1 O  d  0              22     -0.576792  1 O  d  0       
    48      0.569922  2 O  d  0              53     -0.519139  2 O  d  0       
    47     -0.508092  2 O  d -1              16     -0.409396  1 O  d -1       
    52      0.398368  2 O  d -1              51      0.363352  2 O  d -2       
    46     -0.298190  2 O  d -2              19     -0.280778  1 O  d  2       
 
 Vector   70  Occ=0.000000D+00  E= 6.809921D+00
              MO Center= -8.2D+00,  2.6D+00,  2.1D-02, r^2= 1.2D+00
   Bfn.  Coefficient  Atom+Function         Bfn.  Coefficient  Atom+Function  
  ----- ------------  ---------------      ----- ------------  ---------------
     4      1.112938  1 O  s                 35     -1.112946  2 O  s          
    64     -0.955654  3 H  s                 70      0.955663  4 H  s          
     9     -0.846287  1 O  px                23     -0.758786  1 O  d  1       
    42     -0.737456  2 O  pz                66     -0.671799  3 H  px         
    52     -0.645564  2 O  d -1              63     -0.638040  3 H  s          
 
 Vector   71  Occ=0.000000D+00  E= 7.023915D+00
              MO Center= -8.2D+00,  2.6D+00,  2.2D-02, r^2= 1.1D+00
   Bfn.  Coefficient  Atom+Function         Bfn.  Coefficient  Atom+Function  
  ----- ------------  ---------------      ----- ------------  ---------------
     4      1.303533  1 O  s                 35      1.303510  2 O  s          
    64     -0.856943  3 H  s                 70     -0.856920  4 H  s          
     9     -0.836206  1 O  px                52      0.744973  2 O  d -1       
    23     -0.692154  1 O  d  1              42      0.685460  2 O  pz         
    63     -0.678936  3 H  s                 69     -0.678917  4 H  s          
 
 Vector   72  Occ=0.000000D+00  E= 7.712854D+00
              MO Center= -8.2D+00,  2.6D+00,  1.9D-02, r^2= 1.1D+00
   Bfn.  Coefficient  Atom+Function         Bfn.  Coefficient  Atom+Function  
  ----- ------------  ---------------      ----- ------------  ---------------
    42      1.617157  2 O  pz                 4      1.577268  1 O  s          
    35     -1.577261  2 O  s                 11      1.530102  1 O  pz         
    52      1.379471  2 O  d -1              10     -1.274485  1 O  py         
    21     -1.230790  1 O  d -1              41     -1.121466  2 O  py         
     3     -1.075384  1 O  s                 34      1.075381  2 O  s          
 
 Vector   73  Occ=0.000000D+00  E= 4.266729D+01
              MO Center= -8.2D+00,  2.6D+00,  2.1D-02, r^2= 6.6D-01
   Bfn.  Coefficient  Atom+Function         Bfn.  Coefficient  Atom+Function  
  ----- ------------  ---------------      ----- ------------  ---------------
     2      1.195344  1 O  s                 33      1.195344  2 O  s          
     4      1.091324  1 O  s                 35      1.091324  2 O  s          
     3     -1.059865  1 O  s                 34     -1.059865  2 O  s          
     1     -0.982238  1 O  s                 32     -0.982238  2 O  s          
     5     -0.468175  1 O  s                 36     -0.468176  2 O  s          
 
 Vector   74  Occ=0.000000D+00  E= 4.314132D+01
              MO Center= -8.2D+00,  2.6D+00,  2.0D-02, r^2= 6.6D-01
   Bfn.  Coefficient  Atom+Function         Bfn.  Coefficient  Atom+Function  
  ----- ------------  ---------------      ----- ------------  ---------------
     4      1.430289  1 O  s                 35     -1.430289  2 O  s          
     3     -1.253711  1 O  s                 34      1.253712  2 O  s          
     2      1.216047  1 O  s                 33     -1.216047  2 O  s          
     1     -0.985453  1 O  s                 32      0.985453  2 O  s          
     5     -0.671532  1 O  s                 36      0.671531  2 O  s          
 

 center of mass
 --------------
 x = -15.61131347 y =   4.91631964 z =   0.05853701

 moments of inertia (a.u.)
 ------------------
          70.130313568675          -8.692592920124           8.938012042372
          -8.692592920124          49.516876751496          31.288454909424
           8.938012042372          31.288454909424          32.478111234392
 
     Multipole analysis of the density
     ---------------------------------
 
     L   x y z        total         alpha         beta         nuclear
     -   - - -        -----         -----         ----         -------
     0   0 0 0     -0.000000     -9.000000     -9.000000     18.000000
 
     1   1 0 0     -0.382109    140.557963    140.557963   -281.498035
     1   0 1 0      0.462566    -44.314841    -44.314841     89.092249
     1   0 0 1      0.263154     -0.565498     -0.565498      1.394149
 
     2   2 0 0      3.187331  -2201.455971  -2201.455971   4406.099273
     2   1 1 0     -9.856693    689.902682    689.902682  -1389.662056
     2   1 0 1     -2.435359     11.172416     11.172416    -24.780190
     2   0 2 0     -5.024301   -229.958817   -229.958817    454.893333
     2   0 1 1      1.238166      5.480920      5.480920     -9.723675
     2   0 0 2     -6.356785    -16.415048    -16.415048     26.473312
 
 *** CALLING NEW AORESP DRIVER FOR CLOSED AND OPEN SHELLS ***
 Entering AOResponse driver routine


--------------------------------------------------------------------------------

          ****************
          *** RESPONSE ***
          ****************

 Response module for NWChem and dynamic CPKS solver
 developed by J. Autschbach and coworkers, SUNY Buffalo
 The methodology used in this program is described in 
 ChemPhysChem 12 (2011), 3224-3235 (main reference)
 J. Chem. Phys. 123 (2005), 114103
 J. Chem. Phys. 122 (2005), 224115
 J. Chem. Phys. 122 (2005), 074105
 Comp. Lett. 3 (2007), 131-150 (contact JA for a copy)
 Please cite this work in publications based on results
 obtained with this code. Thank you!

 For extension of response module to open shell
 calculations please acknowledge:
 F. Aquino, Northwestern University, Schatz Rsrch Group
 The update to the methodology is described in
 J. Phys. Chem. A 118 (2014) 517-525



          -----------------------------------------------
          Solving response equations for perturbing field
          -----------------------------------------------

 number of frequencies:     1
 frequency in a.u.:  0.8855800E-01
 Perturbing field: electric
 Using GIAO formalism for OptRot
 Adding quadrupole terms to OptRot
 to create an origin in dependent tensor.
 Using El. Dipole Length Gauge
 
 Applying DAMPING constant of  0.003700 a.u.
 
 Setting up CPKS
 with frequency omega =      0.08855800 a.u.
 and a damping of            0.00370000 a.u.

 
                            NWChem Dynamic CPHF Module
                            --------------------------
 
 
    scftype = RHF 
    nclosed =    9
      nopen =    0
  variables =     2340
  num. vecs =        3
  tolerance =   1.0D-09
  max. iter =  100

 SCF residual:   1.231980095244880E-006


Iterative solution of linear equations
  No. of variables     1170
  No. of equations        3
  Maximum subspace       99
       Convergence  1.0D-09
        Start time     50.3


   iter   nsub   residual    time 
   ----  ------  --------  --------- 
 dft_CPHF2_read: failed to open./h2o2_514.5_01.inp.aoresp_fiao_f1
     1      3    5.17D+00      77.7
     2      6    2.17D+00     105.4
     3      9    1.70D-01     133.1
     4     12    8.08D-03     160.8
     5     15    2.04D-03     188.5
     6     18    3.05D-04     216.1
     7     21    2.76D-05     243.8
     8     24    8.55D-07     271.4
     9     27    5.48D-08     299.0
    10     30    4.63D-09     326.7
    11     33    3.54D-10     354.4

 Calculating some arrays needed for GIAO optical rotation

    0 giaofock schwarz done =      98.67%
    0 giaofock schwarz done =      98.67%
 aor_r1_tensor_giao: roadata output requested
 dip-quad polarizability Re:

              1        2        3        4        5        6      
    1 -337.4576  43.2442  -9.1725   6.9735   4.3808   0.1696
    2  -24.4716-185.4866  55.1892 118.7902 -15.3953   3.4685
    3  -15.2711  56.5997-251.8273 -35.3156  82.1598   8.1995
 traceless dip-quad polarizability:

              1        2        3      
    1 -341.0291  64.8662 -13.7587
    2   64.8662 175.6175   6.5712
    3  -13.7587   6.5712 165.4116

              1        2        3      
    1  -85.6009-278.2299  82.7838
    2 -278.2299 129.2917 -23.0929
    3   82.7838 -23.0929 -43.6908

              1        2        3      
    1   -1.7131  84.8996-377.7410
    2   84.8996 -31.7798 123.2397
    3 -377.7410 123.2397  33.4928

 roa begin

 alpha real:
 XX       0.1070898217776E+02
 XY       0.7970952322998E+00
 XZ       0.4299145625737E+00
 YX       0.7970952323433E+00
 YY       0.1204406083834E+02
 YZ      -0.3405866408031E+01
 ZX       0.4299145625698E+00
 ZY      -0.3405866408043E+01
 ZZ       0.1605898206116E+02

 alpha im:
 XX       0.2245660336941E-01
 XY       0.2483100016632E-02
 XZ      -0.1685654715884E-02
 YX       0.2483100152032E-02
 YY       0.3029118145894E-01
 YZ      -0.1340892051937E-01
 ZX      -0.1685654726014E-02
 ZY      -0.1340892032539E-01
 ZZ       0.4173387363579E-01

 beta real:
 XX      -0.7671615656747E-01
 XY      -0.2163076148825E+00
 XZ       0.3012152513505E+01
 YX       0.7860103665262E+00
 YY       0.2203813338431E+01
 YZ       0.8415802143842E+01
 ZX      -0.3207104879368E+01
 ZY      -0.1104580001527E+02
 ZZ      -0.2132270701586E+01

 G-prime = -omega beta(real):
 XX      -0.7671615656747E-01
 XY      -0.2163076148825E+00
 XZ       0.3012152513505E+01
 YX       0.7860103665262E+00
 YY       0.2203813338431E+01
 YZ       0.8415802143842E+01
 ZX      -0.3207104879368E+01
 ZY      -0.1104580001527E+02
 ZZ      -0.2132270701586E+01

 beta im:
 XX      -0.1342123714080E-02
 XY      -0.1049813553274E-02
 XZ       0.5924721867943E-01
 YX       0.3474114467536E-01
 YY       0.9526842590176E-01
 YZ       0.1315031636388E+00
 ZX      -0.6176627103883E-01
 ZY      -0.2324560311177E+00
 ZZ      -0.9669207974697E-01

 G-prime = -omega beta(imag):
 XX      -0.1342123714080E-02
 XY      -0.1049813553274E-02
 XZ       0.5924721867943E-01
 YX       0.3474114467536E-01
 YY       0.9526842590176E-01
 YZ       0.1315031636388E+00
 ZX      -0.6176627103883E-01
 ZY      -0.2324560311177E+00
 ZZ      -0.9669207974697E-01

 dipole-quadrupole real (Cartesian):
 XXX     -0.3374575727993E+03
 XXY      0.4324416666236E+02
 XXZ     -0.9172459997716E+01
 XYY      0.6973527000105E+01
 XYZ      0.4380776864975E+01
 XZZ      0.1695725211723E+00
 YXX     -0.2447158779521E+02
 YXY     -0.1854865865225E+03
 YXZ      0.5518922061929E+02
 YYY      0.1187901890498E+03
 YYZ     -0.1539527046177E+02
 YZZ      0.3468481176835E+01
 ZXX     -0.1527110952096E+02
 ZXY      0.5659974468842E+02
 ZXZ     -0.2518273470261E+03
 ZYY     -0.3531556695236E+02
 ZYZ      0.8215977284157E+02
 ZZZ      0.8199509908691E+01

 dipole-quadrupole imag (Cartesian):
 XXX     -0.7116914144057E+00
 XXY      0.8200780425311E-01
 XXZ      0.2006876659507E-01
 XYY      0.2214988681011E-01
 XYZ     -0.3860109540853E-02
 XZZ     -0.3075991101537E-02
 YXX     -0.7502913678911E-01
 YXY     -0.4695906179853E+00
 YXZ      0.2192314642049E+00
 YYY      0.3068059215138E+00
 YYZ     -0.6401663235075E-01
 YZZ      0.5950071760646E-02
 ZXX      0.4848173484801E-01
 ZXY      0.2064630148995E+00
 ZXZ     -0.6607077781764E+00
 ZYY     -0.1439795956272E+00
 ZYZ      0.2196084113213E+00
 ZZZ      0.3196917382313E-01

 dipole-quadrupole (traceless):
 XXX     -0.3410291225600E+03
 XXY      0.6486624999354E+02
 XXZ     -0.1375868999657E+02
 XYY      0.1756175271392E+03
 XYZ      0.6571165297462E+01
 XZZ      0.1654115954208E+03
 YXX     -0.8560092290853E+02
 YXY     -0.2782298797837E+03
 YXZ      0.8278383092894E+02
 YYY      0.1292917423590E+03
 YYZ     -0.2309290569265E+02
 YZZ     -0.4369081945047E+02
 ZXX     -0.1713080999120E+01
 ZXY      0.8489961703263E+02
 ZXZ     -0.3777410205391E+03
 ZYY     -0.3177976714623E+02
 ZYZ      0.1232396592624E+03
 ZZZ      0.3349284814535E+02

 roa end


 Electric Dipole Response Matrix (nonzero elements):

              1        2        3      
    1   10.7090   0.7971   0.4299
    2    0.7971  12.0441  -3.4059
    3    0.4299  -3.4059  16.0590
 
 Imaginary part:

              1        2        3      
    1    0.0225   0.0025  -0.0017
    2    0.0025   0.0303  -0.0134
    3   -0.0017  -0.0134   0.0417

 ------------------------------------------
 average:        12.93734 + I       0.03149


 DFT Linear Response polarizability / au 
 Frequency  =       0.0885580 / au
 Wavelength =     514.5029585 / nm
              X              Y              Z
 -----------------------------------------------
 X      10.7089822      0.7970952      0.4299146
 Y       0.7970952     12.0440608     -3.4058664
 Z       0.4299146     -3.4058664     16.0589821
 -----------------------------------------------
 Eigenvalues =      11.3589856      9.4479925     18.0050469
 Isotropic   =      12.9373417
 Anisotropic =       6.3520392
 -----------------------------------------------
 *************************

 DFT Linear Response IMAG polarizability / au 
 Frequency  =       0.0885580 / au
 Wavelength =     514.5029585 / nm
              X              Y              Z
 -----------------------------------------------
 X       0.0224566      0.0024831     -0.0016857
 Y       0.0024831      0.0302912     -0.0134089
 Z      -0.0016857     -0.0134089      0.0417339
 -----------------------------------------------
 Eigenvalues =       0.0230075      0.0206116      0.0508626
 Isotropic   =       0.0314939
 Anisotropic =       0.0237821
 -----------------------------------------------
 *************************

 Magnetic Dipole Response Matrix (nonzero elements):
 Optical rotation tensor Beta
 (Buckingham-Dunn version including dipole-quadrupole terms)

              1        2        3      
    1    0.1610   0.2389  -1.6432
    2    0.2389   1.2239  -0.0352
    3   -1.6432  -0.0352  -1.3265
 
 Imaginary part:

              1        2        3      
    1    0.0152   0.0119  -0.6690
    2   -0.3923  -1.0758  -1.4849
    3    0.6975   2.6249   1.0919

 ------------------------------------------
 average:         0.01947 + I       0.01041

 Principal components and PAS (Real part)
                 -2.38921
                  1.44355
                  1.00408
 ------------------------
 average:         0.01947

              1        2        3      
    1    0.5433   0.6004   0.5869
    2   -0.0277   0.7115  -0.7021
    3    0.8391  -0.3652  -0.4032

 Chiral response tensor (Real part):

              1        2        3      
    1   -0.0513  -0.1194   0.8216
    2   -0.1194  -0.5828   0.0176
    3    0.8216   0.0176   0.6925
 
 Principal components and PAS (Real part)
                  1.22382
                 -0.69257
                 -0.47283
 ------------------------
 average:         0.01947

              1        2        3      
    1    0.5433   0.6004   0.5869
    2   -0.0277   0.7115  -0.7021
    3    0.8391  -0.3652  -0.4032
 Exiting AOResponse driver routine

 Task  times  cpu:      346.2s     wall:      347.4s
 
 
                                NWChem Input Module
                                -------------------
 
 
 Summary of allocated global arrays
-----------------------------------
  No active global arrays



                         GA Statistics for process    0
                         ------------------------------

       create   destroy   get      put      acc     scatter   gather  read&inc
calls: 2444     2444     6.44e+06 5.32e+06 4.83e+05 1938        0     1953     
number of processes/call 1.00e+00 1.00e+00 1.00e+00 0.00e+00 0.00e+00
bytes total:             1.18e+09 1.67e+08 1.12e+09 5.92e+02 0.00e+00 1.56e+04
bytes remote:            0.00e+00 0.00e+00 0.00e+00 0.00e+00 0.00e+00 0.00e+00
Max memory consumed for GA by this process: 11498464 bytes
 
MA_summarize_allocated_blocks: starting scan ...
MA_summarize_allocated_blocks: scan completed: 0 heap blocks, 0 stack blocks
MA usage statistics:

	allocation statistics:
					      heap	     stack
					      ----	     -----
	current number of blocks	         0	         0
	maximum number of blocks	        24	        52
	current total bytes		         0	         0
	maximum total bytes		  20676928	  42215048
	maximum total K-bytes		     20677	     42216
	maximum total M-bytes		        21	        43
 
 
                                     CITATION
                                     --------
                Please cite the following reference when publishing
                           results obtained with NWChem:
 
                 M. Valiev, E.J. Bylaska, N. Govind, K. Kowalski,
              T.P. Straatsma, H.J.J. van Dam, D. Wang, J. Nieplocha,
                        E. Apra, T.L. Windus, W.A. de Jong
                 "NWChem: a comprehensive and scalable open-source
                  solution for large scale molecular simulations"
                      Comput. Phys. Commun. 181, 1477 (2010)
                           doi:10.1016/j.cpc.2010.04.018
 
                                      AUTHORS
                                      -------
          E. Apra, E. J. Bylaska, W. A. de Jong, N. Govind, K. Kowalski,
       T. P. Straatsma, M. Valiev, H. J. J. van Dam, D. Wang, T. L. Windus,
        J. Hammond, J. Autschbach, K. Bhaskaran-Nair, J. Brabec, K. Lopata,
    S. A. Fischer, S. Krishnamoorthy, M. Jacquelin, W. Ma, M. Klemm, O. Villa,
      Y. Chen, V. Anisimov, F. Aquino, S. Hirata, M. T. Hackler, V. Konjkov,
            D. Mejia-Rodriguez, T. Risthaus, M. Malagoli, A. Marenich,
   A. Otero-de-la-Roza, J. Mullin, P. Nichols, R. Peverati, J. Pittner, Y. Zhao,
        P.-D. Fan, A. Fonari, M. J. Williamson, R. J. Harrison, J. R. Rehr,
      M. Dupuis, D. Silverstein, D. M. A. Smith, J. Nieplocha, V. Tipparaju,
    M. Krishnan, B. E. Van Kuiken, A. Vazquez-Mayagoitia, L. Jensen, M. Swart,
      Q. Wu, T. Van Voorhis, A. A. Auer, M. Nooijen, L. D. Crosby, E. Brown,
      G. Cisneros, G. I. Fann, H. Fruchtl, J. Garza, K. Hirao, R. A. Kendall,
      J. A. Nichols, K. Tsemekhman, K. Wolinski, J. Anchell, D. E. Bernholdt,
      P. Borowski, T. Clark, D. Clerc, H. Dachsel, M. J. O. Deegan, K. Dyall,
    D. Elwood, E. Glendening, M. Gutowski, A. C. Hess, J. Jaffe, B. G. Johnson,
     J. Ju, R. Kobayashi, R. Kutteh, Z. Lin, R. Littlefield, X. Long, B. Meng,
      T. Nakajima, S. Niu, L. Pollack, M. Rosing, K. Glaesemann, G. Sandrone,
      M. Stave, H. Taylor, G. Thomas, J. H. van Lenthe, A. T. Wong, Z. Zhang.

 Total times  cpu:      381.1s     wall:      383.6s
