 argument  1 = h2o2_514.5_11.inp
 


============================== echo of input deck ==============================
echo
start h2o2_514.5_11.inp
title "h2o2 roa calculations at 514.5 nm, input generated by va with delta_type=2"
charge 0



geometry units angstrom nocenter noautoz noautosym nucleus point;symmetry c1
 O -8.052971  3.049070 -0.528492
 O -8.433336  2.112811  0.568075
 H -8.959019  3.235165 -0.902688
 H -8.134584  2.623942  1.319679
end

basis spherical
* library def2-TZVP
end

 set prop:newaoresp 1
 set aor:roadata T
 set cphf:maxsub 100
 set cphf:acc 1.0d-10
 set cphf:maxiter 100

property
    response 1   0.088558
    bdtensor
    convergence 1e-9
    damping 0.0037
    giao
end

dft
 direct
 mult 1
 xc becke88 lyp
 iterations 250
 tolerances tight
 grid xfine
 convergence nolevelshifting
 convergence energy 1e-8
 convergence gradient 1e-8


end

task dft gradient
task dft property
================================================================================


                                         
                                         
 
 
              Northwest Computational Chemistry Package (NWChem) 6.8
              ------------------------------------------------------
 
 
                    Environmental Molecular Sciences Laboratory
                       Pacific Northwest National Laboratory
                                Richland, WA 99352
 
                              Copyright (c) 1994-2017
                       Pacific Northwest National Laboratory
                            Battelle Memorial Institute
 
             NWChem is an open-source computational chemistry package
                        distributed under the terms of the
                      Educational Community License (ECL) 2.0
             A copy of the license is included with this distribution
                              in the LICENSE.TXT file
 
                                  ACKNOWLEDGMENT
                                  --------------

            This software and its documentation were developed at the
            EMSL at Pacific Northwest National Laboratory, a multiprogram
            national laboratory, operated for the U.S. Department of Energy
            by Battelle under Contract Number DE-AC05-76RL01830. Support
            for this work was provided by the Department of Energy Office
            of Biological and Environmental Research, Office of Basic
            Energy Sciences, and the Office of Advanced Scientific Computing.


           Job information
           ---------------

    hostname        = cpn-f11-19-01.cbls.ccr.buffalo.edu
    program         = /util/academic/nwchem/nwchem-6.8/bin/LINUX64/nwchem
    date            = Thu Feb 28 18:48:56 2019

    compiled        = Tue_Nov_06_14:59:08_2018
    source          = /util/academic/nwchem/nwchem-6.8
    nwchem branch   = 6.8
    nwchem revision = v6.8-47-gdf6c956
    ga revision     = ga-5.6.3
    use scalapack   = F
    input           = h2o2_514.5_11.inp
    prefix          = h2o2_514.5_11.inp.
    data base       = ./h2o2_514.5_11.inp.db
    status          = startup
    nproc           =        1
    time left       =     -1s



           Memory information
           ------------------

    heap     =   13107200 doubles =    100.0 Mbytes
    stack    =   13107197 doubles =    100.0 Mbytes
    global   =   26214400 doubles =    200.0 Mbytes (distinct from heap & stack)
    total    =   52428797 doubles =    400.0 Mbytes
    verify   = yes
    hardfail = no 


           Directory information
           ---------------------
 
  0 permanent = .
  0 scratch   = .
 
 
 
 
                                NWChem Input Module
                                -------------------
 
 
                         h2o2 roa calculations at 514.5 nm, input generated by va with delta_type=2
                         ---------------------------------

 Scaling coordinates for geometry "geometry" by  1.889725989
 (inverse scale =  0.529177249)

 
 
                             Geometry "geometry" -> ""
                             -------------------------
 
 Output coordinates in angstroms (scale by  1.889725989 to convert to a.u.)
 
  No.       Tag          Charge          X              Y              Z
 ---- ---------------- ---------- -------------- -------------- --------------
    1 O                    8.0000    -8.05297100     3.04907000    -0.52849200
    2 O                    8.0000    -8.43333600     2.11281100     0.56807500
    3 H                    1.0000    -8.95901900     3.23516500    -0.90268800
    4 H                    1.0000    -8.13458400     2.62394200     1.31967900
 
      Atomic Mass 
      ----------- 
 
      O                 15.994910
      H                  1.007825
 

 Effective nuclear repulsion energy (a.u.)      36.0262674338

            Nuclear Dipole moment (a.u.) 
            ----------------------------
        X                 Y               Z
 ---------------- ---------------- ----------------
  -281.5390481764    89.1084321730     1.3864069202
 
 
            XYZ format geometry
            -------------------
     4
 geometry
 O                    -8.05297100     3.04907000    -0.52849200
 O                    -8.43333600     2.11281100     0.56807500
 H                    -8.95901900     3.23516500    -0.90268800
 H                    -8.13458400     2.62394200     1.31967900
 
 ==============================================================================
                                internuclear distances
 ------------------------------------------------------------------------------
       center one      |      center two      | atomic units |  angstroms
 ------------------------------------------------------------------------------
    3 H                |   1 O                |     1.88554  |     0.99779
    4 H                |   2 O                |     1.80804  |     0.95677
 ------------------------------------------------------------------------------
                         number of included internuclear distances:          2
 ==============================================================================



  warning:::::::::::::: from_environment
  NWCHEM_BASIS_LIBRARY set to: <
 /util/academic/nwchem/nwchem-6.8/src/basis/libraries>
  but file does not exist !
  using .nwchemrc or compiled library


 Summary of "ao basis" -> "" (spherical)
 ------------------------------------------------------------------------------
       Tag                 Description            Shells   Functions and Types
 ---------------- ------------------------------  ------  ---------------------
 *                         def2-TZVP                  on all atoms 


 
                                 NWChem DFT Module
                                 -----------------
 
 
                         h2o2 roa calculations at 514.5 nm, input generated by va with delta_type=2
 
 
                      Basis "ao basis" -> "ao basis" (spherical)
                      -----
  O (Oxygen)
  ----------
            Exponent  Coefficients 
       -------------- ---------------------------------------------------------
  1 S  2.70323826E+04  0.000217
  1 S  4.05238714E+03  0.001684
  1 S  9.22327227E+02  0.008740
  1 S  2.61240710E+02  0.035240
  1 S  8.53546414E+01  0.111535
  1 S  3.10350352E+01  0.255890
 
  2 S  1.22608607E+01  0.397687
  2 S  4.99870760E+00  0.246278
 
  3 S  1.17031082E+00  1.000000
 
  4 S  4.64747410E-01  1.000000
 
  5 S  1.85045364E-01  1.000000
 
  6 P  6.32749548E+01  0.006069
  6 P  1.46270494E+01  0.041913
  6 P  4.45012235E+00  0.161538
  6 P  1.52757996E+00  0.357070
 
  7 P  5.29351179E-01  1.000000
 
  8 P  1.74784213E-01  1.000000
 
  9 D  2.31400000E+00  1.000000
 
 10 D  6.45000000E-01  1.000000
 
 11 F  1.42800000E+00  1.000000
 
  H (Hydrogen)
  ------------
            Exponent  Coefficients 
       -------------- ---------------------------------------------------------
  1 S  3.40613410E+01  0.006025
  1 S  5.12357460E+00  0.045021
  1 S  1.16466260E+00  0.201897
 
  2 S  3.27230410E-01  1.000000
 
  3 S  1.03072410E-01  1.000000
 
  4 P  8.00000000E-01  1.000000
 


 Summary of "ao basis" -> "ao basis" (spherical)
 ------------------------------------------------------------------------------
       Tag                 Description            Shells   Functions and Types
 ---------------- ------------------------------  ------  ---------------------
 O                         def2-TZVP                11       31   5s3p2d1f
 H                         def2-TZVP                 4        6   3s1p




 Summary of "ao basis" -> "ao basis" (spherical)
 ------------------------------------------------------------------------------
       Tag                 Description            Shells   Functions and Types
 ---------------- ------------------------------  ------  ---------------------
 O                         def2-TZVP                11       31   5s3p2d1f
 H                         def2-TZVP                 4        6   3s1p


  Caching 1-el integrals 
  itol2e modified to match energy
  convergence criterion.
  tol_rho modified to match energy
  convergence criterion.
 
            General Information
            -------------------
          SCF calculation type: DFT
          Wavefunction type:  closed shell.
          No. of atoms     :     4
          No. of electrons :    18
           Alpha electrons :     9
            Beta electrons :     9
          Charge           :     0
          Spin multiplicity:     1
          Use of symmetry is: off; symmetry adaption is: off
          Maximum number of iterations: 250
          This is a Direct SCF calculation.
          AO basis - number of functions:    74
                     number of shells:    30
          Convergence on energy requested:  1.00D-08
          Convergence on density requested:  1.00D-05
          Convergence on gradient requested:  1.00D-08
 
              XC Information
              --------------
                    Becke 1988 Exchange Functional  1.000          
              Lee-Yang-Parr Correlation Functional  1.000          
 
             Grid Information
             ----------------
          Grid used for XC integration:  xfine     
          Radial quadrature: Mura-Knowles        
          Angular quadrature: Lebedev. 
          Tag              B.-S. Rad. Rad. Pts. Rad. Cut. Ang. Pts.
          ---              ---------- --------- --------- ---------
          O                   0.60      100           8.0      1454
          H                   0.35      100           9.0      1202
          Grid pruning is: on 
          Number of quadrature shells:   400
          Spatial weights used:  Erf1
 
          Convergence Information
          -----------------------
          Convergence aids based upon iterative change in 
          total energy or number of iterations. 
          Levelshifting, if invoked, occurs when the 
          HOMO/LUMO gap drops below (HL_TOL):  1.00D-02
          DIIS, if invoked, will attempt to extrapolate 
          using up to (NFOCK): 10 stored Fock matrices.

                    Damping( 0%)  Levelshifting(0.0)       DIIS
                  --------------- ------------------- ---------------
          dE  on:    start             N/A                start   
          dE off:    2 iters           N/A              250 iters 

 
      Screening Tolerance Information
      -------------------------------
          Density screening/tol_rho:  1.00D-11
          AO Gaussian exp screening on grid/accAOfunc:  18
          CD Gaussian exp screening on grid/accCDfunc:  20
          XC Gaussian exp screening on grid/accXCfunc:  20
          Schwarz screening/accCoul:  1.00D-09

 
      Superposition of Atomic Density Guess
      -------------------------------------
 
 Sum of atomic energies:        -150.56823290
 
      Non-variational initial energy
      ------------------------------

 Total energy =    -150.659987
 1-e energy   =    -278.605188
 2-e energy   =      91.918933
 HOMO         =      -0.359835
 LUMO         =      -0.045825
 
   Time after variat. SCF:      1.3
   Time prior to 1st pass:      1.3

 Grid_pts file          = ./h2o2_514.5_11.inp.gridpts.0
 Record size in doubles =  12289        No. of grid_pts per rec  =   3070
 Max. records in memory =    210        Max. recs in file   =   3881835


           Memory utilization after 1st SCF pass: 
           Heap Space remaining (MW):       10.52            10522928
          Stack Space remaining (MW):       13.11            13106668

   convergence    iter        energy       DeltaE   RMS-Dens  Diis-err    time
 ---------------- ----- ----------------- --------- --------- ---------  ------
 d= 0,ls=0.0,diis     1   -151.5591476318 -1.88D+02  7.36D-03  6.79D-01     5.3
 d= 0,ls=0.0,diis     2   -151.5940859096 -3.49D-02  2.72D-03  6.27D-02     9.1
 d= 0,ls=0.0,diis     3   -151.5980636214 -3.98D-03  1.31D-03  2.68D-02    12.8
 d= 0,ls=0.0,diis     4   -151.5990481859 -9.85D-04  6.67D-04  1.60D-02    16.6
 d= 0,ls=0.0,diis     5   -151.6003087723 -1.26D-03  2.04D-04  1.54D-03    20.3
 d= 0,ls=0.0,diis     6   -151.6004369510 -1.28D-04  3.87D-05  3.95D-05    24.1
 d= 0,ls=0.0,diis     7   -151.6004408348 -3.88D-06  3.47D-06  3.15D-07    27.8
 d= 0,ls=0.0,diis     8   -151.6004408629 -2.80D-08  7.73D-07  5.72D-09    31.6
 d= 0,ls=0.0,diis     9   -151.6004408634 -5.01D-10  1.90D-07  3.91D-10    35.4


         Total DFT energy =     -151.600440863389
      One electron energy =     -279.905585651266
           Coulomb energy =      110.092890945010
    Exchange-Corr. energy =      -17.814013590901
 Nuclear repulsion energy =       36.026267433768

 Numeric. integr. density =       17.999999998211

     Total iterative time =     34.0s


 
                       DFT Final Molecular Orbital Analysis
                       ------------------------------------
 
 Vector    1  Occ=2.000000D+00  E=-1.883387D+01
              MO Center= -8.1D+00,  3.0D+00, -5.3D-01, r^2= 1.5D-02
   Bfn.  Coefficient  Atom+Function         Bfn.  Coefficient  Atom+Function  
  ----- ------------  ---------------      ----- ------------  ---------------
     2      0.638761  1 O  s                  1      0.435397  1 O  s          
     3      0.037143  1 O  s                  4     -0.025022  1 O  s          
 
 Vector    2  Occ=2.000000D+00  E=-1.882969D+01
              MO Center= -8.4D+00,  2.1D+00,  5.7D-01, r^2= 1.5D-02
   Bfn.  Coefficient  Atom+Function         Bfn.  Coefficient  Atom+Function  
  ----- ------------  ---------------      ----- ------------  ---------------
    33      0.638753  2 O  s                 32      0.435387  2 O  s          
    34      0.037160  2 O  s                 35     -0.025109  2 O  s          
 
 Vector    3  Occ=2.000000D+00  E=-1.008635D+00
              MO Center= -8.3D+00,  2.6D+00,  8.4D-02, r^2= 8.2D-01
   Bfn.  Coefficient  Atom+Function         Bfn.  Coefficient  Atom+Function  
  ----- ------------  ---------------      ----- ------------  ---------------
    35      0.317624  2 O  s                  4      0.306684  1 O  s          
    34      0.244612  2 O  s                  3      0.233748  1 O  s          
    33     -0.166523  2 O  s                  2     -0.159378  1 O  s          
    36      0.098317  2 O  s                  5      0.094852  1 O  s          
    38      0.073412  2 O  py                32     -0.071535  2 O  s          
 
 Vector    4  Occ=2.000000D+00  E=-8.200014D-01
              MO Center= -8.3D+00,  2.7D+00,  5.8D-02, r^2= 1.3D+00
   Bfn.  Coefficient  Atom+Function         Bfn.  Coefficient  Atom+Function  
  ----- ------------  ---------------      ----- ------------  ---------------
     4      0.336708  1 O  s                 35     -0.315594  2 O  s          
     3      0.260108  1 O  s                 34     -0.247700  2 O  s          
     2     -0.171447  1 O  s                 33      0.162741  2 O  s          
     5      0.145132  1 O  s                 36     -0.135907  2 O  s          
    39     -0.094735  2 O  pz                69     -0.094263  4 H  s          
 
 Vector    5  Occ=2.000000D+00  E=-4.740852D-01
              MO Center= -8.3D+00,  2.6D+00,  6.5D-02, r^2= 1.3D+00
   Bfn.  Coefficient  Atom+Function         Bfn.  Coefficient  Atom+Function  
  ----- ------------  ---------------      ----- ------------  ---------------
    39      0.316557  2 O  pz                42      0.245874  2 O  pz         
     7      0.210273  1 O  py                 8     -0.196591  1 O  pz         
    10      0.169386  1 O  py                11     -0.155901  1 O  pz         
    70      0.135418  4 H  s                 64      0.125851  3 H  s          
    45      0.111882  2 O  pz                69      0.111306  4 H  s          
 
 Vector    6  Occ=2.000000D+00  E=-4.331713D-01
              MO Center= -8.3D+00,  2.6D+00,  1.3D-02, r^2= 1.3D+00
   Bfn.  Coefficient  Atom+Function         Bfn.  Coefficient  Atom+Function  
  ----- ------------  ---------------      ----- ------------  ---------------
     6      0.257379  1 O  px                 9      0.193107  1 O  px         
    37      0.180196  2 O  px                35     -0.156967  2 O  s          
    36     -0.156579  2 O  s                 38      0.152958  2 O  py         
     4      0.151376  1 O  s                  5      0.151519  1 O  s          
    39      0.142310  2 O  pz                64     -0.140005  3 H  s          
 
 Vector    7  Occ=2.000000D+00  E=-3.655728D-01
              MO Center= -8.2D+00,  2.5D+00, -1.6D-02, r^2= 1.3D+00
   Bfn.  Coefficient  Atom+Function         Bfn.  Coefficient  Atom+Function  
  ----- ------------  ---------------      ----- ------------  ---------------
    38      0.319438  2 O  py                41      0.249531  2 O  py         
     6     -0.238453  1 O  px                 8      0.214784  1 O  pz         
     9     -0.183033  1 O  px                11      0.173434  1 O  pz         
    44      0.165743  2 O  py                 5     -0.131118  1 O  s          
    36     -0.131650  2 O  s                 12     -0.118424  1 O  px         
 
 Vector    8  Occ=2.000000D+00  E=-2.757401D-01
              MO Center= -8.3D+00,  2.6D+00,  5.1D-02, r^2= 1.3D+00
   Bfn.  Coefficient  Atom+Function         Bfn.  Coefficient  Atom+Function  
  ----- ------------  ---------------      ----- ------------  ---------------
    37      0.344964  2 O  px                 7     -0.268493  1 O  py         
    40      0.268113  2 O  px                10     -0.214719  1 O  py         
    43      0.215048  2 O  px                13     -0.170879  1 O  py         
     8     -0.159165  1 O  pz                 6     -0.150095  1 O  px         
     5     -0.121626  1 O  s                 36     -0.121735  2 O  s          
 
 Vector    9  Occ=2.000000D+00  E=-2.309258D-01
              MO Center= -8.2D+00,  2.6D+00,  1.9D-03, r^2= 1.2D+00
   Bfn.  Coefficient  Atom+Function         Bfn.  Coefficient  Atom+Function  
  ----- ------------  ---------------      ----- ------------  ---------------
    37      0.280007  2 O  px                 7      0.276719  1 O  py         
    40      0.221406  2 O  px                10      0.216058  1 O  py         
    38     -0.216960  2 O  py                 8      0.204364  1 O  pz         
    43      0.204260  2 O  px                13      0.190691  1 O  py         
    41     -0.165519  2 O  py                11      0.160826  1 O  pz         
 
 Vector   10  Occ=0.000000D+00  E=-6.040171D-02
              MO Center= -8.3D+00,  2.6D+00,  3.1D-02, r^2= 1.8D+00
   Bfn.  Coefficient  Atom+Function         Bfn.  Coefficient  Atom+Function  
  ----- ------------  ---------------      ----- ------------  ---------------
     5      0.505953  1 O  s                 36     -0.492638  2 O  s          
    44     -0.321580  2 O  py                65     -0.307666  3 H  s          
    14      0.295075  1 O  pz                13     -0.283735  1 O  py         
    45      0.280507  2 O  pz                71      0.276106  4 H  s          
     8      0.259995  1 O  pz                38     -0.253098  2 O  py         
 
 Vector   11  Occ=0.000000D+00  E=-4.108060D-03
              MO Center= -8.7D+00,  3.1D+00,  3.4D-02, r^2= 4.2D+00
   Bfn.  Coefficient  Atom+Function         Bfn.  Coefficient  Atom+Function  
  ----- ------------  ---------------      ----- ------------  ---------------
    65      1.082717  3 H  s                 71      0.898988  4 H  s          
     5     -0.657235  1 O  s                 36     -0.623364  2 O  s          
    12      0.283900  1 O  px                45     -0.183642  2 O  pz         
    14      0.154831  1 O  pz                44     -0.146904  2 O  py         
     6      0.141126  1 O  px                64      0.138027  3 H  s          
 
 Vector   12  Occ=0.000000D+00  E= 4.064071D-02
              MO Center= -8.5D+00,  3.0D+00,  5.4D-01, r^2= 4.3D+00
   Bfn.  Coefficient  Atom+Function         Bfn.  Coefficient  Atom+Function  
  ----- ------------  ---------------      ----- ------------  ---------------
    71      1.333200  4 H  s                 65     -1.047400  3 H  s          
    36     -0.520302  2 O  s                 45     -0.471317  2 O  pz         
     5      0.320888  1 O  s                 14     -0.294433  1 O  pz         
    39     -0.245798  2 O  pz                12     -0.225530  1 O  px         
    13      0.200898  1 O  py                 8     -0.166540  1 O  pz         
 
 Vector   13  Occ=0.000000D+00  E= 3.329351D-01
              MO Center= -8.7D+00,  3.1D+00, -7.8D-01, r^2= 2.8D+00
   Bfn.  Coefficient  Atom+Function         Bfn.  Coefficient  Atom+Function  
  ----- ------------  ---------------      ----- ------------  ---------------
    64      1.759257  3 H  s                 65     -1.099622  3 H  s          
    14      0.441067  1 O  pz                 4     -0.425186  1 O  s          
     9      0.426871  1 O  px                12      0.380721  1 O  px         
    45     -0.345049  2 O  pz                44      0.323315  2 O  py         
     5     -0.265826  1 O  s                 13     -0.210143  1 O  py         
 
 Vector   14  Occ=0.000000D+00  E= 3.482587D-01
              MO Center= -8.1D+00,  2.7D+00,  5.8D-02, r^2= 3.5D+00
   Bfn.  Coefficient  Atom+Function         Bfn.  Coefficient  Atom+Function  
  ----- ------------  ---------------      ----- ------------  ---------------
    70      1.522987  4 H  s                 36     -1.051939  2 O  s          
    44     -0.866130  2 O  py                 5      0.823974  1 O  s          
    13     -0.767040  1 O  py                71     -0.726832  4 H  s          
    12     -0.706394  1 O  px                14      0.695168  1 O  pz         
    43     -0.643022  2 O  px                64     -0.528471  3 H  s          
 
 Vector   15  Occ=0.000000D+00  E= 3.534360D-01
              MO Center= -8.4D+00,  2.3D+00,  9.0D-01, r^2= 3.0D+00
   Bfn.  Coefficient  Atom+Function         Bfn.  Coefficient  Atom+Function  
  ----- ------------  ---------------      ----- ------------  ---------------
    70      1.305096  4 H  s                 45     -0.994127  2 O  pz         
    71     -0.662333  4 H  s                 13      0.592875  1 O  py         
    44      0.549755  2 O  py                 5     -0.465862  1 O  s          
    41     -0.465930  2 O  py                64     -0.378628  3 H  s          
    14     -0.329125  1 O  pz                43      0.322004  2 O  px         
 
 Vector   16  Occ=0.000000D+00  E= 3.725481D-01
              MO Center= -8.0D+00,  2.3D+00, -1.4D-01, r^2= 2.6D+00
   Bfn.  Coefficient  Atom+Function         Bfn.  Coefficient  Atom+Function  
  ----- ------------  ---------------      ----- ------------  ---------------
    44      0.620580  2 O  py                12     -0.529264  1 O  px         
     4      0.465150  1 O  s                 35      0.463232  2 O  s          
    13      0.420099  1 O  py                 5     -0.370457  1 O  s          
    70     -0.343772  4 H  s                 45      0.322391  2 O  pz         
    36     -0.308322  2 O  s                 41     -0.309122  2 O  py         
 
 Vector   17  Occ=0.000000D+00  E= 4.130225D-01
              MO Center= -8.2D+00,  2.6D+00,  5.0D-02, r^2= 3.0D+00
   Bfn.  Coefficient  Atom+Function         Bfn.  Coefficient  Atom+Function  
  ----- ------------  ---------------      ----- ------------  ---------------
    14      0.882955  1 O  pz                45     -0.834099  2 O  pz         
    12      0.786963  1 O  px                43     -0.731414  2 O  px         
     4     -0.390000  1 O  s                 42      0.373734  2 O  pz         
    11     -0.368668  1 O  pz                35     -0.335622  2 O  s          
    40      0.282452  2 O  px                 9     -0.242345  1 O  px         
 
 Vector   18  Occ=0.000000D+00  E= 4.425513D-01
              MO Center= -8.2D+00,  2.6D+00,  1.7D-02, r^2= 3.5D+00
   Bfn.  Coefficient  Atom+Function         Bfn.  Coefficient  Atom+Function  
  ----- ------------  ---------------      ----- ------------  ---------------
    44      1.226196  2 O  py                14     -1.029917  1 O  pz         
    36      0.909245  2 O  s                  5     -0.820466  1 O  s          
    12      0.783766  1 O  px                43     -0.651223  2 O  px         
    13     -0.484458  1 O  py                70     -0.435918  4 H  s          
    64      0.414681  3 H  s                 40      0.371451  2 O  px         
 
 Vector   19  Occ=0.000000D+00  E= 4.656720D-01
              MO Center= -8.3D+00,  2.7D+00,  3.0D-02, r^2= 4.0D+00
   Bfn.  Coefficient  Atom+Function         Bfn.  Coefficient  Atom+Function  
  ----- ------------  ---------------      ----- ------------  ---------------
     5      1.105275  1 O  s                 65     -0.863067  3 H  s          
    13      0.825727  1 O  py                36      0.825810  2 O  s          
    70      0.813389  4 H  s                 71     -0.754357  4 H  s          
    43     -0.689851  2 O  px                 4     -0.630584  1 O  s          
    35     -0.607288  2 O  s                 44     -0.568654  2 O  py         
 
 Vector   20  Occ=0.000000D+00  E= 5.223524D-01
              MO Center= -8.3D+00,  2.7D+00,  1.8D-01, r^2= 4.0D+00
   Bfn.  Coefficient  Atom+Function         Bfn.  Coefficient  Atom+Function  
  ----- ------------  ---------------      ----- ------------  ---------------
    45      1.540781  2 O  pz                71     -1.443163  4 H  s          
    65      1.253608  3 H  s                 36      1.118348  2 O  s          
    12      1.103383  1 O  px                 5     -0.937284  1 O  s          
    14      0.933824  1 O  pz                13     -0.657272  1 O  py         
    35     -0.591872  2 O  s                  4      0.490918  1 O  s          
 
 Vector   21  Occ=0.000000D+00  E= 5.872458D-01
              MO Center= -8.4D+00,  2.8D+00,  1.7D-01, r^2= 3.0D+00
   Bfn.  Coefficient  Atom+Function         Bfn.  Coefficient  Atom+Function  
  ----- ------------  ---------------      ----- ------------  ---------------
    36      2.621285  2 O  s                  5      2.403632  1 O  s          
    35     -1.471468  2 O  s                  4     -1.446883  1 O  s          
    12     -1.339458  1 O  px                70     -1.091550  4 H  s          
    64     -1.008936  3 H  s                 44      0.920102  2 O  py         
    71     -0.907529  4 H  s                 45      0.876300  2 O  pz         
 
 Vector   22  Occ=0.000000D+00  E= 6.692537D-01
              MO Center= -8.2D+00,  2.5D+00, -4.6D-02, r^2= 3.0D+00
   Bfn.  Coefficient  Atom+Function         Bfn.  Coefficient  Atom+Function  
  ----- ------------  ---------------      ----- ------------  ---------------
     5      5.581224  1 O  s                 36     -5.577966  2 O  s          
     4     -1.849609  1 O  s                 35      1.795881  2 O  s          
    14      1.725642  1 O  pz                44     -1.706631  2 O  py         
    45      1.635590  2 O  pz                13     -1.552189  1 O  py         
    70      0.911302  4 H  s                 12     -0.899981  1 O  px         
 
 Vector   23  Occ=0.000000D+00  E= 1.012544D+00
              MO Center= -8.4D+00,  2.7D+00,  8.1D-02, r^2= 1.5D+00
   Bfn.  Coefficient  Atom+Function         Bfn.  Coefficient  Atom+Function  
  ----- ------------  ---------------      ----- ------------  ---------------
    70      0.341616  4 H  s                 22      0.331540  1 O  d  0       
    68     -0.315870  3 H  pz                53     -0.283449  2 O  d  0       
    64     -0.278085  3 H  s                 74     -0.267322  4 H  pz         
    23     -0.250392  1 O  d  1              54      0.248977  2 O  d  1       
    51      0.215024  2 O  d -2              73      0.214097  4 H  py         
 
 Vector   24  Occ=0.000000D+00  E= 1.080515D+00
              MO Center= -8.3D+00,  2.7D+00,  3.6D-02, r^2= 1.5D+00
   Bfn.  Coefficient  Atom+Function         Bfn.  Coefficient  Atom+Function  
  ----- ------------  ---------------      ----- ------------  ---------------
    67      0.347857  3 H  py                54      0.337370  2 O  d  1       
    20     -0.312453  1 O  d -2              22     -0.275723  1 O  d  0       
    72     -0.261344  4 H  px                52      0.237779  2 O  d -1       
    70     -0.230060  4 H  s                 74      0.203611  4 H  pz         
    24     -0.198808  1 O  d  2              53      0.192756  2 O  d  0       
 
 Vector   25  Occ=0.000000D+00  E= 1.184434D+00
              MO Center= -8.3D+00,  2.7D+00,  5.4D-03, r^2= 1.5D+00
   Bfn.  Coefficient  Atom+Function         Bfn.  Coefficient  Atom+Function  
  ----- ------------  ---------------      ----- ------------  ---------------
    23      0.434947  1 O  d  1              55     -0.431772  2 O  d  2       
    36     -0.394802  2 O  s                  5     -0.315062  1 O  s          
    70      0.258408  4 H  s                 68      0.248386  3 H  pz         
    24      0.234872  1 O  d  2              44     -0.235331  2 O  py         
    64      0.219789  3 H  s                 12      0.213538  1 O  px         
 
 Vector   26  Occ=0.000000D+00  E= 1.225267D+00
              MO Center= -8.4D+00,  2.7D+00,  1.7D-01, r^2= 1.7D+00
   Bfn.  Coefficient  Atom+Function         Bfn.  Coefficient  Atom+Function  
  ----- ------------  ---------------      ----- ------------  ---------------
     5      0.632135  1 O  s                 36     -0.616202  2 O  s          
    72      0.417712  4 H  px                20     -0.367488  1 O  d -2       
    67      0.345967  3 H  py                51      0.265200  2 O  d -2       
    55      0.261231  2 O  d  2              43     -0.253071  2 O  px         
    13     -0.233625  1 O  py                68      0.224245  3 H  pz         
 
 Vector   27  Occ=0.000000D+00  E= 1.513834D+00
              MO Center= -8.3D+00,  2.5D+00,  7.9D-01, r^2= 1.9D+00
   Bfn.  Coefficient  Atom+Function         Bfn.  Coefficient  Atom+Function  
  ----- ------------  ---------------      ----- ------------  ---------------
    70      3.024189  4 H  s                 36     -1.051030  2 O  s          
    35     -0.883045  2 O  s                 52     -0.836568  2 O  d -1       
    64      0.832195  3 H  s                 45     -0.826952  2 O  pz         
    71     -0.536428  4 H  s                 44     -0.531390  2 O  py         
    69     -0.530495  4 H  s                 42     -0.524820  2 O  pz         
 
 Vector   28  Occ=0.000000D+00  E= 1.536166D+00
              MO Center= -8.5D+00,  3.0D+00, -5.3D-01, r^2= 1.9D+00
   Bfn.  Coefficient  Atom+Function         Bfn.  Coefficient  Atom+Function  
  ----- ------------  ---------------      ----- ------------  ---------------
    64      2.614811  3 H  s                  5     -1.314513  1 O  s          
    70     -1.144186  4 H  s                 36      0.992078  2 O  s          
    12      0.908272  1 O  px                24     -0.762394  1 O  d  2       
    65     -0.539785  3 H  s                 63     -0.532831  3 H  s          
    23      0.515794  1 O  d  1              44      0.464883  2 O  py         
 
 Vector   29  Occ=0.000000D+00  E= 1.602305D+00
              MO Center= -8.4D+00,  2.7D+00,  7.7D-02, r^2= 1.7D+00
   Bfn.  Coefficient  Atom+Function         Bfn.  Coefficient  Atom+Function  
  ----- ------------  ---------------      ----- ------------  ---------------
    51      0.419295  2 O  d -2              68      0.391208  3 H  pz         
    73      0.390778  4 H  py                54      0.334817  2 O  d  1       
    21     -0.326853  1 O  d -1              36      0.286248  2 O  s          
    14     -0.279035  1 O  pz                43      0.279212  2 O  px         
    74     -0.258582  4 H  pz                66     -0.254239  3 H  px         
 
 Vector   30  Occ=0.000000D+00  E= 1.646186D+00
              MO Center= -8.3D+00,  2.7D+00,  2.3D-02, r^2= 1.6D+00
   Bfn.  Coefficient  Atom+Function         Bfn.  Coefficient  Atom+Function  
  ----- ------------  ---------------      ----- ------------  ---------------
    70      0.745906  4 H  s                 21      0.581327  1 O  d -1       
    64      0.582463  3 H  s                  5     -0.480718  1 O  s          
    53     -0.459446  2 O  d  0              36     -0.452941  2 O  s          
    55      0.379183  2 O  d  2              44     -0.362383  2 O  py         
     4      0.357879  1 O  s                 24     -0.320894  1 O  d  2       
 
 Vector   31  Occ=0.000000D+00  E= 1.743360D+00
              MO Center= -8.3D+00,  2.7D+00,  1.1D-01, r^2= 1.8D+00
   Bfn.  Coefficient  Atom+Function         Bfn.  Coefficient  Atom+Function  
  ----- ------------  ---------------      ----- ------------  ---------------
    36     -1.194064  2 O  s                  5      1.132059  1 O  s          
    13     -0.623029  1 O  py                45      0.557521  2 O  pz         
    22     -0.512117  1 O  d  0              51     -0.459877  2 O  d -2       
    73      0.423699  4 H  py                14      0.387294  1 O  pz         
    43     -0.367260  2 O  px                44     -0.368299  2 O  py         
 
 Vector   32  Occ=0.000000D+00  E= 1.849631D+00
              MO Center= -8.3D+00,  2.7D+00,  4.5D-02, r^2= 2.2D+00
   Bfn.  Coefficient  Atom+Function         Bfn.  Coefficient  Atom+Function  
  ----- ------------  ---------------      ----- ------------  ---------------
    36     -2.258063  2 O  s                  5      2.207599  1 O  s          
    35      1.246967  2 O  s                  4     -1.060965  1 O  s          
    44     -1.004508  2 O  py                14      0.917675  1 O  pz         
    70     -0.802573  4 H  s                 64      0.701875  3 H  s          
    21     -0.593513  1 O  d -1              12     -0.574889  1 O  px         
 
 Vector   33  Occ=0.000000D+00  E= 1.954712D+00
              MO Center= -8.5D+00,  2.9D+00, -6.6D-02, r^2= 1.9D+00
   Bfn.  Coefficient  Atom+Function         Bfn.  Coefficient  Atom+Function  
  ----- ------------  ---------------      ----- ------------  ---------------
    70      0.713948  4 H  s                 72     -0.619248  4 H  px         
    67      0.614184  3 H  py                64      0.583508  3 H  s          
    20      0.574621  1 O  d -2              68      0.525176  3 H  pz         
    36     -0.420115  2 O  s                  4     -0.376490  1 O  s          
     5      0.377889  1 O  s                 55      0.376945  2 O  d  2       
 
 Vector   34  Occ=0.000000D+00  E= 2.020901D+00
              MO Center= -8.3D+00,  2.6D+00,  2.5D-01, r^2= 1.9D+00
   Bfn.  Coefficient  Atom+Function         Bfn.  Coefficient  Atom+Function  
  ----- ------------  ---------------      ----- ------------  ---------------
    36     -1.083997  2 O  s                  5      1.070636  1 O  s          
    64     -0.718865  3 H  s                 72      0.708686  4 H  px         
    54      0.545317  2 O  d  1              20      0.498128  1 O  d -2       
    67      0.479939  3 H  py                13     -0.453802  1 O  py         
    51     -0.450855  2 O  d -2              14      0.446577  1 O  pz         
 
 Vector   35  Occ=0.000000D+00  E= 2.068487D+00
              MO Center= -8.3D+00,  2.8D+00, -5.3D-02, r^2= 1.9D+00
   Bfn.  Coefficient  Atom+Function         Bfn.  Coefficient  Atom+Function  
  ----- ------------  ---------------      ----- ------------  ---------------
    70      0.912245  4 H  s                 35     -0.646102  2 O  s          
    68     -0.609903  3 H  pz                23      0.586042  1 O  d  1       
    24      0.528872  1 O  d  2              74     -0.506983  4 H  pz         
    40     -0.470966  2 O  px                42     -0.462196  2 O  pz         
    55      0.405553  2 O  d  2              71     -0.347392  4 H  s          
 
 Vector   36  Occ=0.000000D+00  E= 2.099922D+00
              MO Center= -8.3D+00,  2.5D+00,  2.0D-01, r^2= 2.1D+00
   Bfn.  Coefficient  Atom+Function         Bfn.  Coefficient  Atom+Function  
  ----- ------------  ---------------      ----- ------------  ---------------
    64      0.924009  3 H  s                  9      0.765182  1 O  px         
    70      0.752634  4 H  s                 73     -0.740230  4 H  py         
     4     -0.632965  1 O  s                 42     -0.614884  2 O  pz         
    35     -0.548097  2 O  s                 53     -0.497381  2 O  d  0       
    63     -0.451591  3 H  s                 41     -0.447795  2 O  py         
 
 Vector   37  Occ=0.000000D+00  E= 2.184205D+00
              MO Center= -8.4D+00,  2.7D+00,  2.2D-01, r^2= 2.3D+00
   Bfn.  Coefficient  Atom+Function         Bfn.  Coefficient  Atom+Function  
  ----- ------------  ---------------      ----- ------------  ---------------
    70      1.690372  4 H  s                  5      1.303321  1 O  s          
    36     -1.294705  2 O  s                 64     -1.290628  3 H  s          
    35     -1.041339  2 O  s                 42     -0.957788  2 O  pz         
    45      0.775031  2 O  pz                 4      0.687788  1 O  s          
    14      0.682849  1 O  pz                66     -0.666950  3 H  px         
 
 Vector   38  Occ=0.000000D+00  E= 2.231166D+00
              MO Center= -8.3D+00,  2.8D+00, -5.6D-02, r^2= 2.0D+00
   Bfn.  Coefficient  Atom+Function         Bfn.  Coefficient  Atom+Function  
  ----- ------------  ---------------      ----- ------------  ---------------
    64      1.531618  3 H  s                 70      1.090090  4 H  s          
     4     -0.827624  1 O  s                 10     -0.680542  1 O  py         
     9      0.663849  1 O  px                35     -0.653194  2 O  s          
    42     -0.644218  2 O  pz                74     -0.632525  4 H  pz         
    13      0.539567  1 O  py                63     -0.511700  3 H  s          
 
 Vector   39  Occ=0.000000D+00  E= 2.381196D+00
              MO Center= -8.3D+00,  2.8D+00, -2.1D-01, r^2= 1.8D+00
   Bfn.  Coefficient  Atom+Function         Bfn.  Coefficient  Atom+Function  
  ----- ------------  ---------------      ----- ------------  ---------------
    64      1.615612  3 H  s                  4     -0.971568  1 O  s          
    66      0.915917  3 H  px                12      0.809901  1 O  px         
    40     -0.782622  2 O  px                 6      0.683204  1 O  px         
    70      0.617845  4 H  s                 11      0.575151  1 O  pz         
    35     -0.525385  2 O  s                 37      0.474001  2 O  px         
 
 Vector   40  Occ=0.000000D+00  E= 2.402798D+00
              MO Center= -8.3D+00,  2.6D+00, -9.2D-02, r^2= 1.7D+00
   Bfn.  Coefficient  Atom+Function         Bfn.  Coefficient  Atom+Function  
  ----- ------------  ---------------      ----- ------------  ---------------
    11      0.847998  1 O  pz                 8     -0.763126  1 O  pz         
    70      0.729773  4 H  s                 14     -0.704387  1 O  pz         
    38     -0.672613  2 O  py                41      0.659363  2 O  py         
    64     -0.590691  3 H  s                 74     -0.517390  4 H  pz         
    35     -0.497716  2 O  s                 66     -0.479216  3 H  px         
 
 Vector   41  Occ=0.000000D+00  E= 2.436428D+00
              MO Center= -8.3D+00,  2.5D+00,  2.2D-01, r^2= 1.3D+00
   Bfn.  Coefficient  Atom+Function         Bfn.  Coefficient  Atom+Function  
  ----- ------------  ---------------      ----- ------------  ---------------
    35      1.434887  2 O  s                 70     -0.933921  4 H  s          
     4      0.802736  1 O  s                 39      0.783369  2 O  pz         
    74      0.750410  4 H  pz                10     -0.712395  1 O  py         
    34     -0.693573  2 O  s                 45      0.678500  2 O  pz         
     7      0.567376  1 O  py                 3     -0.533209  1 O  s          
 
 Vector   42  Occ=0.000000D+00  E= 2.556134D+00
              MO Center= -8.4D+00,  2.8D+00, -6.5D-02, r^2= 1.6D+00
   Bfn.  Coefficient  Atom+Function         Bfn.  Coefficient  Atom+Function  
  ----- ------------  ---------------      ----- ------------  ---------------
     5      2.387603  1 O  s                 64     -1.632110  3 H  s          
     4     -1.228075  1 O  s                  3      1.146369  1 O  s          
    40     -1.078009  2 O  px                66     -1.035665  3 H  px         
    37      0.777088  2 O  px                12     -0.695644  1 O  px         
     9     -0.598832  1 O  px                36     -0.579817  2 O  s          
 
 Vector   43  Occ=0.000000D+00  E= 2.589781D+00
              MO Center= -8.3D+00,  2.6D+00,  4.8D-01, r^2= 1.5D+00
   Bfn.  Coefficient  Atom+Function         Bfn.  Coefficient  Atom+Function  
  ----- ------------  ---------------      ----- ------------  ---------------
    36      2.208783  2 O  s                 70     -1.901859  4 H  s          
    34      1.030135  2 O  s                 10      0.915454  1 O  py         
    74      0.916350  4 H  pz                73      0.832182  4 H  py         
    35     -0.768421  2 O  s                 44      0.674699  2 O  py         
     7     -0.601522  1 O  py                53      0.598231  2 O  d  0       
 
 Vector   44  Occ=0.000000D+00  E= 2.675865D+00
              MO Center= -8.0D+00,  2.4D+00, -1.1D-01, r^2= 1.5D+00
   Bfn.  Coefficient  Atom+Function         Bfn.  Coefficient  Atom+Function  
  ----- ------------  ---------------      ----- ------------  ---------------
     5      2.709911  1 O  s                 36     -2.622422  2 O  s          
     4     -2.257829  1 O  s                 35      1.906634  2 O  s          
     3      1.449715  1 O  s                 34     -1.266287  2 O  s          
    41     -0.970943  2 O  py                 9     -0.760414  1 O  px         
    11      0.600441  1 O  pz                13     -0.570628  1 O  py         
 
 Vector   45  Occ=0.000000D+00  E= 2.718755D+00
              MO Center= -8.4D+00,  2.6D+00,  1.5D-01, r^2= 1.7D+00
   Bfn.  Coefficient  Atom+Function         Bfn.  Coefficient  Atom+Function  
  ----- ------------  ---------------      ----- ------------  ---------------
    35      2.587721  2 O  s                  4      2.226663  1 O  s          
    36     -1.746574  2 O  s                 34     -1.695566  2 O  s          
     3     -1.451012  1 O  s                  5     -1.266642  1 O  s          
    40     -0.685743  2 O  px                10      0.492874  1 O  py         
     9      0.450744  1 O  px                37      0.429720  2 O  px         
 
 Vector   46  Occ=0.000000D+00  E= 3.557281D+00
              MO Center= -8.5D+00,  3.0D+00, -4.4D-01, r^2= 1.3D+00
   Bfn.  Coefficient  Atom+Function         Bfn.  Coefficient  Atom+Function  
  ----- ------------  ---------------      ----- ------------  ---------------
     4      3.592927  1 O  s                  9     -2.186906  1 O  px         
    64     -1.829234  3 H  s                  3     -1.777206  1 O  s          
    35     -1.680276  2 O  s                 66     -1.493425  3 H  px         
    63     -0.908227  3 H  s                 70      0.896660  4 H  s          
    24      0.848894  1 O  d  2              34      0.809577  2 O  s          
 
 Vector   47  Occ=0.000000D+00  E= 3.625513D+00
              MO Center= -8.3D+00,  2.5D+00,  6.5D-01, r^2= 1.3D+00
   Bfn.  Coefficient  Atom+Function         Bfn.  Coefficient  Atom+Function  
  ----- ------------  ---------------      ----- ------------  ---------------
    35      3.675209  2 O  s                 70     -1.904156  4 H  s          
    42      1.849601  2 O  pz                34     -1.652632  2 O  s          
    41      1.400363  2 O  py                74      1.328559  4 H  pz         
    69     -1.097529  4 H  s                  4      1.014832  1 O  s          
    40      0.876761  2 O  px                52      0.878142  2 O  d -1       
 
 Vector   48  Occ=0.000000D+00  E= 3.849027D+00
              MO Center= -8.3D+00,  2.6D+00,  4.2D-02, r^2= 9.4D-01
   Bfn.  Coefficient  Atom+Function         Bfn.  Coefficient  Atom+Function  
  ----- ------------  ---------------      ----- ------------  ---------------
    42      1.728018  2 O  pz                 4      1.593704  1 O  s          
    11      1.397869  1 O  pz                35     -1.257259  2 O  s          
     3     -1.148123  1 O  s                 10     -1.124483  1 O  py         
    34      1.027024  2 O  s                 52      0.835458  2 O  d -1       
    41     -0.772286  2 O  py                21     -0.601701  1 O  d -1       
 
 Vector   49  Occ=0.000000D+00  E= 4.659936D+00
              MO Center= -8.2D+00,  2.6D+00,  2.1D-02, r^2= 1.0D+00
   Bfn.  Coefficient  Atom+Function         Bfn.  Coefficient  Atom+Function  
  ----- ------------  ---------------      ----- ------------  ---------------
    26      0.340455  1 O  f -2              30      0.333871  1 O  f  2       
    28      0.322305  1 O  f  0              57      0.308638  2 O  f -2       
    60      0.296413  2 O  f  1              61      0.297513  2 O  f  2       
    59      0.289841  2 O  f  0              25     -0.277713  1 O  f -3       
     9      0.273430  1 O  px                56     -0.271791  2 O  f -3       
 
 Vector   50  Occ=0.000000D+00  E= 4.719950D+00
              MO Center= -8.3D+00,  2.6D+00,  2.5D-02, r^2= 9.6D-01
   Bfn.  Coefficient  Atom+Function         Bfn.  Coefficient  Atom+Function  
  ----- ------------  ---------------      ----- ------------  ---------------
    27      0.432732  1 O  f -1              58     -0.414160  2 O  f -1       
    61     -0.359749  2 O  f  2              57      0.336623  2 O  f -2       
    26     -0.283533  1 O  f -2              31      0.284386  1 O  f  3       
    30      0.263053  1 O  f  2              36     -0.242221  2 O  s          
     5     -0.238169  1 O  s                  4      0.204319  1 O  s          
 
 Vector   51  Occ=0.000000D+00  E= 4.743485D+00
              MO Center= -8.2D+00,  2.6D+00,  3.3D-02, r^2= 1.1D+00
   Bfn.  Coefficient  Atom+Function         Bfn.  Coefficient  Atom+Function  
  ----- ------------  ---------------      ----- ------------  ---------------
    35      0.549062  2 O  s                 62     -0.478187  2 O  f  3       
     4     -0.464178  1 O  s                 26      0.449590  1 O  f -2       
     9      0.396774  1 O  px                27      0.391161  1 O  f -1       
    59     -0.377170  2 O  f  0              28     -0.301611  1 O  f  0       
    41      0.287018  2 O  py                42      0.268999  2 O  pz         
 
 Vector   52  Occ=0.000000D+00  E= 4.842305D+00
              MO Center= -8.2D+00,  2.6D+00,  3.3D-02, r^2= 1.0D+00
   Bfn.  Coefficient  Atom+Function         Bfn.  Coefficient  Atom+Function  
  ----- ------------  ---------------      ----- ------------  ---------------
    29      0.532365  1 O  f  1              56     -0.493953  2 O  f -3       
    60     -0.423508  2 O  f  1              25      0.296284  1 O  f -3       
    28     -0.201575  1 O  f  0              62     -0.186476  2 O  f  3       
    31      0.177861  1 O  f  3              61      0.143488  2 O  f  2       
    27     -0.124369  1 O  f -1              57     -0.117567  2 O  f -2       
 
 Vector   53  Occ=0.000000D+00  E= 4.946434D+00
              MO Center= -8.2D+00,  2.6D+00, -1.1D-02, r^2= 1.1D+00
   Bfn.  Coefficient  Atom+Function         Bfn.  Coefficient  Atom+Function  
  ----- ------------  ---------------      ----- ------------  ---------------
    31      0.548512  1 O  f  3              56      0.422494  2 O  f -3       
    59      0.383235  2 O  f  0              28     -0.354091  1 O  f  0       
    27     -0.279926  1 O  f -1              62     -0.269405  2 O  f  3       
    42      0.231749  2 O  pz                11      0.209678  1 O  pz         
    73      0.182117  4 H  py                58      0.155913  2 O  f -1       
 
 Vector   54  Occ=0.000000D+00  E= 5.187490D+00
              MO Center= -8.2D+00,  2.7D+00, -1.1D-01, r^2= 9.8D-01
   Bfn.  Coefficient  Atom+Function         Bfn.  Coefficient  Atom+Function  
  ----- ------------  ---------------      ----- ------------  ---------------
    25      0.676788  1 O  f -3              56      0.381032  2 O  f -3       
    30      0.358345  1 O  f  2              62      0.295637  2 O  f  3       
    59     -0.232037  2 O  f  0              67     -0.231716  3 H  py         
    61      0.229673  2 O  f  2              15     -0.174803  1 O  d -2       
    57      0.172519  2 O  f -2              72     -0.168827  4 H  px         
 
 Vector   55  Occ=0.000000D+00  E= 5.244087D+00
              MO Center= -8.2D+00,  2.9D+00, -3.3D-01, r^2= 8.2D-01
   Bfn.  Coefficient  Atom+Function         Bfn.  Coefficient  Atom+Function  
  ----- ------------  ---------------      ----- ------------  ---------------
    29      0.680258  1 O  f  1              30     -0.408050  1 O  f  2       
    56      0.331484  2 O  f -3              27      0.311127  1 O  f -1       
    68      0.259711  3 H  pz                26     -0.253429  1 O  f -2       
    25     -0.210118  1 O  f -3              61      0.189305  2 O  f  2       
    60      0.140933  2 O  f  1              67      0.132458  3 H  py         
 
 Vector   56  Occ=0.000000D+00  E= 5.270496D+00
              MO Center= -8.4D+00,  2.3D+00,  4.9D-01, r^2= 7.1D-01
   Bfn.  Coefficient  Atom+Function         Bfn.  Coefficient  Atom+Function  
  ----- ------------  ---------------      ----- ------------  ---------------
    60      0.623397  2 O  f  1              61     -0.476466  2 O  f  2       
    56     -0.351818  2 O  f -3              58      0.276882  2 O  f -1       
    72      0.272784  4 H  px                62      0.233208  2 O  f  3       
    57     -0.228898  2 O  f -2              73     -0.201561  4 H  py         
    29      0.194245  1 O  f  1              28     -0.176461  1 O  f  0       
 
 Vector   57  Occ=0.000000D+00  E= 5.283865D+00
              MO Center= -8.3D+00,  2.6D+00,  9.5D-02, r^2= 9.7D-01
   Bfn.  Coefficient  Atom+Function         Bfn.  Coefficient  Atom+Function  
  ----- ------------  ---------------      ----- ------------  ---------------
    62      0.570767  2 O  f  3              31      0.411208  1 O  f  3       
    28     -0.382782  1 O  f  0              25     -0.319224  1 O  f -3       
    59     -0.316591  2 O  f  0              58     -0.269651  2 O  f -1       
     9     -0.227333  1 O  px                74      0.219366  4 H  pz         
    60     -0.185629  2 O  f  1              35      0.174462  2 O  s          
 
 Vector   58  Occ=0.000000D+00  E= 5.564807D+00
              MO Center= -8.2D+00,  2.6D+00, -5.5D-03, r^2= 9.7D-01
   Bfn.  Coefficient  Atom+Function         Bfn.  Coefficient  Atom+Function  
  ----- ------------  ---------------      ----- ------------  ---------------
     4      0.632818  1 O  s                  9     -0.570526  1 O  px         
    26      0.558331  1 O  f -2              59      0.507303  2 O  f  0       
    35      0.445079  2 O  s                 64     -0.440286  3 H  s          
    66     -0.410989  3 H  px                27      0.378640  1 O  f -1       
    70     -0.327903  4 H  s                 42      0.326142  2 O  pz         
 
 Vector   59  Occ=0.000000D+00  E= 5.593249D+00
              MO Center= -8.3D+00,  2.6D+00,  1.5D-02, r^2= 8.8D-01
   Bfn.  Coefficient  Atom+Function         Bfn.  Coefficient  Atom+Function  
  ----- ------------  ---------------      ----- ------------  ---------------
    42      0.473739  2 O  pz                59      0.443010  2 O  f  0       
    28     -0.422815  1 O  f  0              35      0.388970  2 O  s          
    57      0.337196  2 O  f -2              70     -0.318708  4 H  s          
    19     -0.295722  1 O  d  2               9      0.289020  1 O  px         
    29     -0.250870  1 O  f  1              17     -0.244357  1 O  d  0       
 
 Vector   60  Occ=0.000000D+00  E= 5.833086D+00
              MO Center= -8.3D+00,  2.9D+00, -3.2D-01, r^2= 8.2D-01
   Bfn.  Coefficient  Atom+Function         Bfn.  Coefficient  Atom+Function  
  ----- ------------  ---------------      ----- ------------  ---------------
     4      0.944049  1 O  s                  9     -0.844157  1 O  px         
    66     -0.655970  3 H  px                63     -0.591621  3 H  s          
    64     -0.516330  3 H  s                 11     -0.451549  1 O  pz         
    31      0.426600  1 O  f  3              18     -0.417751  1 O  d  1       
     3     -0.408954  1 O  s                 47     -0.401177  2 O  d -1       
 
 Vector   61  Occ=0.000000D+00  E= 5.977105D+00
              MO Center= -8.3D+00,  2.5D+00,  3.3D-01, r^2= 9.2D-01
   Bfn.  Coefficient  Atom+Function         Bfn.  Coefficient  Atom+Function  
  ----- ------------  ---------------      ----- ------------  ---------------
    35      1.015780  2 O  s                 42      0.845321  2 O  pz         
     4      0.758860  1 O  s                 69     -0.618384  4 H  s          
    74      0.593214  4 H  pz                70     -0.540270  4 H  s          
    41      0.479664  2 O  py                47      0.460988  2 O  d -1       
     9     -0.431237  1 O  px                49     -0.413506  2 O  d  1       
 
 Vector   62  Occ=0.000000D+00  E= 6.102031D+00
              MO Center= -8.3D+00,  2.5D+00,  9.1D-02, r^2= 8.9D-01
   Bfn.  Coefficient  Atom+Function         Bfn.  Coefficient  Atom+Function  
  ----- ------------  ---------------      ----- ------------  ---------------
    36     -1.274786  2 O  s                  5      1.179705  1 O  s          
    35      1.110008  2 O  s                  4     -0.824990  1 O  s          
    16      0.639578  1 O  d -1              48      0.635180  2 O  d  0       
    34     -0.479855  2 O  s                 44     -0.436678  2 O  py         
    14      0.390872  1 O  pz                 3      0.375546  1 O  s          
 
 Vector   63  Occ=0.000000D+00  E= 6.116035D+00
              MO Center= -8.2D+00,  2.6D+00,  3.1D-02, r^2= 8.9D-01
   Bfn.  Coefficient  Atom+Function         Bfn.  Coefficient  Atom+Function  
  ----- ------------  ---------------      ----- ------------  ---------------
    50      0.638836  2 O  d  2              19     -0.500628  1 O  d  2       
    18     -0.492878  1 O  d  1              49      0.346898  2 O  d  1       
    17     -0.340615  1 O  d  0              55     -0.317996  2 O  d  2       
    23      0.264797  1 O  d  1              46      0.248930  2 O  d -2       
    48      0.233962  2 O  d  0              24      0.231955  1 O  d  2       
 
 Vector   64  Occ=0.000000D+00  E= 6.172368D+00
              MO Center= -8.2D+00,  2.5D+00,  5.2D-02, r^2= 9.1D-01
   Bfn.  Coefficient  Atom+Function         Bfn.  Coefficient  Atom+Function  
  ----- ------------  ---------------      ----- ------------  ---------------
    15      0.657517  1 O  d -2              49     -0.497018  2 O  d  1       
    35     -0.455655  2 O  s                 54      0.385981  2 O  d  1       
    47     -0.380190  2 O  d -1              20     -0.377682  1 O  d -2       
    50      0.377277  2 O  d  2              70      0.302746  4 H  s          
    42     -0.298110  2 O  pz                48     -0.299594  2 O  d  0       
 
 Vector   65  Occ=0.000000D+00  E= 6.196021D+00
              MO Center= -8.2D+00,  2.6D+00,  5.5D-03, r^2= 9.0D-01
   Bfn.  Coefficient  Atom+Function         Bfn.  Coefficient  Atom+Function  
  ----- ------------  ---------------      ----- ------------  ---------------
    17      0.597634  1 O  d  0              46      0.594663  2 O  d -2       
     5      0.461697  1 O  s                 36     -0.461712  2 O  s          
    15     -0.397084  1 O  d -2              48     -0.359260  2 O  d  0       
    49      0.359899  2 O  d  1              51     -0.356690  2 O  d -2       
    22     -0.320629  1 O  d  0              18     -0.304180  1 O  d  1       
 
 Vector   66  Occ=0.000000D+00  E= 6.252112D+00
              MO Center= -8.3D+00,  2.6D+00,  4.3D-02, r^2= 9.4D-01
   Bfn.  Coefficient  Atom+Function         Bfn.  Coefficient  Atom+Function  
  ----- ------------  ---------------      ----- ------------  ---------------
    15      0.603259  1 O  d -2              18     -0.483938  1 O  d  1       
    50     -0.460172  2 O  d  2              46     -0.447367  2 O  d -2       
    49      0.444588  2 O  d  1              20     -0.425936  1 O  d -2       
    35     -0.376401  2 O  s                 55      0.333911  2 O  d  2       
     4      0.275599  1 O  s                 52     -0.276665  2 O  d -1       
 
 Vector   67  Occ=0.000000D+00  E= 6.515705D+00
              MO Center= -8.2D+00,  2.6D+00, -3.3D-02, r^2= 1.0D+00
   Bfn.  Coefficient  Atom+Function         Bfn.  Coefficient  Atom+Function  
  ----- ------------  ---------------      ----- ------------  ---------------
    64      0.860781  3 H  s                 70      0.744647  4 H  s          
     9      0.677142  1 O  px                16     -0.659107  1 O  d -1       
    42     -0.631469  2 O  pz                46      0.561261  2 O  d -2       
    24     -0.541485  1 O  d  2              51     -0.511570  2 O  d -2       
     5     -0.488610  1 O  s                 21      0.448520  1 O  d -1       
 
 Vector   68  Occ=0.000000D+00  E= 6.616417D+00
              MO Center= -8.2D+00,  2.6D+00,  5.6D-02, r^2= 1.1D+00
   Bfn.  Coefficient  Atom+Function         Bfn.  Coefficient  Atom+Function  
  ----- ------------  ---------------      ----- ------------  ---------------
    70     -0.990121  4 H  s                 35      0.919285  2 O  s          
    24     -0.823804  1 O  d  2              64      0.770171  3 H  s          
    19      0.714106  1 O  d  2               4     -0.692461  1 O  s          
     9      0.684499  1 O  px                42      0.681042  2 O  pz         
    36      0.628513  2 O  s                 41      0.625590  2 O  py         
 
 Vector   69  Occ=0.000000D+00  E= 6.753743D+00
              MO Center= -8.2D+00,  2.6D+00,  7.7D-03, r^2= 1.0D+00
   Bfn.  Coefficient  Atom+Function         Bfn.  Coefficient  Atom+Function  
  ----- ------------  ---------------      ----- ------------  ---------------
    17      0.565840  1 O  d  0              47     -0.532199  2 O  d -1       
    22     -0.528959  1 O  d  0              48      0.522661  2 O  d  0       
    53     -0.461362  2 O  d  0              52      0.452082  2 O  d -1       
    16     -0.428237  1 O  d -1              51      0.393766  2 O  d -2       
    46     -0.318216  2 O  d -2              20      0.303285  1 O  d -2       
 
 Vector   70  Occ=0.000000D+00  E= 6.818948D+00
              MO Center= -8.2D+00,  2.6D+00, -1.3D-02, r^2= 1.2D+00
   Bfn.  Coefficient  Atom+Function         Bfn.  Coefficient  Atom+Function  
  ----- ------------  ---------------      ----- ------------  ---------------
    35     -1.114408  2 O  s                  4      1.100975  1 O  s          
    64     -0.941196  3 H  s                 70      0.942808  4 H  s          
     9     -0.830773  1 O  px                42     -0.772412  2 O  pz         
    23     -0.764357  1 O  d  1              66     -0.669093  3 H  px         
    69      0.661650  4 H  s                 53     -0.643992  2 O  d  0       
 
 Vector   71  Occ=0.000000D+00  E= 7.028900D+00
              MO Center= -8.3D+00,  2.5D+00,  1.3D-01, r^2= 1.1D+00
   Bfn.  Coefficient  Atom+Function         Bfn.  Coefficient  Atom+Function  
  ----- ------------  ---------------      ----- ------------  ---------------
    35      1.588338  2 O  s                  4      1.079670  1 O  s          
    70     -1.070244  4 H  s                 42      0.894788  2 O  pz         
    52      0.878575  2 O  d -1              69     -0.866031  4 H  s          
    64     -0.689879  3 H  s                  9     -0.670820  1 O  px         
    41      0.643187  2 O  py                34     -0.618321  2 O  s          
 
 Vector   72  Occ=0.000000D+00  E= 7.713743D+00
              MO Center= -8.2D+00,  2.6D+00,  1.7D-02, r^2= 1.1D+00
   Bfn.  Coefficient  Atom+Function         Bfn.  Coefficient  Atom+Function  
  ----- ------------  ---------------      ----- ------------  ---------------
    42      1.622401  2 O  pz                 4      1.597826  1 O  s          
    35     -1.588386  2 O  s                 11      1.531096  1 O  pz         
    52      1.380059  2 O  d -1              10     -1.279583  1 O  py         
    21     -1.232222  1 O  d -1              41     -1.124022  2 O  py         
     3     -1.081331  1 O  s                 34      1.084029  2 O  s          
 
 Vector   73  Occ=0.000000D+00  E= 4.266658D+01
              MO Center= -8.2D+00,  2.6D+00,  2.6D-02, r^2= 6.6D-01
   Bfn.  Coefficient  Atom+Function         Bfn.  Coefficient  Atom+Function  
  ----- ------------  ---------------      ----- ------------  ---------------
    33      1.200143  2 O  s                  2      1.190454  1 O  s          
    35      1.101669  2 O  s                  4      1.078756  1 O  s          
    34     -1.064273  2 O  s                  3     -1.054136  1 O  s          
    32     -0.986241  2 O  s                  1     -0.978208  1 O  s          
    36     -0.477852  2 O  s                  5     -0.462571  1 O  s          
 
 Vector   74  Occ=0.000000D+00  E= 4.314086D+01
              MO Center= -8.2D+00,  2.6D+00,  1.6D-02, r^2= 6.6D-01
   Bfn.  Coefficient  Atom+Function         Bfn.  Coefficient  Atom+Function  
  ----- ------------  ---------------      ----- ------------  ---------------
     4      1.430431  1 O  s                 35     -1.431210  2 O  s          
     3     -1.258689  1 O  s                 34      1.248929  2 O  s          
     2      1.221073  1 O  s                 33     -1.210981  2 O  s          
     1     -0.989488  1 O  s                 32      0.981399  2 O  s          
    36      0.676282  2 O  s                  5     -0.666366  1 O  s          
 

 center of mass
 --------------
 x = -15.61131367 y =   4.91631923 z =   0.05853765

 moments of inertia (a.u.)
 ------------------
          70.000125231625          -8.547006185029           9.002964139389
          -8.547006185029          49.449615336010          31.320052569199
           9.002964139389          31.320052569199          32.509212320875
 
     Multipole analysis of the density
     ---------------------------------
 
     L   x y z        total         alpha         beta         nuclear
     -   - - -        -----         -----         ----         -------
     0   0 0 0     -0.000000     -9.000000     -9.000000     18.000000
 
     1   1 0 0     -0.401923    140.568563    140.568563   -281.539048
     1   0 1 0      0.481284    -44.313574    -44.313574     89.108432
     1   0 0 1      0.264533     -0.560937     -0.560937      1.386407
 
     2   2 0 0      3.830391  -2201.801916  -2201.801916   4407.434223
     2   1 1 0    -10.288095    689.973477    689.973477  -1390.235049
     2   1 0 1     -2.516084     11.109507     11.109507    -24.735097
     2   0 2 0     -4.811790   -229.950095   -229.950095    455.088400
     2   0 1 1      1.230996      5.520311      5.520311     -9.809626
     2   0 0 2     -6.411032    -16.369356    -16.369356     26.327680
 
 
            General Information
            -------------------
          SCF calculation type: DFT
          Wavefunction type:  closed shell.
          No. of atoms     :     4
          No. of electrons :    18
           Alpha electrons :     9
            Beta electrons :     9
          Charge           :     0
          Spin multiplicity:     1
          Use of symmetry is: off; symmetry adaption is: off
          Maximum number of iterations: 250
          This is a Direct SCF calculation.
          AO basis - number of functions:    74
                     number of shells:    30
          Convergence on energy requested:  1.00D-08
          Convergence on density requested:  1.00D-05
          Convergence on gradient requested:  1.00D-08
 
              XC Information
              --------------
                    Becke 1988 Exchange Functional  1.000          
              Lee-Yang-Parr Correlation Functional  1.000          
 
             Grid Information
             ----------------
          Grid used for XC integration:  xfine     
          Radial quadrature: Mura-Knowles        
          Angular quadrature: Lebedev. 
          Tag              B.-S. Rad. Rad. Pts. Rad. Cut. Ang. Pts.
          ---              ---------- --------- --------- ---------
          O                   0.60      100           8.0      1454
          H                   0.35      100           9.0      1202
          Grid pruning is: on 
          Number of quadrature shells:   400
          Spatial weights used:  Erf1
 
          Convergence Information
          -----------------------
          Convergence aids based upon iterative change in 
          total energy or number of iterations. 
          Levelshifting, if invoked, occurs when the 
          HOMO/LUMO gap drops below (HL_TOL):  1.00D-02
          DIIS, if invoked, will attempt to extrapolate 
          using up to (NFOCK): 10 stored Fock matrices.

                    Damping( 0%)  Levelshifting(0.0)       DIIS
                  --------------- ------------------- ---------------
          dE  on:    start             N/A                start   
          dE off:    2 iters           N/A              250 iters 

 
      Screening Tolerance Information
      -------------------------------
          Density screening/tol_rho:  1.00D-11
          AO Gaussian exp screening on grid/accAOfunc:  18
          CD Gaussian exp screening on grid/accCDfunc:  20
          XC Gaussian exp screening on grid/accXCfunc:  20
          Schwarz screening/accCoul:  1.00D-09

 
 
                            NWChem DFT Gradient Module
                            --------------------------
 
 
                         h2o2 roa calculations at 514.5 nm, input generated by va with delta_type=2
 
 

  charge          =   0.00
  wavefunction    = closed shell



                         DFT ENERGY GRADIENTS

    atom               coordinates                        gradient
                 x          y          z           x          y          z
   1 O     -15.217909   5.761907  -0.998705    0.013937  -0.002765   0.005409
   2 O     -15.936694   3.992634   1.073506    0.006644   0.011594   0.016743
   3 H     -16.930091   6.113575  -1.705833   -0.013851   0.002727  -0.005569
   4 H     -15.372135   4.958531   2.493832   -0.006730  -0.011555  -0.016582
 
                 ----------------------------------------
                 |  Time  |  1-e(secs)   |  2-e(secs)   |
                 ----------------------------------------
                 |  CPU   |       0.01   |       2.31   |
                 ----------------------------------------
                 |  WALL  |       0.01   |       2.38   |
                 ----------------------------------------

 Task  times  cpu:       41.7s     wall:       42.4s
 
 
                                NWChem Input Module
                                -------------------
 
 
                              NWChem Property Module
                              ----------------------
 
 
                         h2o2 roa calculations at 514.5 nm, input generated by va with delta_type=2
 
 
                                 NWChem DFT Module
                                 -----------------
 
 
                         h2o2 roa calculations at 514.5 nm, input generated by va with delta_type=2
 
 


 Summary of "ao basis" -> "ao basis" (spherical)
 ------------------------------------------------------------------------------
       Tag                 Description            Shells   Functions and Types
 ---------------- ------------------------------  ------  ---------------------
 O                         def2-TZVP                11       31   5s3p2d1f
 H                         def2-TZVP                 4        6   3s1p


  Caching 1-el integrals 
 
            General Information
            -------------------
          SCF calculation type: DFT
          Wavefunction type:  closed shell.
          No. of atoms     :     4
          No. of electrons :    18
           Alpha electrons :     9
            Beta electrons :     9
          Charge           :     0
          Spin multiplicity:     1
          Use of symmetry is: off; symmetry adaption is: off
          Maximum number of iterations: 250
          This is a Direct SCF calculation.
          AO basis - number of functions:    74
                     number of shells:    30
          Convergence on energy requested:  1.00D-08
          Convergence on density requested:  1.00D-05
          Convergence on gradient requested:  1.00D-08
 
              XC Information
              --------------
                    Becke 1988 Exchange Functional  1.000          
              Lee-Yang-Parr Correlation Functional  1.000          
 
             Grid Information
             ----------------
          Grid used for XC integration:  xfine     
          Radial quadrature: Mura-Knowles        
          Angular quadrature: Lebedev. 
          Tag              B.-S. Rad. Rad. Pts. Rad. Cut. Ang. Pts.
          ---              ---------- --------- --------- ---------
          O                   0.60      100           8.0      1454
          H                   0.35      100           9.0      1202
          Grid pruning is: on 
          Number of quadrature shells:   400
          Spatial weights used:  Erf1
 
          Convergence Information
          -----------------------
          Convergence aids based upon iterative change in 
          total energy or number of iterations. 
          Levelshifting, if invoked, occurs when the 
          HOMO/LUMO gap drops below (HL_TOL):  1.00D-02
          DIIS, if invoked, will attempt to extrapolate 
          using up to (NFOCK): 10 stored Fock matrices.

                    Damping( 0%)  Levelshifting(0.0)       DIIS
                  --------------- ------------------- ---------------
          dE  on:    start             N/A                start   
          dE off:    2 iters           N/A              250 iters 

 
      Screening Tolerance Information
      -------------------------------
          Density screening/tol_rho:  1.00D-11
          AO Gaussian exp screening on grid/accAOfunc:  18
          CD Gaussian exp screening on grid/accCDfunc:  20
          XC Gaussian exp screening on grid/accXCfunc:  20
          Schwarz screening/accCoul:  1.00D-09


 Loading old vectors from job with title :

h2o2 roa calculations at 514.5 nm, input generated by va with delta_type=2

   Time after variat. SCF:     43.1
   Time prior to 1st pass:     43.1

 Grid_pts file          = ./h2o2_514.5_11.inp.gridpts.0
 Record size in doubles =  12289        No. of grid_pts per rec  =   3070
 Max. records in memory =    210        Max. recs in file   =   3881460


           Memory utilization after 1st SCF pass: 
           Heap Space remaining (MW):       10.52            10522928
          Stack Space remaining (MW):       13.11            13106668

   convergence    iter        energy       DeltaE   RMS-Dens  Diis-err    time
 ---------------- ----- ----------------- --------- --------- ---------  ------
 d= 0,ls=0.0,diis     1   -151.6004408634 -1.88D+02  2.02D-08  1.59D-12    47.0
 d= 0,ls=0.0,diis     2   -151.6004408634  2.84D-14  9.49D-09  1.39D-12    50.8


         Total DFT energy =     -151.600440863428
      One electron energy =     -279.905609026422
           Coulomb energy =      110.092916599428
    Exchange-Corr. energy =      -17.814015870202
 Nuclear repulsion energy =       36.026267433768

 Numeric. integr. density =       17.999999998211

     Total iterative time =      7.8s


 
                       DFT Final Molecular Orbital Analysis
                       ------------------------------------
 
 Vector    1  Occ=2.000000D+00  E=-1.883387D+01
              MO Center= -8.1D+00,  3.0D+00, -5.3D-01, r^2= 1.5D-02
   Bfn.  Coefficient  Atom+Function         Bfn.  Coefficient  Atom+Function  
  ----- ------------  ---------------      ----- ------------  ---------------
     2      0.638761  1 O  s                  1      0.435397  1 O  s          
     3      0.037143  1 O  s                  4     -0.025022  1 O  s          
 
 Vector    2  Occ=2.000000D+00  E=-1.882969D+01
              MO Center= -8.4D+00,  2.1D+00,  5.7D-01, r^2= 1.5D-02
   Bfn.  Coefficient  Atom+Function         Bfn.  Coefficient  Atom+Function  
  ----- ------------  ---------------      ----- ------------  ---------------
    33      0.638753  2 O  s                 32      0.435387  2 O  s          
    34      0.037160  2 O  s                 35     -0.025109  2 O  s          
 
 Vector    3  Occ=2.000000D+00  E=-1.008635D+00
              MO Center= -8.3D+00,  2.6D+00,  8.4D-02, r^2= 8.2D-01
   Bfn.  Coefficient  Atom+Function         Bfn.  Coefficient  Atom+Function  
  ----- ------------  ---------------      ----- ------------  ---------------
    35      0.317624  2 O  s                  4      0.306684  1 O  s          
    34      0.244612  2 O  s                  3      0.233748  1 O  s          
    33     -0.166523  2 O  s                  2     -0.159378  1 O  s          
    36      0.098317  2 O  s                  5      0.094852  1 O  s          
    38      0.073412  2 O  py                32     -0.071535  2 O  s          
 
 Vector    4  Occ=2.000000D+00  E=-8.200016D-01
              MO Center= -8.3D+00,  2.7D+00,  5.8D-02, r^2= 1.3D+00
   Bfn.  Coefficient  Atom+Function         Bfn.  Coefficient  Atom+Function  
  ----- ------------  ---------------      ----- ------------  ---------------
     4      0.336708  1 O  s                 35     -0.315594  2 O  s          
     3      0.260108  1 O  s                 34     -0.247700  2 O  s          
     2     -0.171447  1 O  s                 33      0.162741  2 O  s          
     5      0.145132  1 O  s                 36     -0.135907  2 O  s          
    39     -0.094735  2 O  pz                69     -0.094263  4 H  s          
 
 Vector    5  Occ=2.000000D+00  E=-4.740854D-01
              MO Center= -8.3D+00,  2.6D+00,  6.5D-02, r^2= 1.3D+00
   Bfn.  Coefficient  Atom+Function         Bfn.  Coefficient  Atom+Function  
  ----- ------------  ---------------      ----- ------------  ---------------
    39      0.316557  2 O  pz                42      0.245874  2 O  pz         
     7      0.210273  1 O  py                 8     -0.196591  1 O  pz         
    10      0.169386  1 O  py                11     -0.155901  1 O  pz         
    70      0.135418  4 H  s                 64      0.125851  3 H  s          
    45      0.111882  2 O  pz                69      0.111306  4 H  s          
 
 Vector    6  Occ=2.000000D+00  E=-4.331714D-01
              MO Center= -8.3D+00,  2.6D+00,  1.3D-02, r^2= 1.3D+00
   Bfn.  Coefficient  Atom+Function         Bfn.  Coefficient  Atom+Function  
  ----- ------------  ---------------      ----- ------------  ---------------
     6      0.257379  1 O  px                 9      0.193107  1 O  px         
    37      0.180196  2 O  px                35     -0.156967  2 O  s          
    36     -0.156579  2 O  s                 38      0.152958  2 O  py         
     4      0.151376  1 O  s                  5      0.151519  1 O  s          
    39      0.142311  2 O  pz                64     -0.140005  3 H  s          
 
 Vector    7  Occ=2.000000D+00  E=-3.655729D-01
              MO Center= -8.2D+00,  2.5D+00, -1.6D-02, r^2= 1.3D+00
   Bfn.  Coefficient  Atom+Function         Bfn.  Coefficient  Atom+Function  
  ----- ------------  ---------------      ----- ------------  ---------------
    38      0.319438  2 O  py                41      0.249531  2 O  py         
     6     -0.238453  1 O  px                 8      0.214784  1 O  pz         
     9     -0.183033  1 O  px                11      0.173434  1 O  pz         
    44      0.165743  2 O  py                 5     -0.131118  1 O  s          
    36     -0.131650  2 O  s                 12     -0.118424  1 O  px         
 
 Vector    8  Occ=2.000000D+00  E=-2.757403D-01
              MO Center= -8.3D+00,  2.6D+00,  5.1D-02, r^2= 1.3D+00
   Bfn.  Coefficient  Atom+Function         Bfn.  Coefficient  Atom+Function  
  ----- ------------  ---------------      ----- ------------  ---------------
    37      0.344964  2 O  px                 7     -0.268493  1 O  py         
    40      0.268113  2 O  px                10     -0.214719  1 O  py         
    43      0.215048  2 O  px                13     -0.170878  1 O  py         
     8     -0.159165  1 O  pz                 6     -0.150095  1 O  px         
     5     -0.121626  1 O  s                 36     -0.121735  2 O  s          
 
 Vector    9  Occ=2.000000D+00  E=-2.309260D-01
              MO Center= -8.2D+00,  2.6D+00,  1.9D-03, r^2= 1.2D+00
   Bfn.  Coefficient  Atom+Function         Bfn.  Coefficient  Atom+Function  
  ----- ------------  ---------------      ----- ------------  ---------------
    37      0.280007  2 O  px                 7      0.276719  1 O  py         
    40      0.221406  2 O  px                10      0.216058  1 O  py         
    38     -0.216960  2 O  py                 8      0.204364  1 O  pz         
    43      0.204260  2 O  px                13      0.190691  1 O  py         
    41     -0.165519  2 O  py                11      0.160826  1 O  pz         
 
 Vector   10  Occ=0.000000D+00  E=-6.040183D-02
              MO Center= -8.3D+00,  2.6D+00,  3.1D-02, r^2= 1.8D+00
   Bfn.  Coefficient  Atom+Function         Bfn.  Coefficient  Atom+Function  
  ----- ------------  ---------------      ----- ------------  ---------------
     5      0.505953  1 O  s                 36     -0.492638  2 O  s          
    44     -0.321580  2 O  py                65     -0.307666  3 H  s          
    14      0.295075  1 O  pz                13     -0.283735  1 O  py         
    45      0.280507  2 O  pz                71      0.276106  4 H  s          
     8      0.259995  1 O  pz                38     -0.253098  2 O  py         
 
 Vector   11  Occ=0.000000D+00  E=-4.108171D-03
              MO Center= -8.7D+00,  3.1D+00,  3.4D-02, r^2= 4.2D+00
[...]
    64      0.860782  3 H  s                 70      0.744647  4 H  s          
     9      0.677142  1 O  px                16     -0.659107  1 O  d -1       
    42     -0.631469  2 O  pz                46      0.561261  2 O  d -2       
    24     -0.541485  1 O  d  2              51     -0.511570  2 O  d -2       
     5     -0.488610  1 O  s                 21      0.448520  1 O  d -1       
 
 Vector   68  Occ=0.000000D+00  E= 6.616417D+00
              MO Center= -8.2D+00,  2.6D+00,  5.6D-02, r^2= 1.1D+00
   Bfn.  Coefficient  Atom+Function         Bfn.  Coefficient  Atom+Function  
  ----- ------------  ---------------      ----- ------------  ---------------
    70     -0.990121  4 H  s                 35      0.919285  2 O  s          
    24     -0.823804  1 O  d  2              64      0.770171  3 H  s          
    19      0.714106  1 O  d  2               4     -0.692461  1 O  s          
     9      0.684499  1 O  px                42      0.681042  2 O  pz         
    36      0.628513  2 O  s                 41      0.625590  2 O  py         
 
 Vector   69  Occ=0.000000D+00  E= 6.753743D+00
              MO Center= -8.2D+00,  2.6D+00,  7.7D-03, r^2= 1.0D+00
   Bfn.  Coefficient  Atom+Function         Bfn.  Coefficient  Atom+Function  
  ----- ------------  ---------------      ----- ------------  ---------------
    17      0.565839  1 O  d  0              47     -0.532199  2 O  d -1       
    22     -0.528959  1 O  d  0              48      0.522661  2 O  d  0       
    53     -0.461362  2 O  d  0              52      0.452082  2 O  d -1       
    16     -0.428237  1 O  d -1              51      0.393766  2 O  d -2       
    46     -0.318216  2 O  d -2              20      0.303285  1 O  d -2       
 
 Vector   70  Occ=0.000000D+00  E= 6.818948D+00
              MO Center= -8.2D+00,  2.6D+00, -1.3D-02, r^2= 1.2D+00
   Bfn.  Coefficient  Atom+Function         Bfn.  Coefficient  Atom+Function  
  ----- ------------  ---------------      ----- ------------  ---------------
    35     -1.114408  2 O  s                  4      1.100975  1 O  s          
    64     -0.941196  3 H  s                 70      0.942807  4 H  s          
     9     -0.830773  1 O  px                42     -0.772412  2 O  pz         
    23     -0.764357  1 O  d  1              66     -0.669092  3 H  px         
    69      0.661649  4 H  s                 53     -0.643992  2 O  d  0       
 
 Vector   71  Occ=0.000000D+00  E= 7.028900D+00
              MO Center= -8.3D+00,  2.5D+00,  1.3D-01, r^2= 1.1D+00
   Bfn.  Coefficient  Atom+Function         Bfn.  Coefficient  Atom+Function  
  ----- ------------  ---------------      ----- ------------  ---------------
    35      1.588338  2 O  s                  4      1.079670  1 O  s          
    70     -1.070244  4 H  s                 42      0.894788  2 O  pz         
    52      0.878575  2 O  d -1              69     -0.866031  4 H  s          
    64     -0.689879  3 H  s                  9     -0.670820  1 O  px         
    41      0.643187  2 O  py                34     -0.618321  2 O  s          
 
 Vector   72  Occ=0.000000D+00  E= 7.713743D+00
              MO Center= -8.2D+00,  2.6D+00,  1.7D-02, r^2= 1.1D+00
   Bfn.  Coefficient  Atom+Function         Bfn.  Coefficient  Atom+Function  
  ----- ------------  ---------------      ----- ------------  ---------------
    42      1.622401  2 O  pz                 4      1.597826  1 O  s          
    35     -1.588386  2 O  s                 11      1.531096  1 O  pz         
    52      1.380059  2 O  d -1              10     -1.279583  1 O  py         
    21     -1.232222  1 O  d -1              41     -1.124022  2 O  py         
     3     -1.081331  1 O  s                 34      1.084029  2 O  s          
 
 Vector   73  Occ=0.000000D+00  E= 4.266658D+01
              MO Center= -8.2D+00,  2.6D+00,  2.6D-02, r^2= 6.6D-01
   Bfn.  Coefficient  Atom+Function         Bfn.  Coefficient  Atom+Function  
  ----- ------------  ---------------      ----- ------------  ---------------
    33      1.200143  2 O  s                  2      1.190454  1 O  s          
    35      1.101669  2 O  s                  4      1.078756  1 O  s          
    34     -1.064273  2 O  s                  3     -1.054136  1 O  s          
    32     -0.986241  2 O  s                  1     -0.978208  1 O  s          
    36     -0.477852  2 O  s                  5     -0.462571  1 O  s          
 
 Vector   74  Occ=0.000000D+00  E= 4.314086D+01
              MO Center= -8.2D+00,  2.6D+00,  1.6D-02, r^2= 6.6D-01
   Bfn.  Coefficient  Atom+Function         Bfn.  Coefficient  Atom+Function  
  ----- ------------  ---------------      ----- ------------  ---------------
     4      1.430431  1 O  s                 35     -1.431210  2 O  s          
     3     -1.258688  1 O  s                 34      1.248929  2 O  s          
     2      1.221072  1 O  s                 33     -1.210982  2 O  s          
     1     -0.989488  1 O  s                 32      0.981399  2 O  s          
    36      0.676282  2 O  s                  5     -0.666366  1 O  s          
 

 center of mass
 --------------
 x = -15.61131367 y =   4.91631923 z =   0.05853765

 moments of inertia (a.u.)
 ------------------
          70.000125231625          -8.547006185029           9.002964139389
          -8.547006185029          49.449615336010          31.320052569199
           9.002964139389          31.320052569199          32.509212320875
 
     Multipole analysis of the density
     ---------------------------------
 
     L   x y z        total         alpha         beta         nuclear
     -   - - -        -----         -----         ----         -------
     0   0 0 0     -0.000000     -9.000000     -9.000000     18.000000
 
     1   1 0 0     -0.401923    140.568563    140.568563   -281.539048
     1   0 1 0      0.481283    -44.313575    -44.313575     89.108432
     1   0 0 1      0.264532     -0.560938     -0.560938      1.386407
 
     2   2 0 0      3.830382  -2201.801920  -2201.801920   4407.434223
     2   1 1 0    -10.288079    689.973485    689.973485  -1390.235049
     2   1 0 1     -2.516073     11.109512     11.109512    -24.735097
     2   0 2 0     -4.811798   -229.950099   -229.950099    455.088400
     2   0 1 1      1.230991      5.520309      5.520309     -9.809626
     2   0 0 2     -6.411032    -16.369356    -16.369356     26.327680
 
 *** CALLING NEW AORESP DRIVER FOR CLOSED AND OPEN SHELLS ***
 Entering AOResponse driver routine


--------------------------------------------------------------------------------

          ****************
          *** RESPONSE ***
          ****************

 Response module for NWChem and dynamic CPKS solver
 developed by J. Autschbach and coworkers, SUNY Buffalo
 The methodology used in this program is described in 
 ChemPhysChem 12 (2011), 3224-3235 (main reference)
 J. Chem. Phys. 123 (2005), 114103
 J. Chem. Phys. 122 (2005), 224115
 J. Chem. Phys. 122 (2005), 074105
 Comp. Lett. 3 (2007), 131-150 (contact JA for a copy)
 Please cite this work in publications based on results
 obtained with this code. Thank you!

 For extension of response module to open shell
 calculations please acknowledge:
 F. Aquino, Northwestern University, Schatz Rsrch Group
 The update to the methodology is described in
 J. Phys. Chem. A 118 (2014) 517-525



          -----------------------------------------------
          Solving response equations for perturbing field
          -----------------------------------------------

 number of frequencies:     1
 frequency in a.u.:  0.8855800E-01
 Perturbing field: electric
 Using GIAO formalism for OptRot
 Adding quadrupole terms to OptRot
 to create an origin in dependent tensor.
 Using El. Dipole Length Gauge
 
 Applying DAMPING constant of  0.003700 a.u.
 
 Setting up CPKS
 with frequency omega =      0.08855800 a.u.
 and a damping of            0.00370000 a.u.

 
                            NWChem Dynamic CPHF Module
                            --------------------------
 
 
    scftype = RHF 
    nclosed =    9
      nopen =    0
  variables =     2340
  num. vecs =        3
  tolerance =   1.0D-09
  max. iter =  100

 SCF residual:   9.301776841623509E-007


Iterative solution of linear equations
  No. of variables     1170
  No. of equations        3
  Maximum subspace       99
       Convergence  1.0D-09
        Start time     54.9


   iter   nsub   residual    time 
   ----  ------  --------  --------- 
 dft_CPHF2_read: failed to open./h2o2_514.5_11.inp.aoresp_fiao_f1
     1      3    5.10D+00      84.7
     2      6    2.15D+00     114.8
     3      9    1.64D-01     144.8
     4     12    7.78D-03     174.8
     5     15    2.15D-03     204.9
     6     18    1.99D-04     235.0
     7     21    5.05D-06     265.4
     8     24    2.28D-07     295.4
     9     27    2.60D-08     325.5
    10     30    3.11D-09     355.6
    11     33    3.29D-10     385.5

 Calculating some arrays needed for GIAO optical rotation

    0 giaofock schwarz done =      98.67%
    0 giaofock schwarz done =      98.67%
 aor_r1_tensor_giao: roadata output requested
 dip-quad polarizability Re:

              1        2        3        4        5        6      
    1 -342.5295  47.0367  -9.3865   5.2112   4.3921  -0.3876
    2  -19.0398-186.6677  57.5768 119.0682 -16.3007   3.2733
    3  -14.8388  59.0291-248.8949 -36.7096  80.9779   7.1352
 traceless dip-quad polarizability:

              1        2        3      
    1 -344.9413  70.5551 -14.0797
    2   70.5551 176.6697   6.5881
    3  -14.0797   6.5881 168.2716

              1        2        3      
    1  -80.2106-280.0015  86.3652
    2 -280.0015 126.9515 -24.4511
    3   86.3652 -24.4511 -46.7409

              1        2        3      
    1   -0.0517  88.5436-373.3423
    2   88.5436 -32.8578 121.4668
    3 -373.3423 121.4668  32.9094

 roa begin

 alpha real:
 XX       0.1086023923168E+02
 XY       0.6283496257305E+00
 XZ       0.4092120573632E+00
 YX       0.6283496259889E+00
 YY       0.1205332867791E+02
 YZ      -0.3552423464619E+01
 ZX       0.4092120572450E+00
 ZY      -0.3552423464490E+01
 ZZ       0.1583352479835E+02

 alpha im:
 XX       0.2334406409444E-01
 XY       0.1673003253961E-02
 XZ      -0.1281872383272E-02
 YX       0.1673003271131E-02
 YY       0.3067817411810E-01
 YZ      -0.1441311713028E-01
 ZX      -0.1281872402789E-02
 ZY      -0.1441311684852E-01
 ZZ       0.4040253748562E-01

 beta real:
 XX      -0.8050682426615E-01
 XY      -0.1676289903479E+00
 XZ       0.2944693795376E+01
 YX       0.8001073005539E+00
 YY       0.2290101873135E+01
 YZ       0.8381505922966E+01
 ZX      -0.3187205891417E+01
 ZY      -0.1086166626117E+02
 ZZ      -0.2214500128314E+01

 G-prime = -omega beta(real):
 XX      -0.8050682426615E-01
 XY      -0.1676289903479E+00
 XZ       0.2944693795376E+01
 YX       0.8001073005539E+00
 YY       0.2290101873135E+01
 YZ       0.8381505922966E+01
 ZX      -0.3187205891417E+01
 ZY      -0.1086166626117E+02
 ZZ      -0.2214500128314E+01

 beta im:
 XX      -0.1372881184599E-02
 XY       0.7819579994291E-03
 XZ       0.5667669722133E-01
 YX       0.3519545455961E-01
 YY       0.9810635959868E-01
 YZ       0.1308655110447E+00
 ZX      -0.6143725297656E-01
 ZY      -0.2260127817680E+00
 ZZ      -0.9916596894378E-01

 G-prime = -omega beta(imag):
 XX      -0.1372881184599E-02
 XY       0.7819579994291E-03
 XZ       0.5667669722133E-01
 YX       0.3519545455961E-01
 YY       0.9810635959868E-01
 YZ       0.1308655110447E+00
 ZX      -0.6143725297656E-01
 ZY      -0.2260127817680E+00
 ZZ      -0.9916596894378E-01

 dipole-quadrupole real (Cartesian):
 XXX     -0.3425294943239E+03
 XXY      0.4703671791247E+02
 XXZ     -0.9386485817872E+01
 XYY      0.5211160506069E+01
 XYZ      0.4392056995981E+01
 XZZ     -0.3875986578009E+00
 YXX     -0.1903982466510E+02
 YXY     -0.1866676626310E+03
 YXZ      0.5757678259040E+02
 YYY      0.1190682467697E+03
 YYZ     -0.1630073192282E+02
 YZZ      0.3273290116185E+01
 ZXX     -0.1483883718309E+02
 ZXY      0.5902905071570E+02
 ZXZ     -0.2488948573856E+03
 ZYY     -0.3670957067360E+02
 ZYZ      0.8097788934637E+02
 ZZZ      0.7135201218552E+01

 dipole-quadrupole imag (Cartesian):
 XXX     -0.7406457918825E+00
 XXY      0.1016113269124E+00
 XXZ      0.1060558584985E-01
 XYY      0.1327689682473E-01
 XYZ     -0.7433776214709E-03
 XZZ     -0.5780987162251E-02
 YXX     -0.4866235485858E-01
 YXY     -0.4810719719803E+00
 YXZ      0.2365435598854E+00
 YYY      0.3123705021978E+00
 YYZ     -0.6991622301968E-01
 YZZ      0.4222960007212E-02
 ZXX      0.3473921765418E-01
 ZXY      0.2263182641044E+00
 ZXZ     -0.6435664860277E+00
 ZYY     -0.1525247311951E+00
 ZYZ      0.2122559250247E+00
 ZZZ      0.2445612702609E-01

 dipole-quadrupole (traceless):
 XXX     -0.3449412752481E+03
 XXY      0.7055507686870E+02
 XXZ     -0.1407972872681E+02
 XYY      0.1766697069969E+03
 XYZ      0.6588085493971E+01
 XZZ      0.1682715682511E+03
 YXX     -0.8021059310807E+02
 YXY     -0.2800014939465E+03
 YXZ      0.8636517388560E+02
 YYY      0.1269515140442E+03
 YYZ     -0.2445109788423E+02
 YZZ     -0.4674092093614E+02
 ZXX     -0.5165245556388E-01
 ZXY      0.8854357607355E+02
 ZXZ     -0.3733422860784E+03
 ZYY     -0.3285775269133E+02
 ZYZ      0.1214668340196E+03
 ZZZ      0.3290940514690E+02

 roa end


 Electric Dipole Response Matrix (nonzero elements):

              1        2        3      
    1   10.8602   0.6283   0.4092
    2    0.6283  12.0533  -3.5524
    3    0.4092  -3.5524  15.8335
 
 Imaginary part:

              1        2        3      
    1    0.0233   0.0017  -0.0013
    2    0.0017   0.0307  -0.0144
    3   -0.0013  -0.0144   0.0404

 ------------------------------------------
 average:        12.91570 + I       0.03147


 DFT Linear Response polarizability / au 
 Frequency  =       0.0885580 / au
 Wavelength =     514.5029585 / nm
              X              Y              Z
 -----------------------------------------------
 X      10.8602392      0.6283496      0.4092121
 Y       0.6283496     12.0533287     -3.5524235
 Z       0.4092121     -3.5524235     15.8335248
 -----------------------------------------------
 Eigenvalues =      11.2745294      9.5050800     17.9674834
 Isotropic   =      12.9156976
 Anisotropic =       6.3123914
 -----------------------------------------------
 *************************

 DFT Linear Response IMAG polarizability / au 
 Frequency  =       0.0885580 / au
 Wavelength =     514.5029585 / nm
              X              Y              Z
 -----------------------------------------------
 X       0.0233441      0.0016730     -0.0012819
 Y       0.0016730      0.0306782     -0.0144131
 Z      -0.0012819     -0.0144131      0.0404025
 -----------------------------------------------
 Eigenvalues =       0.0233207      0.0202049      0.0508992
 Isotropic   =       0.0314749
 Anisotropic =       0.0238916
 -----------------------------------------------
 *************************

 Magnetic Dipole Response Matrix (nonzero elements):
 Optical rotation tensor Beta
 (Buckingham-Dunn version including dipole-quadrupole terms)

              1        2        3      
    1    0.1830   0.1681  -1.5378
    2    0.1681   1.4586  -0.1541
    3   -1.5378  -0.1541  -1.5862
 
 Imaginary part:

              1        2        3      
    1    0.0155  -0.0088  -0.6400
    2   -0.3974  -1.1078  -1.4777
    3    0.6938   2.5521   1.1198

 ------------------------------------------
 average:         0.01846 + I       0.00916

 Principal components and PAS (Real part)
                 -2.47626
                  1.56075
                  0.97090
 ------------------------
 average:         0.01846

              1        2        3      
    1    0.5000   0.3536   0.7906
    2    0.0125   0.9098  -0.4149
    3    0.8659  -0.2173  -0.4504

 Chiral response tensor (Real part):

              1        2        3      
    1   -0.0638  -0.0841   0.7689
    2   -0.0841  -0.7016   0.0770
    3    0.7689   0.0770   0.8208
 
 Principal components and PAS (Real part)
                  1.26582
                 -0.75268
                 -0.45776
 ------------------------
 average:         0.01846

              1        2        3      
    1    0.5000   0.3536   0.7906
    2    0.0125   0.9098  -0.4149
    3    0.8659  -0.2173  -0.4504
 Exiting AOResponse driver routine

 Task  times  cpu:      371.2s     wall:      373.5s
 
 
                                NWChem Input Module
                                -------------------
 
 
 Summary of allocated global arrays
-----------------------------------
  No active global arrays



                         GA Statistics for process    0
                         ------------------------------

       create   destroy   get      put      acc     scatter   gather  read&inc
calls: 2444     2444     6.45e+06 5.32e+06 4.79e+05 1938        0     1953     
number of processes/call 1.00e+00 1.00e+00 1.00e+00 0.00e+00 0.00e+00
bytes total:             1.20e+09 1.67e+08 1.11e+09 5.92e+02 0.00e+00 1.56e+04
bytes remote:            0.00e+00 0.00e+00 0.00e+00 0.00e+00 0.00e+00 0.00e+00
Max memory consumed for GA by this process: 11498464 bytes
 
MA_summarize_allocated_blocks: starting scan ...
MA_summarize_allocated_blocks: scan completed: 0 heap blocks, 0 stack blocks
MA usage statistics:

	allocation statistics:
					      heap	     stack
					      ----	     -----
	current number of blocks	         0	         0
	maximum number of blocks	        24	        52
	current total bytes		         0	         0
	maximum total bytes		  20676928	  42215048
	maximum total K-bytes		     20677	     42216
	maximum total M-bytes		        21	        43
 
 
                                     CITATION
                                     --------
                Please cite the following reference when publishing
                           results obtained with NWChem:
 
                 M. Valiev, E.J. Bylaska, N. Govind, K. Kowalski,
              T.P. Straatsma, H.J.J. van Dam, D. Wang, J. Nieplocha,
                        E. Apra, T.L. Windus, W.A. de Jong
                 "NWChem: a comprehensive and scalable open-source
                  solution for large scale molecular simulations"
                      Comput. Phys. Commun. 181, 1477 (2010)
                           doi:10.1016/j.cpc.2010.04.018
 
                                      AUTHORS
                                      -------
          E. Apra, E. J. Bylaska, W. A. de Jong, N. Govind, K. Kowalski,
       T. P. Straatsma, M. Valiev, H. J. J. van Dam, D. Wang, T. L. Windus,
        J. Hammond, J. Autschbach, K. Bhaskaran-Nair, J. Brabec, K. Lopata,
    S. A. Fischer, S. Krishnamoorthy, M. Jacquelin, W. Ma, M. Klemm, O. Villa,
      Y. Chen, V. Anisimov, F. Aquino, S. Hirata, M. T. Hackler, V. Konjkov,
            D. Mejia-Rodriguez, T. Risthaus, M. Malagoli, A. Marenich,
   A. Otero-de-la-Roza, J. Mullin, P. Nichols, R. Peverati, J. Pittner, Y. Zhao,
        P.-D. Fan, A. Fonari, M. J. Williamson, R. J. Harrison, J. R. Rehr,
      M. Dupuis, D. Silverstein, D. M. A. Smith, J. Nieplocha, V. Tipparaju,
    M. Krishnan, B. E. Van Kuiken, A. Vazquez-Mayagoitia, L. Jensen, M. Swart,
      Q. Wu, T. Van Voorhis, A. A. Auer, M. Nooijen, L. D. Crosby, E. Brown,
      G. Cisneros, G. I. Fann, H. Fruchtl, J. Garza, K. Hirao, R. A. Kendall,
      J. A. Nichols, K. Tsemekhman, K. Wolinski, J. Anchell, D. E. Bernholdt,
      P. Borowski, T. Clark, D. Clerc, H. Dachsel, M. J. O. Deegan, K. Dyall,
    D. Elwood, E. Glendening, M. Gutowski, A. C. Hess, J. Jaffe, B. G. Johnson,
     J. Ju, R. Kobayashi, R. Kutteh, Z. Lin, R. Littlefield, X. Long, B. Meng,
      T. Nakajima, S. Niu, L. Pollack, M. Rosing, K. Glaesemann, G. Sandrone,
      M. Stave, H. Taylor, G. Thomas, J. H. van Lenthe, A. T. Wong, Z. Zhang.

 Total times  cpu:      412.9s     wall:      416.5s
