 argument  1 = h2o2_514.5_00.inp
 


============================== echo of input deck ==============================
echo
start h2o2_514.5_00.inp
title "h2o2 roa calculations at 514.5 nm, input generated by va with delta_type=2"
charge 0



geometry units angstrom nocenter noautoz noautosym nucleus point;symmetry c1
 O -8.053976  3.049273 -0.528886
 O -8.433753  2.112082  0.567029
 H -8.943135  3.232025 -0.896292
 H -8.127885  2.635441  1.336140
end

basis spherical
* library def2-TZVP
end

 set prop:newaoresp 1
 set aor:roadata T
 set cphf:maxsub 100
 set cphf:acc 1.0d-10
 set cphf:maxiter 100

property
    response 1   0.088558
    bdtensor
    convergence 1e-9
    damping 0.0037
    giao
end

dft
 direct
 mult 1
 xc becke88 lyp
 iterations 250
 tolerances tight
 grid xfine
 convergence nolevelshifting
 convergence energy 1e-8
 convergence gradient 1e-8


end

task dft gradient
task dft property
================================================================================


                                         
                                         
 
 
              Northwest Computational Chemistry Package (NWChem) 6.8
              ------------------------------------------------------
 
 
                    Environmental Molecular Sciences Laboratory
                       Pacific Northwest National Laboratory
                                Richland, WA 99352
 
                              Copyright (c) 1994-2017
                       Pacific Northwest National Laboratory
                            Battelle Memorial Institute
 
             NWChem is an open-source computational chemistry package
                        distributed under the terms of the
                      Educational Community License (ECL) 2.0
             A copy of the license is included with this distribution
                              in the LICENSE.TXT file
 
                                  ACKNOWLEDGMENT
                                  --------------

            This software and its documentation were developed at the
            EMSL at Pacific Northwest National Laboratory, a multiprogram
            national laboratory, operated for the U.S. Department of Energy
            by Battelle under Contract Number DE-AC05-76RL01830. Support
            for this work was provided by the Department of Energy Office
            of Biological and Environmental Research, Office of Basic
            Energy Sciences, and the Office of Advanced Scientific Computing.


           Job information
           ---------------

    hostname        = cpn-f11-17-01.cbls.ccr.buffalo.edu
    program         = /util/academic/nwchem/nwchem-6.8/bin/LINUX64/nwchem
    date            = Thu Feb 28 18:48:56 2019

    compiled        = Tue_Nov_06_14:59:08_2018
    source          = /util/academic/nwchem/nwchem-6.8
    nwchem branch   = 6.8
    nwchem revision = v6.8-47-gdf6c956
    ga revision     = ga-5.6.3
    use scalapack   = F
    input           = h2o2_514.5_00.inp
    prefix          = h2o2_514.5_00.inp.
    data base       = ./h2o2_514.5_00.inp.db
    status          = startup
    nproc           =        1
    time left       =     -1s



           Memory information
           ------------------

    heap     =   13107200 doubles =    100.0 Mbytes
    stack    =   13107197 doubles =    100.0 Mbytes
    global   =   26214400 doubles =    200.0 Mbytes (distinct from heap & stack)
    total    =   52428797 doubles =    400.0 Mbytes
    verify   = yes
    hardfail = no 


           Directory information
           ---------------------
 
  0 permanent = .
  0 scratch   = .
 
 
 
 
                                NWChem Input Module
                                -------------------
 
 
                         h2o2 roa calculations at 514.5 nm, input generated by va with delta_type=2
                         ---------------------------------

 Scaling coordinates for geometry "geometry" by  1.889725989
 (inverse scale =  0.529177249)

 
 
                             Geometry "geometry" -> ""
                             -------------------------
 
 Output coordinates in angstroms (scale by  1.889725989 to convert to a.u.)
 
  No.       Tag          Charge          X              Y              Z
 ---- ---------------- ---------- -------------- -------------- --------------
    1 O                    8.0000    -8.05397600     3.04927300    -0.52888600
    2 O                    8.0000    -8.43375300     2.11208200     0.56702900
    3 H                    1.0000    -8.94313500     3.23202500    -0.89629200
    4 H                    1.0000    -8.12788500     2.63544100     1.33614000
 
      Atomic Mass 
      ----------- 
 
      O                 15.994910
      H                  1.007825
 

 Effective nuclear repulsion energy (a.u.)      36.0025491005

            Nuclear Dipole moment (a.u.) 
            ----------------------------
        X                 Y               Z
 ---------------- ---------------- ----------------
  -281.5178700173    89.1162764256     1.4078307437
 
 
            XYZ format geometry
            -------------------
     4
 geometry
 O                    -8.05397600     3.04927300    -0.52888600
 O                    -8.43375300     2.11208200     0.56702900
 H                    -8.94313500     3.23202500    -0.89629200
 H                    -8.12788500     2.63544100     1.33614000
 
 ==============================================================================
                                internuclear distances
 ------------------------------------------------------------------------------
       center one      |      center two      | atomic units |  angstroms
 ------------------------------------------------------------------------------
    3 H                |   1 O                |     1.85057  |     0.97928
    4 H                |   2 O                |     1.85057  |     0.97928
 ------------------------------------------------------------------------------
                         number of included internuclear distances:          2
 ==============================================================================



  warning:::::::::::::: from_environment
  NWCHEM_BASIS_LIBRARY set to: <
 /util/academic/nwchem/nwchem-6.8/src/basis/libraries>
  but file does not exist !
  using .nwchemrc or compiled library


 Summary of "ao basis" -> "" (spherical)
 ------------------------------------------------------------------------------
       Tag                 Description            Shells   Functions and Types
 ---------------- ------------------------------  ------  ---------------------
 *                         def2-TZVP                  on all atoms 


 
                                 NWChem DFT Module
                                 -----------------
 
 
                         h2o2 roa calculations at 514.5 nm, input generated by va with delta_type=2
 
 
                      Basis "ao basis" -> "ao basis" (spherical)
                      -----
  O (Oxygen)
  ----------
            Exponent  Coefficients 
       -------------- ---------------------------------------------------------
  1 S  2.70323826E+04  0.000217
  1 S  4.05238714E+03  0.001684
  1 S  9.22327227E+02  0.008740
  1 S  2.61240710E+02  0.035240
  1 S  8.53546414E+01  0.111535
  1 S  3.10350352E+01  0.255890
 
  2 S  1.22608607E+01  0.397687
  2 S  4.99870760E+00  0.246278
 
  3 S  1.17031082E+00  1.000000
 
  4 S  4.64747410E-01  1.000000
 
  5 S  1.85045364E-01  1.000000
 
  6 P  6.32749548E+01  0.006069
  6 P  1.46270494E+01  0.041913
  6 P  4.45012235E+00  0.161538
  6 P  1.52757996E+00  0.357070
 
  7 P  5.29351179E-01  1.000000
 
  8 P  1.74784213E-01  1.000000
 
  9 D  2.31400000E+00  1.000000
 
 10 D  6.45000000E-01  1.000000
 
 11 F  1.42800000E+00  1.000000
 
  H (Hydrogen)
  ------------
            Exponent  Coefficients 
       -------------- ---------------------------------------------------------
  1 S  3.40613410E+01  0.006025
  1 S  5.12357460E+00  0.045021
  1 S  1.16466260E+00  0.201897
 
  2 S  3.27230410E-01  1.000000
 
  3 S  1.03072410E-01  1.000000
 
  4 P  8.00000000E-01  1.000000
 


 Summary of "ao basis" -> "ao basis" (spherical)
 ------------------------------------------------------------------------------
       Tag                 Description            Shells   Functions and Types
 ---------------- ------------------------------  ------  ---------------------
 O                         def2-TZVP                11       31   5s3p2d1f
 H                         def2-TZVP                 4        6   3s1p




 Summary of "ao basis" -> "ao basis" (spherical)
 ------------------------------------------------------------------------------
       Tag                 Description            Shells   Functions and Types
 ---------------- ------------------------------  ------  ---------------------
 O                         def2-TZVP                11       31   5s3p2d1f
 H                         def2-TZVP                 4        6   3s1p


  Caching 1-el integrals 
  itol2e modified to match energy
  convergence criterion.
  tol_rho modified to match energy
  convergence criterion.
 
            General Information
            -------------------
          SCF calculation type: DFT
          Wavefunction type:  closed shell.
          No. of atoms     :     4
          No. of electrons :    18
           Alpha electrons :     9
            Beta electrons :     9
          Charge           :     0
          Spin multiplicity:     1
          Use of symmetry is: off; symmetry adaption is: off
          Maximum number of iterations: 250
          This is a Direct SCF calculation.
          AO basis - number of functions:    74
                     number of shells:    30
          Convergence on energy requested:  1.00D-08
          Convergence on density requested:  1.00D-05
          Convergence on gradient requested:  1.00D-08
 
              XC Information
              --------------
                    Becke 1988 Exchange Functional  1.000          
              Lee-Yang-Parr Correlation Functional  1.000          
 
             Grid Information
             ----------------
          Grid used for XC integration:  xfine     
          Radial quadrature: Mura-Knowles        
          Angular quadrature: Lebedev. 
          Tag              B.-S. Rad. Rad. Pts. Rad. Cut. Ang. Pts.
          ---              ---------- --------- --------- ---------
          O                   0.60      100           8.0      1454
          H                   0.35      100           9.0      1202
          Grid pruning is: on 
          Number of quadrature shells:   400
          Spatial weights used:  Erf1
 
          Convergence Information
          -----------------------
          Convergence aids based upon iterative change in 
          total energy or number of iterations. 
          Levelshifting, if invoked, occurs when the 
          HOMO/LUMO gap drops below (HL_TOL):  1.00D-02
          DIIS, if invoked, will attempt to extrapolate 
          using up to (NFOCK): 10 stored Fock matrices.

                    Damping( 0%)  Levelshifting(0.0)       DIIS
                  --------------- ------------------- ---------------
          dE  on:    start             N/A                start   
          dE off:    2 iters           N/A              250 iters 

 
      Screening Tolerance Information
      -------------------------------
          Density screening/tol_rho:  1.00D-11
          AO Gaussian exp screening on grid/accAOfunc:  18
          CD Gaussian exp screening on grid/accCDfunc:  20
          XC Gaussian exp screening on grid/accXCfunc:  20
          Schwarz screening/accCoul:  1.00D-09

 
      Superposition of Atomic Density Guess
      -------------------------------------
 
 Sum of atomic energies:        -150.56823290
 
      Non-variational initial energy
      ------------------------------

 Total energy =    -150.656024
 1-e energy   =    -278.568112
 2-e energy   =      91.909539
 HOMO         =      -0.359432
 LUMO         =      -0.045397
 
   Time after variat. SCF:      1.3
   Time prior to 1st pass:      1.3

 Grid_pts file          = ./h2o2_514.5_00.inp.gridpts.0
 Record size in doubles =  12289        No. of grid_pts per rec  =   3070
 Max. records in memory =    210        Max. recs in file   =   3881612


           Memory utilization after 1st SCF pass: 
           Heap Space remaining (MW):       10.52            10522928
          Stack Space remaining (MW):       13.11            13106668

   convergence    iter        energy       DeltaE   RMS-Dens  Diis-err    time
 ---------------- ----- ----------------- --------- --------- ---------  ------
 d= 0,ls=0.0,diis     1   -151.5598059443 -1.88D+02  7.37D-03  6.80D-01     5.0
 d= 0,ls=0.0,diis     2   -151.5949501404 -3.51D-02  2.66D-03  6.10D-02     8.6
 d= 0,ls=0.0,diis     3   -151.5996191243 -4.67D-03  1.04D-03  1.72D-02    12.0
 d= 0,ls=0.0,diis     4   -151.6008209780 -1.20D-03  3.63D-04  3.88D-03    15.4
 d= 0,ls=0.0,diis     5   -151.6011468090 -3.26D-04  5.10D-05  6.55D-05    19.1
 d= 0,ls=0.0,diis     6   -151.6011533912 -6.58D-06  5.25D-06  7.29D-07    22.5
 d= 0,ls=0.0,diis     7   -151.6011534563 -6.51D-08  1.18D-06  1.22D-08    25.9
 d= 0,ls=0.0,diis     8   -151.6011534573 -1.01D-09  3.54D-07  1.27D-09    29.5


         Total DFT energy =     -151.601153457323
      One electron energy =     -279.865492446385
           Coulomb energy =      110.073683133825
    Exchange-Corr. energy =      -17.811893245250
 Nuclear repulsion energy =       36.002549100486

 Numeric. integr. density =       17.999999997730

     Total iterative time =     28.2s


 
                       DFT Final Molecular Orbital Analysis
                       ------------------------------------
 
 Vector    1  Occ=2.000000D+00  E=-1.883191D+01
              MO Center= -8.2D+00,  2.7D+00, -1.4D-01, r^2= 5.2D-01
   Bfn.  Coefficient  Atom+Function         Bfn.  Coefficient  Atom+Function  
  ----- ------------  ---------------      ----- ------------  ---------------
     2      0.513997  1 O  s                 33     -0.379043  2 O  s          
     1      0.350411  1 O  s                 32     -0.258444  2 O  s          
     3      0.030723  1 O  s          
 
 Vector    2  Occ=2.000000D+00  E=-1.883188D+01
              MO Center= -8.3D+00,  2.4D+00,  1.8D-01, r^2= 5.2D-01
   Bfn.  Coefficient  Atom+Function         Bfn.  Coefficient  Atom+Function  
  ----- ------------  ---------------      ----- ------------  ---------------
    33      0.514141  2 O  s                  2      0.379239  1 O  s          
    32      0.350393  2 O  s                  1      0.258420  1 O  s          
    34      0.029084  2 O  s          
 
 Vector    3  Occ=2.000000D+00  E=-1.007998D+00
              MO Center= -8.3D+00,  2.6D+00,  5.3D-02, r^2= 8.2D-01
   Bfn.  Coefficient  Atom+Function         Bfn.  Coefficient  Atom+Function  
  ----- ------------  ---------------      ----- ------------  ---------------
     4      0.312644  1 O  s                 35      0.312638  2 O  s          
     3      0.239254  1 O  s                 34      0.239248  2 O  s          
     2     -0.163025  1 O  s                 33     -0.163022  2 O  s          
     5      0.096820  1 O  s                 36      0.096818  2 O  s          
    38      0.071610  2 O  py                 1     -0.070042  1 O  s          
 
 Vector    4  Occ=2.000000D+00  E=-8.191903D-01
              MO Center= -8.3D+00,  2.7D+00,  7.2D-02, r^2= 1.3D+00
   Bfn.  Coefficient  Atom+Function         Bfn.  Coefficient  Atom+Function  
  ----- ------------  ---------------      ----- ------------  ---------------
     4      0.326834  1 O  s                 35     -0.326839  2 O  s          
     3      0.254063  1 O  s                 34     -0.254066  2 O  s          
     2     -0.167229  1 O  s                 33      0.167232  2 O  s          
     5      0.140927  1 O  s                 36     -0.140929  2 O  s          
    63      0.090910  3 H  s                 69     -0.090911  4 H  s          
 
 Vector    5  Occ=2.000000D+00  E=-4.736000D-01
              MO Center= -8.3D+00,  2.7D+00,  6.0D-02, r^2= 1.3D+00
   Bfn.  Coefficient  Atom+Function         Bfn.  Coefficient  Atom+Function  
  ----- ------------  ---------------      ----- ------------  ---------------
    39      0.310316  2 O  pz                42      0.242810  2 O  pz         
     7      0.208499  1 O  py                 8     -0.199741  1 O  pz         
    10      0.167764  1 O  py                11     -0.157892  1 O  pz         
    64      0.130667  3 H  s                 70      0.130663  4 H  s          
     6     -0.121178  1 O  px                45      0.111017  2 O  pz         
 
 Vector    6  Occ=2.000000D+00  E=-4.330897D-01
              MO Center= -8.3D+00,  2.6D+00,  3.6D-02, r^2= 1.3D+00
   Bfn.  Coefficient  Atom+Function         Bfn.  Coefficient  Atom+Function  
  ----- ------------  ---------------      ----- ------------  ---------------
     6      0.253997  1 O  px                 9      0.189377  1 O  px         
    37      0.177087  2 O  px                39      0.154887  2 O  pz         
     4      0.153966  1 O  s                  5      0.154081  1 O  s          
    35     -0.153964  2 O  s                 36     -0.154079  2 O  s          
    38      0.151550  2 O  py                40      0.136916  2 O  px         
 
 Vector    7  Occ=2.000000D+00  E=-3.654603D-01
              MO Center= -8.2D+00,  2.5D+00, -2.0D-02, r^2= 1.3D+00
   Bfn.  Coefficient  Atom+Function         Bfn.  Coefficient  Atom+Function  
  ----- ------------  ---------------      ----- ------------  ---------------
    38      0.318794  2 O  py                41      0.249336  2 O  py         
     6     -0.238652  1 O  px                 8      0.215603  1 O  pz         
     9     -0.182660  1 O  px                11      0.174415  1 O  pz         
    44      0.165345  2 O  py                 5     -0.131432  1 O  s          
    36     -0.131437  2 O  s                 14      0.119497  1 O  pz         
 
 Vector    8  Occ=2.000000D+00  E=-2.755710D-01
              MO Center= -8.3D+00,  2.6D+00,  5.4D-02, r^2= 1.3D+00
   Bfn.  Coefficient  Atom+Function         Bfn.  Coefficient  Atom+Function  
  ----- ------------  ---------------      ----- ------------  ---------------
    37      0.344294  2 O  px                 7     -0.269378  1 O  py         
    40      0.267950  2 O  px                10     -0.215762  1 O  py         
    43      0.214500  2 O  px                13     -0.171773  1 O  py         
     8     -0.159405  1 O  pz                 6     -0.149426  1 O  px         
     5     -0.121710  1 O  s                 36     -0.121717  2 O  s          
 
 Vector    9  Occ=2.000000D+00  E=-2.307588D-01
              MO Center= -8.2D+00,  2.6D+00,  7.1D-03, r^2= 1.2D+00
   Bfn.  Coefficient  Atom+Function         Bfn.  Coefficient  Atom+Function  
  ----- ------------  ---------------      ----- ------------  ---------------
    37      0.282158  2 O  px                 7      0.274881  1 O  py         
    40      0.222706  2 O  px                38     -0.216766  2 O  py         
    10      0.214567  1 O  py                43      0.205514  2 O  px         
     8      0.203588  1 O  pz                13      0.189630  1 O  py         
    41     -0.165762  2 O  py                11      0.160547  1 O  pz         
 
 Vector   10  Occ=0.000000D+00  E=-6.024214D-02
              MO Center= -8.3D+00,  2.6D+00,  5.0D-02, r^2= 1.8D+00
   Bfn.  Coefficient  Atom+Function         Bfn.  Coefficient  Atom+Function  
  ----- ------------  ---------------      ----- ------------  ---------------
     5      0.499467  1 O  s                 36     -0.499464  2 O  s          
    44     -0.326271  2 O  py                14      0.298140  1 O  pz         
    65     -0.292104  3 H  s                 71      0.292102  4 H  s          
    13     -0.284888  1 O  py                45      0.274601  2 O  pz         
     8      0.262078  1 O  pz                38     -0.256802  2 O  py         
 
 Vector   11  Occ=0.000000D+00  E=-3.874581D-03
              MO Center= -8.6D+00,  3.0D+00,  2.8D-01, r^2= 4.3D+00
   Bfn.  Coefficient  Atom+Function         Bfn.  Coefficient  Atom+Function  
  ----- ------------  ---------------      ----- ------------  ---------------
    65      0.998225  3 H  s                 71      0.998209  4 H  s          
     5     -0.644954  1 O  s                 36     -0.644951  2 O  s          
    12      0.261509  1 O  px                45     -0.238003  2 O  pz         
    44     -0.147534  2 O  py                39     -0.130428  2 O  pz         
     6      0.126298  1 O  px                 3     -0.122581  1 O  s          
 
 Vector   12  Occ=0.000000D+00  E= 3.972902D-02
              MO Center= -8.6D+00,  3.0D+00,  2.6D-01, r^2= 4.3D+00
   Bfn.  Coefficient  Atom+Function         Bfn.  Coefficient  Atom+Function  
  ----- ------------  ---------------      ----- ------------  ---------------
    65      1.189346  3 H  s                 71     -1.189362  4 H  s          
    45      0.448195  2 O  pz                 5     -0.417614  1 O  s          
    36      0.417624  2 O  s                 14      0.308326  1 O  pz         
    12      0.255818  1 O  px                39      0.238940  2 O  pz         
    13     -0.210676  1 O  py                 8      0.172327  1 O  pz         
 
 Vector   13  Occ=0.000000D+00  E= 3.373353D-01
              MO Center= -8.4D+00,  2.8D+00,  1.4D-01, r^2= 3.8D+00
   Bfn.  Coefficient  Atom+Function         Bfn.  Coefficient  Atom+Function  
  ----- ------------  ---------------      ----- ------------  ---------------
    64      1.185216  3 H  s                 70      1.185171  4 H  s          
    65     -0.668123  3 H  s                 71     -0.668098  4 H  s          
    45     -0.603806  2 O  pz                14      0.538080  1 O  pz         
     9      0.361105  1 O  px                41     -0.330381  2 O  py         
     4     -0.321678  1 O  s                 35     -0.321676  2 O  s          
 
 Vector   14  Occ=0.000000D+00  E= 3.443605D-01
              MO Center= -8.3D+00,  2.7D+00,  7.3D-02, r^2= 3.6D+00
   Bfn.  Coefficient  Atom+Function         Bfn.  Coefficient  Atom+Function  
  ----- ------------  ---------------      ----- ------------  ---------------
    64      1.491234  3 H  s                 70     -1.491244  4 H  s          
    65     -0.827364  3 H  s                 71      0.827368  4 H  s          
     5     -0.702884  1 O  s                 12      0.700620  1 O  px         
    36      0.702886  2 O  s                 44      0.657482  2 O  py         
    43      0.380610  2 O  px                 4     -0.368996  1 O  s          
 
 Vector   15  Occ=0.000000D+00  E= 3.516304D-01
              MO Center= -8.3D+00,  2.7D+00,  6.0D-02, r^2= 3.8D+00
   Bfn.  Coefficient  Atom+Function         Bfn.  Coefficient  Atom+Function  
  ----- ------------  ---------------      ----- ------------  ---------------
    13      0.922065  1 O  py                44      0.831220  2 O  py         
    45     -0.764817  2 O  pz                 5     -0.742073  1 O  s          
    36      0.742080  2 O  s                 14     -0.713083  1 O  pz         
    43      0.589844  2 O  px                12      0.514819  1 O  px         
    64     -0.361789  3 H  s                 70      0.361887  4 H  s          
 
 Vector   16  Occ=0.000000D+00  E= 3.726089D-01
              MO Center= -8.0D+00,  2.3D+00, -1.4D-01, r^2= 2.6D+00
   Bfn.  Coefficient  Atom+Function         Bfn.  Coefficient  Atom+Function  
  ----- ------------  ---------------      ----- ------------  ---------------
    44      0.609834  2 O  py                12     -0.544775  1 O  px         
     4      0.463842  1 O  s                 35      0.463840  2 O  s          
    13      0.424168  1 O  py                 5     -0.343490  1 O  s          
    36     -0.343491  2 O  s                 64     -0.316548  3 H  s          
    70     -0.316525  4 H  s                 41     -0.314238  2 O  py         
 
 Vector   17  Occ=0.000000D+00  E= 4.126336D-01
              MO Center= -8.3D+00,  2.6D+00,  3.7D-02, r^2= 3.0D+00
   Bfn.  Coefficient  Atom+Function         Bfn.  Coefficient  Atom+Function  
  ----- ------------  ---------------      ----- ------------  ---------------
    45     -0.883975  2 O  pz                14      0.869528  1 O  pz         
    12      0.758417  1 O  px                43     -0.737392  2 O  px         
    11     -0.371547  1 O  pz                 4     -0.367270  1 O  s          
    35     -0.367267  2 O  s                 42      0.359991  2 O  pz         
    40      0.275314  2 O  px                 9     -0.258542  1 O  px         
 
 Vector   18  Occ=0.000000D+00  E= 4.425897D-01
              MO Center= -8.2D+00,  2.6D+00,  2.0D-02, r^2= 3.5D+00
   Bfn.  Coefficient  Atom+Function         Bfn.  Coefficient  Atom+Function  
  ----- ------------  ---------------      ----- ------------  ---------------
    44      1.227121  2 O  py                14     -1.024742  1 O  pz         
     5     -0.862658  1 O  s                 36      0.862638  2 O  s          
    12      0.786063  1 O  px                43     -0.641354  2 O  px         
    13     -0.500851  1 O  py                64      0.423781  3 H  s          
    70     -0.423792  4 H  s                 40      0.363271  2 O  px         
 
 Vector   19  Occ=0.000000D+00  E= 4.653415D-01
              MO Center= -8.3D+00,  2.7D+00,  8.5D-02, r^2= 4.0D+00
   Bfn.  Coefficient  Atom+Function         Bfn.  Coefficient  Atom+Function  
  ----- ------------  ---------------      ----- ------------  ---------------
     5      0.979954  1 O  s                 36      0.979941  2 O  s          
    65     -0.811131  3 H  s                 71     -0.811112  4 H  s          
    13      0.770544  1 O  py                43     -0.680576  2 O  px         
    64      0.667040  3 H  s                 70      0.667041  4 H  s          
     4     -0.619680  1 O  s                 35     -0.619677  2 O  s          
 
 Vector   20  Occ=0.000000D+00  E= 5.216252D-01
              MO Center= -8.3D+00,  2.7D+00,  8.8D-02, r^2= 4.0D+00
   Bfn.  Coefficient  Atom+Function         Bfn.  Coefficient  Atom+Function  
  ----- ------------  ---------------      ----- ------------  ---------------
    45      1.537352  2 O  pz                65      1.342761  3 H  s          
    71     -1.342761  4 H  s                 12      1.060274  1 O  px         
     5     -1.036756  1 O  s                 36      1.036739  2 O  s          
    14      0.941948  1 O  pz                13     -0.709763  1 O  py         
     4      0.537935  1 O  s                 35     -0.537926  2 O  s          
 
 Vector   21  Occ=0.000000D+00  E= 5.871513D-01
              MO Center= -8.4D+00,  2.8D+00,  1.4D-01, r^2= 3.0D+00
   Bfn.  Coefficient  Atom+Function         Bfn.  Coefficient  Atom+Function  
  ----- ------------  ---------------      ----- ------------  ---------------
     5      2.502851  1 O  s                 36      2.502824  2 O  s          
     4     -1.458862  1 O  s                 35     -1.458855  2 O  s          
    12     -1.366938  1 O  px                64     -1.047384  3 H  s          
    70     -1.047381  4 H  s                 44      0.908614  2 O  py         
    45      0.851462  2 O  pz                65     -0.841543  3 H  s          
 
 Vector   22  Occ=0.000000D+00  E= 6.693699D-01
              MO Center= -8.2D+00,  2.5D+00, -3.9D-02, r^2= 3.0D+00
   Bfn.  Coefficient  Atom+Function         Bfn.  Coefficient  Atom+Function  
  ----- ------------  ---------------      ----- ------------  ---------------
     5      5.579040  1 O  s                 36     -5.579059  2 O  s          
     4     -1.824858  1 O  s                 35      1.824875  2 O  s          
    14      1.726234  1 O  pz                44     -1.716048  2 O  py         
    45      1.632123  2 O  pz                13     -1.550614  1 O  py         
    64     -0.895926  3 H  s                 70      0.895932  4 H  s          
 
 Vector   23  Occ=0.000000D+00  E= 1.012358D+00
              MO Center= -8.4D+00,  2.7D+00,  9.3D-02, r^2= 1.5D+00
   Bfn.  Coefficient  Atom+Function         Bfn.  Coefficient  Atom+Function  
  ----- ------------  ---------------      ----- ------------  ---------------
    22      0.325821  1 O  d  0              68     -0.315501  3 H  pz         
    64     -0.304849  3 H  s                 70      0.304846  4 H  s          
    53     -0.284009  2 O  d  0              74     -0.258462  4 H  pz         
    23     -0.249503  1 O  d  1              54      0.247301  2 O  d  1       
    73      0.225318  4 H  py                51      0.218800  2 O  d -2       
 
 Vector   24  Occ=0.000000D+00  E= 1.080360D+00
              MO Center= -8.3D+00,  2.7D+00,  6.4D-02, r^2= 1.5D+00
   Bfn.  Coefficient  Atom+Function         Bfn.  Coefficient  Atom+Function  
  ----- ------------  ---------------      ----- ------------  ---------------
    54      0.345045  2 O  d  1              67      0.339525  3 H  py         
    20     -0.305734  1 O  d -2              22     -0.278327  1 O  d  0       
    72     -0.275873  4 H  px                52      0.232925  2 O  d -1       
    64     -0.203141  3 H  s                 70     -0.203134  4 H  s          
    74      0.198079  4 H  pz                53      0.194924  2 O  d  0       
 
 Vector   25  Occ=0.000000D+00  E= 1.184285D+00
              MO Center= -8.3D+00,  2.6D+00,  5.4D-02, r^2= 1.5D+00
   Bfn.  Coefficient  Atom+Function         Bfn.  Coefficient  Atom+Function  
  ----- ------------  ---------------      ----- ------------  ---------------
    55     -0.442803  2 O  d  2              23      0.428732  1 O  d  1       
     5     -0.353437  1 O  s                 36     -0.353442  2 O  s          
    64      0.237621  3 H  s                 68      0.238185  3 H  pz         
    70      0.237621  4 H  s                 24      0.235985  1 O  d  2       
    44     -0.229637  2 O  py                12      0.224478  1 O  px         
 
 Vector   26  Occ=0.000000D+00  E= 1.224553D+00
              MO Center= -8.4D+00,  2.7D+00,  1.1D-01, r^2= 1.7D+00
   Bfn.  Coefficient  Atom+Function         Bfn.  Coefficient  Atom+Function  
  ----- ------------  ---------------      ----- ------------  ---------------
     5      0.625153  1 O  s                 36     -0.625148  2 O  s          
    72      0.407117  4 H  px                20     -0.382900  1 O  d -2       
    67      0.356335  3 H  py                43     -0.256937  2 O  px         
    51      0.250513  2 O  d -2              55      0.240479  2 O  d  2       
    13     -0.235462  1 O  py                68      0.235424  3 H  pz         
 
 Vector   27  Occ=0.000000D+00  E= 1.520337D+00
              MO Center= -8.4D+00,  2.8D+00,  1.2D-01, r^2= 2.5D+00
   Bfn.  Coefficient  Atom+Function         Bfn.  Coefficient  Atom+Function  
  ----- ------------  ---------------      ----- ------------  ---------------
    64      2.035880  3 H  s                 70      2.035502  4 H  s          
    45     -0.693299  2 O  pz                12      0.657694  1 O  px         
    52     -0.631075  2 O  d -1               4     -0.624599  1 O  s          
    35     -0.624542  2 O  s                 24     -0.518898  1 O  d  2       
     5     -0.499807  1 O  s                 36     -0.499593  2 O  s          
 
 Vector   28  Occ=0.000000D+00  E= 1.533795D+00
              MO Center= -8.4D+00,  2.7D+00,  1.1D-01, r^2= 2.5D+00
   Bfn.  Coefficient  Atom+Function         Bfn.  Coefficient  Atom+Function  
  ----- ------------  ---------------      ----- ------------  ---------------
    64      2.148652  3 H  s                 70     -2.148989  4 H  s          
     5     -1.284389  1 O  s                 36      1.284468  2 O  s          
    12      0.732539  1 O  px                24     -0.627357  1 O  d  2       
    44      0.623628  2 O  py                52      0.521622  2 O  d -1       
    65     -0.420981  3 H  s                 71      0.421047  4 H  s          
 
 Vector   29  Occ=0.000000D+00  E= 1.602208D+00
              MO Center= -8.4D+00,  2.7D+00,  1.0D-01, r^2= 1.7D+00
   Bfn.  Coefficient  Atom+Function         Bfn.  Coefficient  Atom+Function  
  ----- ------------  ---------------      ----- ------------  ---------------
    73      0.410621  4 H  py                51      0.391395  2 O  d -2       
    68      0.377803  3 H  pz                21     -0.347735  1 O  d -1       
    54      0.329374  2 O  d  1              12     -0.273493  1 O  px         
    22     -0.273085  1 O  d  0              74     -0.268174  4 H  pz         
    45      0.263511  2 O  pz                43      0.258915  2 O  px         
 
 Vector   30  Occ=0.000000D+00  E= 1.646438D+00
              MO Center= -8.3D+00,  2.6D+00,  5.3D-02, r^2= 1.6D+00
   Bfn.  Coefficient  Atom+Function         Bfn.  Coefficient  Atom+Function  
  ----- ------------  ---------------      ----- ------------  ---------------
    64      0.664244  3 H  s                 70      0.664246  4 H  s          
    21      0.566433  1 O  d -1               5     -0.466218  1 O  s          
    36     -0.466188  2 O  s                 53     -0.457988  2 O  d  0       
    55      0.374631  2 O  d  2              44     -0.367251  2 O  py         
    24     -0.339752  1 O  d  2              12      0.316905  1 O  px         
 
 Vector   31  Occ=0.000000D+00  E= 1.742192D+00
              MO Center= -8.3D+00,  2.7D+00,  9.1D-02, r^2= 1.8D+00
   Bfn.  Coefficient  Atom+Function         Bfn.  Coefficient  Atom+Function  
  ----- ------------  ---------------      ----- ------------  ---------------
     5      1.172448  1 O  s                 36     -1.172455  2 O  s          
    13     -0.623947  1 O  py                45      0.557606  2 O  pz         
    22     -0.487004  1 O  d  0              51     -0.472078  2 O  d -2       
    73      0.414375  4 H  py                14      0.406248  1 O  pz         
    43     -0.372280  2 O  px                44     -0.357907  2 O  py         
 
 Vector   32  Occ=0.000000D+00  E= 1.850579D+00
              MO Center= -8.3D+00,  2.7D+00,  6.8D-02, r^2= 2.2D+00
   Bfn.  Coefficient  Atom+Function         Bfn.  Coefficient  Atom+Function  
  ----- ------------  ---------------      ----- ------------  ---------------
     5      2.229716  1 O  s                 36     -2.229713  2 O  s          
     4     -1.147764  1 O  s                 35      1.147757  2 O  s          
    44     -1.000101  2 O  py                14      0.889087  1 O  pz         
    64      0.761842  3 H  s                 70     -0.761839  4 H  s          
     9      0.597400  1 O  px                12     -0.600298  1 O  px         
 
 Vector   33  Occ=0.000000D+00  E= 1.956010D+00
              MO Center= -8.4D+00,  2.8D+00,  1.5D-01, r^2= 1.9D+00
   Bfn.  Coefficient  Atom+Function         Bfn.  Coefficient  Atom+Function  
  ----- ------------  ---------------      ----- ------------  ---------------
    72     -0.731165  4 H  px                64      0.666936  3 H  s          
    70      0.666929  4 H  s                 67      0.528371  3 H  py         
    68      0.502780  3 H  pz                20      0.459606  1 O  d -2       
    54     -0.371460  2 O  d  1               4     -0.348779  1 O  s          
    35     -0.348770  2 O  s                 42     -0.343231  2 O  pz         
 
 Vector   34  Occ=0.000000D+00  E= 2.016965D+00
              MO Center= -8.3D+00,  2.7D+00,  5.9D-02, r^2= 1.9D+00
   Bfn.  Coefficient  Atom+Function         Bfn.  Coefficient  Atom+Function  
  ----- ------------  ---------------      ----- ------------  ---------------
     5      1.129691  1 O  s                 36     -1.129694  2 O  s          
    20      0.614584  1 O  d -2              67      0.609406  3 H  py         
    64     -0.556512  3 H  s                 70      0.556503  4 H  s          
    72      0.551580  4 H  px                13     -0.507064  1 O  py         
    44     -0.478478  2 O  py                54      0.474227  2 O  d  1       
 
 Vector   35  Occ=0.000000D+00  E= 2.071566D+00
              MO Center= -8.3D+00,  2.7D+00,  7.4D-02, r^2= 1.8D+00
   Bfn.  Coefficient  Atom+Function         Bfn.  Coefficient  Atom+Function  
  ----- ------------  ---------------      ----- ------------  ---------------
    64      0.622107  3 H  s                 70     -0.622068  4 H  s          
    68      0.570980  3 H  pz                55     -0.514638  2 O  d  2       
    23     -0.505447  1 O  d  1              53     -0.494709  2 O  d  0       
    24     -0.483515  1 O  d  2              74      0.454038  4 H  pz         
     4     -0.412521  1 O  s                 35      0.412486  2 O  s          
 
 Vector   36  Occ=0.000000D+00  E= 2.096606D+00
              MO Center= -8.3D+00,  2.6D+00,  3.5D-02, r^2= 2.1D+00
   Bfn.  Coefficient  Atom+Function         Bfn.  Coefficient  Atom+Function  
  ----- ------------  ---------------      ----- ------------  ---------------
    64      0.880985  3 H  s                 70      0.880997  4 H  s          
     9      0.789938  1 O  px                42     -0.638303  2 O  pz         
     4     -0.615950  1 O  s                 35     -0.615964  2 O  s          
    73     -0.583043  4 H  py                66      0.544571  3 H  px         
    22     -0.476733  1 O  d  0              41     -0.453268  2 O  py         
 
 Vector   37  Occ=0.000000D+00  E= 2.185259D+00
              MO Center= -8.4D+00,  2.8D+00,  1.3D-01, r^2= 2.3D+00
   Bfn.  Coefficient  Atom+Function         Bfn.  Coefficient  Atom+Function  
  ----- ------------  ---------------      ----- ------------  ---------------
    64      1.520657  3 H  s                 70     -1.520627  4 H  s          
     5     -1.332818  1 O  s                 36      1.332815  2 O  s          
     4     -0.866632  1 O  s                 35      0.866612  2 O  s          
    42      0.828249  2 O  pz                45     -0.758463  2 O  pz         
     9      0.742993  1 O  px                66      0.733628  3 H  px         
 
 Vector   38  Occ=0.000000D+00  E= 2.229277D+00
              MO Center= -8.3D+00,  2.7D+00,  8.6D-02, r^2= 2.0D+00
   Bfn.  Coefficient  Atom+Function         Bfn.  Coefficient  Atom+Function  
  ----- ------------  ---------------      ----- ------------  ---------------
    64      1.342669  3 H  s                 70      1.342718  4 H  s          
    42     -0.780395  2 O  pz                 4     -0.766420  1 O  s          
    35     -0.766442  2 O  s                 74     -0.673670  4 H  pz         
    10     -0.605143  1 O  py                 9      0.596604  1 O  px         
    68      0.488512  3 H  pz                13      0.432192  1 O  py         
 
 Vector   39  Occ=0.000000D+00  E= 2.386361D+00
              MO Center= -8.3D+00,  2.6D+00,  4.0D-02, r^2= 1.8D+00
   Bfn.  Coefficient  Atom+Function         Bfn.  Coefficient  Atom+Function  
  ----- ------------  ---------------      ----- ------------  ---------------
    64      1.077388  3 H  s                 70      1.077407  4 H  s          
    11      0.865259  1 O  pz                 4     -0.764688  1 O  s          
    35     -0.764688  2 O  s                 40     -0.655721  2 O  px         
    38     -0.647223  2 O  py                41      0.601124  2 O  py         
    74     -0.571240  4 H  pz                44     -0.550944  2 O  py         
 
 Vector   40  Occ=0.000000D+00  E= 2.402504D+00
              MO Center= -8.3D+00,  2.6D+00,  4.6D-02, r^2= 1.9D+00
   Bfn.  Coefficient  Atom+Function         Bfn.  Coefficient  Atom+Function  
  ----- ------------  ---------------      ----- ------------  ---------------
    64      0.876035  3 H  s                 70     -0.875983  4 H  s          
    45      0.744437  2 O  pz                74      0.681281  4 H  pz         
    66      0.623204  3 H  px                 4     -0.585021  1 O  s          
     6      0.584708  1 O  px                35      0.584960  2 O  s          
    12      0.578427  1 O  px                14      0.538906  1 O  pz         
 
 Vector   41  Occ=0.000000D+00  E= 2.429964D+00
              MO Center= -8.3D+00,  2.6D+00,  5.4D-02, r^2= 1.4D+00
   Bfn.  Coefficient  Atom+Function         Bfn.  Coefficient  Atom+Function  
  ----- ------------  ---------------      ----- ------------  ---------------
     4      1.083287  1 O  s                 35      1.083305  2 O  s          
    64     -0.737520  3 H  s                 70     -0.737527  4 H  s          
    41      0.706486  2 O  py                39      0.667872  2 O  pz         
     8     -0.606806  1 O  pz                 3     -0.573755  1 O  s          
    34     -0.573761  2 O  s                 11      0.558114  1 O  pz         
 
 Vector   42  Occ=0.000000D+00  E= 2.567505D+00
              MO Center= -8.3D+00,  2.6D+00,  5.7D-02, r^2= 1.8D+00
   Bfn.  Coefficient  Atom+Function         Bfn.  Coefficient  Atom+Function  
  ----- ------------  ---------------      ----- ------------  ---------------
    64     -1.440756  3 H  s                 70     -1.442121  4 H  s          
     5      1.366146  1 O  s                 36      1.368615  2 O  s          
    66     -0.946707  3 H  px                 3      0.849254  1 O  s          
    34      0.850162  2 O  s                  4     -0.700312  1 O  s          
    35     -0.701287  2 O  s                 74      0.678907  4 H  pz         
 
 Vector   43  Occ=0.000000D+00  E= 2.568459D+00
              MO Center= -8.5D+00,  2.8D+00,  1.7D-01, r^2= 1.5D+00
   Bfn.  Coefficient  Atom+Function         Bfn.  Coefficient  Atom+Function  
  ----- ------------  ---------------      ----- ------------  ---------------
     5      1.941118  1 O  s                 36     -1.939331  2 O  s          
    64     -1.058410  3 H  s                 70      1.056559  4 H  s          
    40     -1.023621  2 O  px                10     -0.788757  1 O  py         
     4     -0.783617  1 O  s                 35      0.782665  2 O  s          
     3      0.722782  1 O  s                 34     -0.721656  2 O  s          
 
 Vector   44  Occ=0.000000D+00  E= 2.675558D+00
              MO Center= -8.1D+00,  2.4D+00, -1.0D-01, r^2= 1.5D+00
   Bfn.  Coefficient  Atom+Function         Bfn.  Coefficient  Atom+Function  
  ----- ------------  ---------------      ----- ------------  ---------------
     5      2.658002  1 O  s                 36     -2.657971  2 O  s          
     4     -2.088248  1 O  s                 35      2.088192  2 O  s          
     3      1.355406  1 O  s                 34     -1.355373  2 O  s          
    41     -0.972523  2 O  py                 9     -0.741420  1 O  px         
    11      0.639375  1 O  pz                13     -0.588785  1 O  py         
 
 Vector   45  Occ=0.000000D+00  E= 2.717759D+00
              MO Center= -8.3D+00,  2.7D+00,  7.9D-02, r^2= 1.7D+00
   Bfn.  Coefficient  Atom+Function         Bfn.  Coefficient  Atom+Function  
  ----- ------------  ---------------      ----- ------------  ---------------
     4      2.413728  1 O  s                 35      2.413807  2 O  s          
     3     -1.575148  1 O  s                 34     -1.575200  2 O  s          
     5     -1.500260  1 O  s                 36     -1.500359  2 O  s          
    40     -0.695430  2 O  px                 9      0.512641  1 O  px         
    10      0.491466  1 O  py                37      0.443906  2 O  px         
 
 Vector   46  Occ=0.000000D+00  E= 3.566223D+00
              MO Center= -8.4D+00,  2.8D+00,  1.2D-01, r^2= 1.7D+00
   Bfn.  Coefficient  Atom+Function         Bfn.  Coefficient  Atom+Function  
  ----- ------------  ---------------      ----- ------------  ---------------
     4      2.929942  1 O  s                 35     -2.929900  2 O  s          
     9     -1.684647  1 O  px                64     -1.508519  3 H  s          
    70      1.508496  4 H  s                  3     -1.427225  1 O  s          
    34      1.427210  2 O  s                 42     -1.332560  2 O  pz         
    66     -1.167947  3 H  px                41     -1.100277  2 O  py         
 
 Vector   47  Occ=0.000000D+00  E= 3.612278D+00
              MO Center= -8.4D+00,  2.7D+00,  1.1D-01, r^2= 1.6D+00
   Bfn.  Coefficient  Atom+Function         Bfn.  Coefficient  Atom+Function  
  ----- ------------  ---------------      ----- ------------  ---------------
     4      2.531105  1 O  s                 35      2.531127  2 O  s          
     9     -1.710932  1 O  px                42      1.487401  2 O  pz         
    64     -1.313749  3 H  s                 70     -1.313766  4 H  s          
     3     -1.150292  1 O  s                 34     -1.150302  2 O  s          
    66     -1.112719  3 H  px                74      0.970908  4 H  pz         
 
 Vector   48  Occ=0.000000D+00  E= 3.847540D+00
              MO Center= -8.3D+00,  2.6D+00,  2.4D-02, r^2= 9.4D-01
   Bfn.  Coefficient  Atom+Function         Bfn.  Coefficient  Atom+Function  
  ----- ------------  ---------------      ----- ------------  ---------------
    42      1.616876  2 O  pz                 4      1.463671  1 O  s          
    35     -1.463695  2 O  s                 11      1.444576  1 O  pz         
    10     -1.146422  1 O  py                 3     -1.101575  1 O  s          
    34      1.101586  2 O  s                 41     -0.843543  2 O  py         
    52      0.787424  2 O  d -1              21     -0.594280  1 O  d -1       
 
 Vector   49  Occ=0.000000D+00  E= 4.660061D+00
              MO Center= -8.2D+00,  2.6D+00,  2.2D-02, r^2= 1.0D+00
   Bfn.  Coefficient  Atom+Function         Bfn.  Coefficient  Atom+Function  
  ----- ------------  ---------------      ----- ------------  ---------------
    26      0.333039  1 O  f -2              30      0.333254  1 O  f  2       
    28      0.329926  1 O  f  0              57      0.302933  2 O  f -2       
    59      0.299755  2 O  f  0              61      0.296530  2 O  f  2       
    60      0.292279  2 O  f  1              25     -0.275222  1 O  f -3       
     9      0.269929  1 O  px                56     -0.269010  2 O  f -3       
 
 Vector   50  Occ=0.000000D+00  E= 4.720285D+00
              MO Center= -8.3D+00,  2.6D+00,  2.3D-02, r^2= 9.6D-01
   Bfn.  Coefficient  Atom+Function         Bfn.  Coefficient  Atom+Function  
  ----- ------------  ---------------      ----- ------------  ---------------
    27      0.477612  1 O  f -1              58     -0.392659  2 O  f -1       
    57      0.356145  2 O  f -2              61     -0.343452  2 O  f  2       
    31      0.280522  1 O  f  3              30      0.263468  1 O  f  2       
     5     -0.241483  1 O  s                 36     -0.241486  2 O  s          
    26     -0.230103  1 O  f -2              62     -0.195073  2 O  f  3       
 
 Vector   51  Occ=0.000000D+00  E= 4.743204D+00
              MO Center= -8.2D+00,  2.6D+00,  2.2D-02, r^2= 1.1D+00
   Bfn.  Coefficient  Atom+Function         Bfn.  Coefficient  Atom+Function  
  ----- ------------  ---------------      ----- ------------  ---------------
     4      0.508611  1 O  s                 35     -0.508618  2 O  s          
    26     -0.489248  1 O  f -2              62      0.442991  2 O  f  3       
     9     -0.411875  1 O  px                59      0.381698  2 O  f  0       
    27     -0.341968  1 O  f -1              28      0.300295  1 O  f  0       
    41     -0.275219  2 O  py                42     -0.270016  2 O  pz         
 
 Vector   52  Occ=0.000000D+00  E= 4.842424D+00
              MO Center= -8.2D+00,  2.6D+00,  1.4D-02, r^2= 1.0D+00
   Bfn.  Coefficient  Atom+Function         Bfn.  Coefficient  Atom+Function  
  ----- ------------  ---------------      ----- ------------  ---------------
    29      0.526035  1 O  f  1              56     -0.465831  2 O  f -3       
    60     -0.416595  2 O  f  1              25      0.287519  1 O  f -3       
    28     -0.231105  1 O  f  0              62     -0.216898  2 O  f  3       
    31      0.210810  1 O  f  3              61      0.147476  2 O  f  2       
    27     -0.137189  1 O  f -1              57     -0.115717  2 O  f -2       
 
 Vector   53  Occ=0.000000D+00  E= 4.945017D+00
              MO Center= -8.3D+00,  2.6D+00,  3.4D-02, r^2= 1.1D+00
   Bfn.  Coefficient  Atom+Function         Bfn.  Coefficient  Atom+Function  
  ----- ------------  ---------------      ----- ------------  ---------------
    31      0.531434  1 O  f  3              56      0.460616  2 O  f -3       
    59      0.389736  2 O  f  0              28     -0.331828  1 O  f  0       
    62     -0.269413  2 O  f  3              27     -0.257239  1 O  f -1       
    42      0.225419  2 O  pz                11      0.214630  1 O  pz         
    73      0.168763  4 H  py                58      0.161236  2 O  f -1       
 
 Vector   54  Occ=0.000000D+00  E= 5.188179D+00
              MO Center= -8.3D+00,  2.6D+00,  3.3D-02, r^2= 1.0D+00
   Bfn.  Coefficient  Atom+Function         Bfn.  Coefficient  Atom+Function  
  ----- ------------  ---------------      ----- ------------  ---------------
    25      0.604468  1 O  f -3              56      0.432900  2 O  f -3       
    62      0.332772  2 O  f  3              30      0.302175  1 O  f  2       
    61      0.294303  2 O  f  2              59     -0.254575  2 O  f  0       
    67     -0.211709  3 H  py                57      0.206230  2 O  f -2       
    72     -0.193859  4 H  px                15     -0.161970  1 O  d -2       
 
 Vector   55  Occ=0.000000D+00  E= 5.251469D+00
              MO Center= -8.3D+00,  2.6D+00,  3.9D-02, r^2= 1.1D+00
   Bfn.  Coefficient  Atom+Function         Bfn.  Coefficient  Atom+Function  
  ----- ------------  ---------------      ----- ------------  ---------------
    56      0.414671  2 O  f -3              61      0.413266  2 O  f  2       
    29      0.384386  1 O  f  1              30     -0.373640  1 O  f  2       
    25     -0.361597  1 O  f -3              60     -0.297168  2 O  f  1       
    57      0.221996  2 O  f -2              27      0.214172  1 O  f -1       
    68      0.208521  3 H  pz                72     -0.205132  4 H  px         
 
 Vector   56  Occ=0.000000D+00  E= 5.259003D+00
              MO Center= -8.3D+00,  2.6D+00,  2.4D-02, r^2= 1.0D+00
   Bfn.  Coefficient  Atom+Function         Bfn.  Coefficient  Atom+Function  
  ----- ------------  ---------------      ----- ------------  ---------------
    29      0.580668  1 O  f  1              60      0.568036  2 O  f  1       
    30     -0.254885  1 O  f  2              62      0.255163  2 O  f  3       
    61     -0.252010  2 O  f  2              58      0.239445  2 O  f -1       
    27      0.228896  1 O  f -1              26     -0.214113  1 O  f -2       
    68      0.177188  3 H  pz                72      0.150891  4 H  px         
 
 Vector   57  Occ=0.000000D+00  E= 5.282477D+00
              MO Center= -8.3D+00,  2.6D+00,  3.7D-02, r^2= 9.8D-01
   Bfn.  Coefficient  Atom+Function         Bfn.  Coefficient  Atom+Function  
  ----- ------------  ---------------      ----- ------------  ---------------
    62      0.545841  2 O  f  3              31      0.418510  1 O  f  3       
    28     -0.388077  1 O  f  0              25     -0.365876  1 O  f -3       
    59     -0.287781  2 O  f  0              58     -0.255867  2 O  f -1       
     9     -0.232128  1 O  px                74      0.208643  4 H  pz         
    60     -0.190617  2 O  f  1              67      0.172658  3 H  py         
 
 Vector   58  Occ=0.000000D+00  E= 5.566277D+00
              MO Center= -8.2D+00,  2.6D+00,  1.3D-02, r^2= 9.7D-01
   Bfn.  Coefficient  Atom+Function         Bfn.  Coefficient  Atom+Function  
  ----- ------------  ---------------      ----- ------------  ---------------
    59      0.574892  2 O  f  0               4      0.546110  1 O  s          
    35      0.546141  2 O  s                 26      0.512730  1 O  f -2       
     9     -0.474123  1 O  px                42      0.424856  2 O  pz         
    64     -0.387638  3 H  s                 70     -0.387661  4 H  s          
    27      0.385193  1 O  f -1              66     -0.340709  3 H  px         
 
 Vector   59  Occ=0.000000D+00  E= 5.592579D+00
              MO Center= -8.2D+00,  2.6D+00,  2.3D-02, r^2= 8.8D-01
   Bfn.  Coefficient  Atom+Function         Bfn.  Coefficient  Atom+Function  
  ----- ------------  ---------------      ----- ------------  ---------------
    42      0.417549  2 O  pz                28     -0.395915  1 O  f  0       
    57      0.397322  2 O  f -2               9      0.374584  1 O  px         
    59      0.332684  2 O  f  0               4     -0.309895  1 O  s          
    35      0.309848  2 O  s                 19     -0.283944  1 O  d  2       
    29     -0.275876  1 O  f  1              49     -0.271994  2 O  d  1       
 
 Vector   60  Occ=0.000000D+00  E= 5.851244D+00
              MO Center= -8.3D+00,  2.6D+00,  5.1D-02, r^2= 1.0D+00
   Bfn.  Coefficient  Atom+Function         Bfn.  Coefficient  Atom+Function  
  ----- ------------  ---------------      ----- ------------  ---------------
     4      0.674604  1 O  s                 35     -0.674597  2 O  s          
    42     -0.677418  2 O  pz                 9     -0.648153  1 O  px         
    47     -0.537474  2 O  d -1              66     -0.498352  3 H  px         
    63     -0.470987  3 H  s                 69      0.470984  4 H  s          
    74     -0.454371  4 H  pz                11     -0.382953  1 O  pz         
 
 Vector   61  Occ=0.000000D+00  E= 5.950365D+00
              MO Center= -8.3D+00,  2.7D+00,  7.0D-02, r^2= 1.0D+00
   Bfn.  Coefficient  Atom+Function         Bfn.  Coefficient  Atom+Function  
  ----- ------------  ---------------      ----- ------------  ---------------
     4      0.971001  1 O  s                 35      0.971004  2 O  s          
     9     -0.731130  1 O  px                42      0.638577  2 O  pz         
    66     -0.538966  3 H  px                74      0.501004  4 H  pz         
    63     -0.493032  3 H  s                 69     -0.493032  4 H  s          
    64     -0.445296  3 H  s                 70     -0.445298  4 H  s          
 
 Vector   62  Occ=0.000000D+00  E= 6.098059D+00
              MO Center= -8.2D+00,  2.6D+00,  2.2D-02, r^2= 8.9D-01
   Bfn.  Coefficient  Atom+Function         Bfn.  Coefficient  Atom+Function  
  ----- ------------  ---------------      ----- ------------  ---------------
     5      1.252358  1 O  s                 36     -1.252355  2 O  s          
     4     -0.967919  1 O  s                 35      0.967915  2 O  s          
    16      0.696016  1 O  d -1              48      0.571642  2 O  d  0       
     3      0.434176  1 O  s                 34     -0.434176  2 O  s          
    44     -0.429315  2 O  py                14      0.389911  1 O  pz         
 
 Vector   63  Occ=0.000000D+00  E= 6.115979D+00
              MO Center= -8.2D+00,  2.6D+00,  2.0D-02, r^2= 8.9D-01
   Bfn.  Coefficient  Atom+Function         Bfn.  Coefficient  Atom+Function  
  ----- ------------  ---------------      ----- ------------  ---------------
    50      0.617151  2 O  d  2              19     -0.503319  1 O  d  2       
    18     -0.490409  1 O  d  1              17     -0.369224  1 O  d  0       
    49      0.324398  2 O  d  1              55     -0.309056  2 O  d  2       
    48      0.301541  2 O  d  0              23      0.273076  1 O  d  1       
    46      0.257002  2 O  d -2              24      0.224703  1 O  d  2       
 
 Vector   64  Occ=0.000000D+00  E= 6.170291D+00
              MO Center= -8.2D+00,  2.6D+00,  4.5D-03, r^2= 9.1D-01
   Bfn.  Coefficient  Atom+Function         Bfn.  Coefficient  Atom+Function  
  ----- ------------  ---------------      ----- ------------  ---------------
    15      0.661711  1 O  d -2              49     -0.512963  2 O  d  1       
    20     -0.377058  1 O  d -2              54      0.369154  2 O  d  1       
    47     -0.361963  2 O  d -1              50      0.319518  2 O  d  2       
    17      0.317531  1 O  d  0              64      0.289831  3 H  s          
    70      0.289831  4 H  s                 46      0.286830  2 O  d -2       
 
 Vector   65  Occ=0.000000D+00  E= 6.195521D+00
              MO Center= -8.2D+00,  2.6D+00,  1.5D-02, r^2= 9.0D-01
   Bfn.  Coefficient  Atom+Function         Bfn.  Coefficient  Atom+Function  
  ----- ------------  ---------------      ----- ------------  ---------------
    46      0.600870  2 O  d -2              17      0.567809  1 O  d  0       
     5      0.470412  1 O  s                 36     -0.470412  2 O  s          
    15     -0.422274  1 O  d -2              49      0.390909  2 O  d  1       
    51     -0.352219  2 O  d -2              48     -0.332085  2 O  d  0       
    18     -0.311813  1 O  d  1              22     -0.309707  1 O  d  0       
 
 Vector   66  Occ=0.000000D+00  E= 6.251256D+00
              MO Center= -8.2D+00,  2.6D+00,  2.1D-02, r^2= 9.4D-01
   Bfn.  Coefficient  Atom+Function         Bfn.  Coefficient  Atom+Function  
  ----- ------------  ---------------      ----- ------------  ---------------
    15      0.610959  1 O  d -2              18     -0.501579  1 O  d  1       
    50     -0.474601  2 O  d  2              20     -0.437241  1 O  d -2       
    46     -0.422137  2 O  d -2              49      0.422855  2 O  d  1       
    55      0.335143  2 O  d  2               4      0.313825  1 O  s          
    35     -0.313811  2 O  s                 47      0.280953  2 O  d -1       
 
 Vector   67  Occ=0.000000D+00  E= 6.514975D+00
              MO Center= -8.3D+00,  2.6D+00,  2.5D-02, r^2= 1.0D+00
   Bfn.  Coefficient  Atom+Function         Bfn.  Coefficient  Atom+Function  
  ----- ------------  ---------------      ----- ------------  ---------------
    64      0.804435  3 H  s                 70      0.804415  4 H  s          
     9      0.647512  1 O  px                42     -0.646117  2 O  pz         
    16     -0.638462  1 O  d -1              46      0.605118  2 O  d -2       
    51     -0.547339  2 O  d -2              24     -0.479050  1 O  d  2       
    74     -0.437306  4 H  pz                21      0.429317  1 O  d -1       
 
 Vector   68  Occ=0.000000D+00  E= 6.614985D+00
              MO Center= -8.2D+00,  2.6D+00,  2.0D-02, r^2= 1.1D+00
   Bfn.  Coefficient  Atom+Function         Bfn.  Coefficient  Atom+Function  
  ----- ------------  ---------------      ----- ------------  ---------------
    64      0.884792  3 H  s                 70     -0.884800  4 H  s          
    24     -0.875471  1 O  d  2               4     -0.800925  1 O  s          
    35      0.800921  2 O  s                  9      0.795479  1 O  px         
    19      0.725798  1 O  d  2              54     -0.613987  2 O  d  1       
     5     -0.610365  1 O  s                 36      0.610373  2 O  s          
 
 Vector   69  Occ=0.000000D+00  E= 6.754501D+00
              MO Center= -8.2D+00,  2.6D+00,  1.5D-02, r^2= 1.0D+00
   Bfn.  Coefficient  Atom+Function         Bfn.  Coefficient  Atom+Function  
  ----- ------------  ---------------      ----- ------------  ---------------
    17      0.604549  1 O  d  0              22     -0.577160  1 O  d  0       
    48      0.572076  2 O  d  0              53     -0.522239  2 O  d  0       
    47     -0.504523  2 O  d -1              16     -0.406441  1 O  d -1       
    52      0.394971  2 O  d -1              51      0.359835  2 O  d -2       
    46     -0.295836  2 O  d -2              19     -0.278805  1 O  d  2       
 
 Vector   70  Occ=0.000000D+00  E= 6.816306D+00
              MO Center= -8.2D+00,  2.6D+00,  2.1D-02, r^2= 1.2D+00
   Bfn.  Coefficient  Atom+Function         Bfn.  Coefficient  Atom+Function  
  ----- ------------  ---------------      ----- ------------  ---------------
     4      1.102955  1 O  s                 35     -1.102951  2 O  s          
    64     -0.940174  3 H  s                 70      0.940175  4 H  s          
     9     -0.836345  1 O  px                23     -0.741265  1 O  d  1       
    42     -0.736924  2 O  pz                66     -0.669100  3 H  px         
    52     -0.657001  2 O  d -1              53     -0.630465  2 O  d  0       
 
 Vector   71  Occ=0.000000D+00  E= 7.023858D+00
              MO Center= -8.2D+00,  2.6D+00,  2.1D-02, r^2= 1.1D+00
   Bfn.  Coefficient  Atom+Function         Bfn.  Coefficient  Atom+Function  
  ----- ------------  ---------------      ----- ------------  ---------------
     4      1.303368  1 O  s                 35      1.303373  2 O  s          
    64     -0.861814  3 H  s                 70     -0.861810  4 H  s          
     9     -0.841162  1 O  px                52      0.762284  2 O  d -1       
    42      0.689789  2 O  pz                63     -0.681180  3 H  s          
    69     -0.681174  4 H  s                 23     -0.676614  1 O  d  1       
 
 Vector   72  Occ=0.000000D+00  E= 7.714580D+00
              MO Center= -8.2D+00,  2.6D+00,  1.9D-02, r^2= 1.1D+00
   Bfn.  Coefficient  Atom+Function         Bfn.  Coefficient  Atom+Function  
  ----- ------------  ---------------      ----- ------------  ---------------
    42      1.621632  2 O  pz                 4      1.591302  1 O  s          
    35     -1.591292  2 O  s                 11      1.532701  1 O  pz         
    52      1.383327  2 O  d -1              10     -1.281999  1 O  py         
    21     -1.232849  1 O  d -1              41     -1.125684  2 O  py         
     3     -1.081567  1 O  s                 34      1.081564  2 O  s          
 
 Vector   73  Occ=0.000000D+00  E= 4.266730D+01
              MO Center= -8.2D+00,  2.6D+00,  2.0D-02, r^2= 6.6D-01
   Bfn.  Coefficient  Atom+Function         Bfn.  Coefficient  Atom+Function  
  ----- ------------  ---------------      ----- ------------  ---------------
     2      1.195354  1 O  s                 33      1.195334  2 O  s          
     4      1.090598  1 O  s                 35      1.090575  2 O  s          
     3     -1.059636  1 O  s                 34     -1.059615  2 O  s          
     1     -0.982246  1 O  s                 32     -0.982230  2 O  s          
     5     -0.468968  1 O  s                 36     -0.468958  2 O  s          
 
 Vector   74  Occ=0.000000D+00  E= 4.314223D+01
              MO Center= -8.2D+00,  2.6D+00,  1.9D-02, r^2= 6.6D-01
   Bfn.  Coefficient  Atom+Function         Bfn.  Coefficient  Atom+Function  
  ----- ------------  ---------------      ----- ------------  ---------------
     4      1.431989  1 O  s                 35     -1.432006  2 O  s          
     3     -1.254454  1 O  s                 34      1.254471  2 O  s          
     2      1.216088  1 O  s                 33     -1.216108  2 O  s          
     1     -0.985453  1 O  s                 32      0.985469  2 O  s          
     5     -0.670947  1 O  s                 36      0.670954  2 O  s          
 

 center of mass
 --------------
 x = -15.61131283 y =   4.91631985 z =   0.05853783

 moments of inertia (a.u.)
 ------------------
          70.111187149725          -8.592530652235           9.008098990154
          -8.592530652235          49.433272787345          31.249331230301
           9.008098990154          31.249331230301          32.460121011298
 
     Multipole analysis of the density
     ---------------------------------
 
     L   x y z        total         alpha         beta         nuclear
     -   - - -        -----         -----         ----         -------
     0   0 0 0     -0.000000     -9.000000     -9.000000     18.000000
 
     1   1 0 0     -0.397225    140.560322    140.560322   -281.517870
     1   0 1 0      0.480832    -44.317722    -44.317722     89.116276
     1   0 0 1      0.273573     -0.567129     -0.567129      1.407831
 
     2   2 0 0      3.651449  -2201.520833  -2201.520833   4406.693114
     2   1 1 0    -10.243266    689.981381    689.981381  -1390.206027
     2   1 0 1     -2.657918     11.213888     11.213888    -25.085695
     2   0 2 0     -4.805806   -229.992518   -229.992518    455.179229
     2   0 1 1      1.298090      5.463497      5.463497     -9.628905
     2   0 0 2     -6.389091    -16.404890    -16.404890     26.420690
 
 
            General Information
            -------------------
          SCF calculation type: DFT
          Wavefunction type:  closed shell.
          No. of atoms     :     4
          No. of electrons :    18
           Alpha electrons :     9
            Beta electrons :     9
          Charge           :     0
          Spin multiplicity:     1
          Use of symmetry is: off; symmetry adaption is: off
          Maximum number of iterations: 250
          This is a Direct SCF calculation.
          AO basis - number of functions:    74
                     number of shells:    30
          Convergence on energy requested:  1.00D-08
          Convergence on density requested:  1.00D-05
          Convergence on gradient requested:  1.00D-08
 
              XC Information
              --------------
                    Becke 1988 Exchange Functional  1.000          
              Lee-Yang-Parr Correlation Functional  1.000          
 
             Grid Information
             ----------------
          Grid used for XC integration:  xfine     
          Radial quadrature: Mura-Knowles        
          Angular quadrature: Lebedev. 
          Tag              B.-S. Rad. Rad. Pts. Rad. Cut. Ang. Pts.
          ---              ---------- --------- --------- ---------
          O                   0.60      100           8.0      1454
          H                   0.35      100           9.0      1202
          Grid pruning is: on 
          Number of quadrature shells:   400
          Spatial weights used:  Erf1
 
          Convergence Information
          -----------------------
          Convergence aids based upon iterative change in 
          total energy or number of iterations. 
          Levelshifting, if invoked, occurs when the 
          HOMO/LUMO gap drops below (HL_TOL):  1.00D-02
          DIIS, if invoked, will attempt to extrapolate 
          using up to (NFOCK): 10 stored Fock matrices.

                    Damping( 0%)  Levelshifting(0.0)       DIIS
                  --------------- ------------------- ---------------
          dE  on:    start             N/A                start   
          dE off:    2 iters           N/A              250 iters 

 
      Screening Tolerance Information
      -------------------------------
          Density screening/tol_rho:  1.00D-11
          AO Gaussian exp screening on grid/accAOfunc:  18
          CD Gaussian exp screening on grid/accCDfunc:  20
          XC Gaussian exp screening on grid/accXCfunc:  20
          Schwarz screening/accCoul:  1.00D-09

 
 
                            NWChem DFT Gradient Module
                            --------------------------
 
 
                         h2o2 roa calculations at 514.5 nm, input generated by va with delta_type=2
 
 

  charge          =   0.00
  wavefunction    = closed shell



                         DFT ENERGY GRADIENTS

    atom               coordinates                        gradient
                 x          y          z           x          y          z
   1 O     -15.219808   5.762290  -0.999450   -0.000001   0.000000  -0.000001
   2 O     -15.937482   3.991256   1.071529   -0.000000  -0.000000  -0.000000
   3 H     -16.900075   6.107642  -1.693746    0.000001  -0.000000   0.000001
   4 H     -15.359476   4.980261   2.524938   -0.000000   0.000000   0.000001
 
                 ----------------------------------------
                 |  Time  |  1-e(secs)   |  2-e(secs)   |
                 ----------------------------------------
                 |  CPU   |       0.01   |       2.22   |
                 ----------------------------------------
                 |  WALL  |       0.01   |       2.25   |
                 ----------------------------------------

 Task  times  cpu:       34.9s     wall:       36.2s
 
 
                                NWChem Input Module
                                -------------------
 
 
                              NWChem Property Module
                              ----------------------
 
 
                         h2o2 roa calculations at 514.5 nm, input generated by va with delta_type=2
 
 
                                 NWChem DFT Module
                                 -----------------
 
 
                         h2o2 roa calculations at 514.5 nm, input generated by va with delta_type=2
 
 


 Summary of "ao basis" -> "ao basis" (spherical)
 ------------------------------------------------------------------------------
       Tag                 Description            Shells   Functions and Types
 ---------------- ------------------------------  ------  ---------------------
 O                         def2-TZVP                11       31   5s3p2d1f
 H                         def2-TZVP                 4        6   3s1p


  Caching 1-el integrals 
 
            General Information
            -------------------
          SCF calculation type: DFT
          Wavefunction type:  closed shell.
          No. of atoms     :     4
          No. of electrons :    18
           Alpha electrons :     9
            Beta electrons :     9
          Charge           :     0
          Spin multiplicity:     1
          Use of symmetry is: off; symmetry adaption is: off
          Maximum number of iterations: 250
          This is a Direct SCF calculation.
          AO basis - number of functions:    74
                     number of shells:    30
          Convergence on energy requested:  1.00D-08
          Convergence on density requested:  1.00D-05
          Convergence on gradient requested:  1.00D-08
 
              XC Information
              --------------
                    Becke 1988 Exchange Functional  1.000          
              Lee-Yang-Parr Correlation Functional  1.000          
 
             Grid Information
             ----------------
          Grid used for XC integration:  xfine     
          Radial quadrature: Mura-Knowles        
          Angular quadrature: Lebedev. 
          Tag              B.-S. Rad. Rad. Pts. Rad. Cut. Ang. Pts.
          ---              ---------- --------- --------- ---------
          O                   0.60      100           8.0      1454
          H                   0.35      100           9.0      1202
          Grid pruning is: on 
          Number of quadrature shells:   400
          Spatial weights used:  Erf1
 
          Convergence Information
          -----------------------
          Convergence aids based upon iterative change in 
          total energy or number of iterations. 
          Levelshifting, if invoked, occurs when the 
          HOMO/LUMO gap drops below (HL_TOL):  1.00D-02
          DIIS, if invoked, will attempt to extrapolate 
          using up to (NFOCK): 10 stored Fock matrices.

                    Damping( 0%)  Levelshifting(0.0)       DIIS
                  --------------- ------------------- ---------------
          dE  on:    start             N/A                start   
          dE off:    2 iters           N/A              250 iters 

 
      Screening Tolerance Information
      -------------------------------
          Density screening/tol_rho:  1.00D-11
          AO Gaussian exp screening on grid/accAOfunc:  18
          CD Gaussian exp screening on grid/accCDfunc:  20
          XC Gaussian exp screening on grid/accXCfunc:  20
          Schwarz screening/accCoul:  1.00D-09


 Loading old vectors from job with title :

h2o2 roa calculations at 514.5 nm, input generated by va with delta_type=2

   Time after variat. SCF:     36.8
   Time prior to 1st pass:     36.8

 Grid_pts file          = ./h2o2_514.5_00.inp.gridpts.0
 Record size in doubles =  12289        No. of grid_pts per rec  =   3070
 Max. records in memory =    210        Max. recs in file   =   3881632


           Memory utilization after 1st SCF pass: 
           Heap Space remaining (MW):       10.52            10522928
          Stack Space remaining (MW):       13.11            13106668

   convergence    iter        energy       DeltaE   RMS-Dens  Diis-err    time
 ---------------- ----- ----------------- --------- --------- ---------  ------
 d= 0,ls=0.0,diis     1   -151.6011534573 -1.88D+02  6.76D-07  1.44D-09    40.5
 d= 0,ls=0.0,diis     2   -151.6011534562  1.09D-09  5.11D-07  1.39D-08    43.9
 d= 0,ls=0.0,diis     3   -151.6011534574 -1.22D-09  1.02D-08  1.77D-12    47.4


         Total DFT energy =     -151.601153457439
      One electron energy =     -279.865526132377
           Coulomb energy =      110.073719978468
    Exchange-Corr. energy =      -17.811896404016
 Nuclear repulsion energy =       36.002549100486

 Numeric. integr. density =       17.999999997730

     Total iterative time =     10.6s


 
                       DFT Final Molecular Orbital Analysis
                       ------------------------------------
 
 Vector    1  Occ=2.000000D+00  E=-1.883191D+01
              MO Center= -8.2D+00,  2.6D+00,  2.4D-02, r^2= 5.7D-01
   Bfn.  Coefficient  Atom+Function         Bfn.  Coefficient  Atom+Function  
  ----- ------------  ---------------      ----- ------------  ---------------
    33     -0.453427  2 O  s                  2      0.449736  1 O  s          
    32     -0.309137  2 O  s                  1      0.306622  1 O  s          
    34     -0.027354  2 O  s                  3      0.027147  1 O  s          
 
 Vector    2  Occ=2.000000D+00  E=-1.883188D+01
              MO Center= -8.2D+00,  2.6D+00,  1.5D-02, r^2= 5.7D-01
   Bfn.  Coefficient  Atom+Function         Bfn.  Coefficient  Atom+Function  
  ----- ------------  ---------------      ----- ------------  ---------------
     2      0.453599  1 O  s                 33      0.449909  2 O  s          
     1      0.309115  1 O  s                 32      0.306600  2 O  s          
     3      0.025409  1 O  s                 34      0.025186  2 O  s          
 
 Vector    3  Occ=2.000000D+00  E=-1.007998D+00
              MO Center= -8.3D+00,  2.6D+00,  5.3D-02, r^2= 8.2D-01
   Bfn.  Coefficient  Atom+Function         Bfn.  Coefficient  Atom+Function  
  ----- ------------  ---------------      ----- ------------  ---------------
     4      0.312641  1 O  s                 35      0.312641  2 O  s          
     3      0.239251  1 O  s                 34      0.239251  2 O  s          
     2     -0.163023  1 O  s                 33     -0.163023  2 O  s          
     5      0.096819  1 O  s                 36      0.096819  2 O  s          
    38      0.071610  2 O  py                 1     -0.070041  1 O  s          
 
 Vector    4  Occ=2.000000D+00  E=-8.191906D-01
              MO Center= -8.3D+00,  2.7D+00,  7.2D-02, r^2= 1.3D+00
   Bfn.  Coefficient  Atom+Function         Bfn.  Coefficient  Atom+Function  
  ----- ------------  ---------------      ----- ------------  ---------------
     4      0.326836  1 O  s                 35     -0.326837  2 O  s          
     3      0.254064  1 O  s                 34     -0.254064  2 O  s          
     2     -0.167230  1 O  s                 33      0.167231  2 O  s          
     5      0.140928  1 O  s                 36     -0.140928  2 O  s          
    63      0.090911  3 H  s                 69     -0.090911  4 H  s          
 
 Vector    5  Occ=2.000000D+00  E=-4.736004D-01
              MO Center= -8.3D+00,  2.7D+00,  6.0D-02, r^2= 1.3D+00
   Bfn.  Coefficient  Atom+Function         Bfn.  Coefficient  Atom+Function  
  ----- ------------  ---------------      ----- ------------  ---------------
    39      0.310319  2 O  pz                42      0.242813  2 O  pz         
     7      0.208498  1 O  py                 8     -0.199738  1 O  pz         
    10      0.167763  1 O  py                11     -0.157891  1 O  pz         
    64      0.130665  3 H  s                 70      0.130664  4 H  s          
     6     -0.121174  1 O  px                45      0.111018  2 O  pz         
 
 Vector    6  Occ=2.000000D+00  E=-4.330899D-01
              MO Center= -8.3D+00,  2.6D+00,  3.6D-02, r^2= 1.3D+00
   Bfn.  Coefficient  Atom+Function         Bfn.  Coefficient  Atom+Function  
  ----- ------------  ---------------      ----- ------------  ---------------
     6      0.253994  1 O  px                 9      0.189375  1 O  px         
    37      0.177090  2 O  px                39      0.154883  2 O  pz         
     4      0.153965  1 O  s                  5      0.154080  1 O  s          
    35     -0.153966  2 O  s                 36     -0.154080  2 O  s          
    38      0.151555  2 O  py                40      0.136918  2 O  px         
 
 Vector    7  Occ=2.000000D+00  E=-3.654605D-01
              MO Center= -8.2D+00,  2.5D+00, -2.0D-02, r^2= 1.3D+00
   Bfn.  Coefficient  Atom+Function         Bfn.  Coefficient  Atom+Function  
  ----- ------------  ---------------      ----- ------------  ---------------
    38      0.318795  2 O  py                41      0.249337  2 O  py         
     6     -0.238653  1 O  px                 8      0.215599  1 O  pz         
     9     -0.182661  1 O  px                11      0.174411  1 O  pz         
    44      0.165346  2 O  py                 5     -0.131435  1 O  s          
    36     -0.131434  2 O  s                 14      0.119495  1 O  pz         
 
 Vector    8  Occ=2.000000D+00  E=-2.755712D-01
              MO Center= -8.3D+00,  2.6D+00,  5.4D-02, r^2= 1.3D+00
   Bfn.  Coefficient  Atom+Function         Bfn.  Coefficient  Atom+Function  
  ----- ------------  ---------------      ----- ------------  ---------------
    37      0.344301  2 O  px                 7     -0.269370  1 O  py         
    40      0.267955  2 O  px                10     -0.215756  1 O  py         
    43      0.214504  2 O  px                13     -0.171769  1 O  py         
     8     -0.159401  1 O  pz                 6     -0.149431  1 O  px         
     5     -0.121714  1 O  s                 36     -0.121713  2 O  s          
 
 Vector    9  Occ=2.000000D+00  E=-2.307591D-01
              MO Center= -8.2D+00,  2.6D+00,  7.1D-03, r^2= 1.2D+00
   Bfn.  Coefficient  Atom+Function         Bfn.  Coefficient  Atom+Function  
  ----- ------------  ---------------      ----- ------------  ---------------
    37      0.282149  2 O  px                 7      0.274889  1 O  py         
    40      0.222699  2 O  px                38     -0.216765  2 O  py         
    10      0.214573  1 O  py                43      0.205507  2 O  px         
     8      0.203593  1 O  pz                13      0.189636  1 O  py         
    41     -0.165761  2 O  py                11      0.160551  1 O  pz         
 
 Vector   10  Occ=0.000000D+00  E=-6.024241D-02
              MO Center= -8.3D+00,  2.6D+00,  5.0D-02, r^2= 1.8D+00
   Bfn.  Coefficient  Atom+Function         Bfn.  Coefficient  Atom+Function  
  ----- ------------  ---------------      ----- ------------  ---------------
     5      0.499466  1 O  s                 36     -0.499464  2 O  s          
    44     -0.326270  2 O  py                14      0.298141  1 O  pz         
    65     -0.292103  3 H  s                 71      0.292101  4 H  s          
    13     -0.284888  1 O  py                45      0.274600  2 O  pz         
[...]
    64      0.804426  3 H  s                 70      0.804425  4 H  s          
     9      0.647502  1 O  px                42     -0.646123  2 O  pz         
    16     -0.638463  1 O  d -1              46      0.605117  2 O  d -2       
    51     -0.547341  2 O  d -2              24     -0.479042  1 O  d  2       
    74     -0.437311  4 H  pz                21      0.429316  1 O  d -1       
 
 Vector   68  Occ=0.000000D+00  E= 6.614984D+00
              MO Center= -8.2D+00,  2.6D+00,  2.0D-02, r^2= 1.1D+00
   Bfn.  Coefficient  Atom+Function         Bfn.  Coefficient  Atom+Function  
  ----- ------------  ---------------      ----- ------------  ---------------
    64      0.884797  3 H  s                 70     -0.884796  4 H  s          
    24     -0.875474  1 O  d  2               4     -0.800926  1 O  s          
    35      0.800921  2 O  s                  9      0.795483  1 O  px         
    19      0.725801  1 O  d  2              54     -0.613986  2 O  d  1       
     5     -0.610368  1 O  s                 36      0.610370  2 O  s          
 
 Vector   69  Occ=0.000000D+00  E= 6.754501D+00
              MO Center= -8.2D+00,  2.6D+00,  1.5D-02, r^2= 1.0D+00
   Bfn.  Coefficient  Atom+Function         Bfn.  Coefficient  Atom+Function  
  ----- ------------  ---------------      ----- ------------  ---------------
    17      0.604551  1 O  d  0              22     -0.577162  1 O  d  0       
    48      0.572075  2 O  d  0              53     -0.522240  2 O  d  0       
    47     -0.504522  2 O  d -1              16     -0.406441  1 O  d -1       
    52      0.394971  2 O  d -1              51      0.359833  2 O  d -2       
    46     -0.295834  2 O  d -2              19     -0.278806  1 O  d  2       
 
 Vector   70  Occ=0.000000D+00  E= 6.816306D+00
              MO Center= -8.2D+00,  2.6D+00,  2.1D-02, r^2= 1.2D+00
   Bfn.  Coefficient  Atom+Function         Bfn.  Coefficient  Atom+Function  
  ----- ------------  ---------------      ----- ------------  ---------------
     4      1.102948  1 O  s                 35     -1.102957  2 O  s          
    64     -0.940170  3 H  s                 70      0.940178  4 H  s          
     9     -0.836341  1 O  px                23     -0.741262  1 O  d  1       
    42     -0.736927  2 O  pz                66     -0.669097  3 H  px         
    52     -0.657005  2 O  d -1              53     -0.630466  2 O  d  0       
 
 Vector   71  Occ=0.000000D+00  E= 7.023858D+00
              MO Center= -8.2D+00,  2.6D+00,  2.1D-02, r^2= 1.1D+00
   Bfn.  Coefficient  Atom+Function         Bfn.  Coefficient  Atom+Function  
  ----- ------------  ---------------      ----- ------------  ---------------
     4      1.303378  1 O  s                 35      1.303363  2 O  s          
    64     -0.861821  3 H  s                 70     -0.861803  4 H  s          
     9     -0.841168  1 O  px                52      0.762281  2 O  d -1       
    42      0.689786  2 O  pz                63     -0.681184  3 H  s          
    69     -0.681170  4 H  s                 23     -0.676617  1 O  d  1       
 
 Vector   72  Occ=0.000000D+00  E= 7.714579D+00
              MO Center= -8.2D+00,  2.6D+00,  1.9D-02, r^2= 1.1D+00
   Bfn.  Coefficient  Atom+Function         Bfn.  Coefficient  Atom+Function  
  ----- ------------  ---------------      ----- ------------  ---------------
    42      1.621632  2 O  pz                 4      1.591301  1 O  s          
    35     -1.591294  2 O  s                 11      1.532702  1 O  pz         
    52      1.383326  2 O  d -1              10     -1.281999  1 O  py         
    21     -1.232849  1 O  d -1              41     -1.125684  2 O  py         
     3     -1.081567  1 O  s                 34      1.081564  2 O  s          
 
 Vector   73  Occ=0.000000D+00  E= 4.266730D+01
              MO Center= -8.2D+00,  2.6D+00,  2.0D-02, r^2= 6.6D-01
   Bfn.  Coefficient  Atom+Function         Bfn.  Coefficient  Atom+Function  
  ----- ------------  ---------------      ----- ------------  ---------------
     2      1.195344  1 O  s                 33      1.195344  2 O  s          
     4      1.090586  1 O  s                 35      1.090586  2 O  s          
     3     -1.059625  1 O  s                 34     -1.059625  2 O  s          
     1     -0.982238  1 O  s                 32     -0.982238  2 O  s          
     5     -0.468963  1 O  s                 36     -0.468963  2 O  s          
 
 Vector   74  Occ=0.000000D+00  E= 4.314223D+01
              MO Center= -8.2D+00,  2.6D+00,  1.9D-02, r^2= 6.6D-01
   Bfn.  Coefficient  Atom+Function         Bfn.  Coefficient  Atom+Function  
  ----- ------------  ---------------      ----- ------------  ---------------
     4      1.431998  1 O  s                 35     -1.431998  2 O  s          
     3     -1.254462  1 O  s                 34      1.254462  2 O  s          
     2      1.216098  1 O  s                 33     -1.216098  2 O  s          
     1     -0.985461  1 O  s                 32      0.985461  2 O  s          
     5     -0.670951  1 O  s                 36      0.670950  2 O  s          
 

 center of mass
 --------------
 x = -15.61131283 y =   4.91631985 z =   0.05853783

 moments of inertia (a.u.)
 ------------------
          70.111187149725          -8.592530652235           9.008098990154
          -8.592530652235          49.433272787345          31.249331230301
           9.008098990154          31.249331230301          32.460121011298
 
     Multipole analysis of the density
     ---------------------------------
 
     L   x y z        total         alpha         beta         nuclear
     -   - - -        -----         -----         ----         -------
     0   0 0 0     -0.000000     -9.000000     -9.000000     18.000000
 
     1   1 0 0     -0.397214    140.560328    140.560328   -281.517870
     1   0 1 0      0.480851    -44.317713    -44.317713     89.116276
     1   0 0 1      0.273556     -0.567137     -0.567137      1.407831
 
     2   2 0 0      3.651100  -2201.521007  -2201.521007   4406.693114
     2   1 1 0    -10.243499    689.981264    689.981264  -1390.206027
     2   1 0 1     -2.657663     11.214016     11.214016    -25.085695
     2   0 2 0     -4.805623   -229.992426   -229.992426    455.179229
     2   0 1 1      1.298011      5.463458      5.463458     -9.628905
     2   0 0 2     -6.389084    -16.404887    -16.404887     26.420690
 
 *** CALLING NEW AORESP DRIVER FOR CLOSED AND OPEN SHELLS ***
 Entering AOResponse driver routine


--------------------------------------------------------------------------------

          ****************
          *** RESPONSE ***
          ****************

 Response module for NWChem and dynamic CPKS solver
 developed by J. Autschbach and coworkers, SUNY Buffalo
 The methodology used in this program is described in 
 ChemPhysChem 12 (2011), 3224-3235 (main reference)
 J. Chem. Phys. 123 (2005), 114103
 J. Chem. Phys. 122 (2005), 224115
 J. Chem. Phys. 122 (2005), 074105
 Comp. Lett. 3 (2007), 131-150 (contact JA for a copy)
 Please cite this work in publications based on results
 obtained with this code. Thank you!

 For extension of response module to open shell
 calculations please acknowledge:
 F. Aquino, Northwestern University, Schatz Rsrch Group
 The update to the methodology is described in
 J. Phys. Chem. A 118 (2014) 517-525



          -----------------------------------------------
          Solving response equations for perturbing field
          -----------------------------------------------

 number of frequencies:     1
 frequency in a.u.:  0.8855800E-01
 Perturbing field: electric
 Using GIAO formalism for OptRot
 Adding quadrupole terms to OptRot
 to create an origin in dependent tensor.
 Using El. Dipole Length Gauge
 
 Applying DAMPING constant of  0.003700 a.u.
 
 Setting up CPKS
 with frequency omega =      0.08855800 a.u.
 and a damping of            0.00370000 a.u.

 
                            NWChem Dynamic CPHF Module
                            --------------------------
 
 
    scftype = RHF 
    nclosed =    9
      nopen =    0
  variables =     2340
  num. vecs =        3
  tolerance =   1.0D-09
  max. iter =  100

 SCF residual:   6.493255726445380E-007


Iterative solution of linear equations
  No. of variables     1170
  No. of equations        3
  Maximum subspace       99
       Convergence  1.0D-09
        Start time     50.9


   iter   nsub   residual    time 
   ----  ------  --------  --------- 
 dft_CPHF2_read: failed to open./h2o2_514.5_00.inp.aoresp_fiao_f1
     1      3    5.09D+00      78.4
     2      6    2.15D+00     106.6
     3      9    1.65D-01     134.2
     4     12    8.10D-03     161.7
     5     15    2.05D-03     189.4
     6     18    3.06D-04     216.9
     7     21    2.81D-05     244.6
     8     24    8.56D-07     272.3
     9     27    5.50D-08     299.9
    10     30    4.66D-09     327.5
    11     33    3.42D-10     355.2

 Calculating some arrays needed for GIAO optical rotation

    0 giaofock schwarz done =      98.67%
    0 giaofock schwarz done =      98.67%
 aor_r1_tensor_giao: roadata output requested
 dip-quad polarizability Re:

              1        2        3        4        5        6      
    1 -336.7699  44.1928  -8.1870   6.2975   4.0856   0.1352
    2  -22.5308-186.4641  54.9842 119.2233 -15.3137   3.5642
    3  -13.2384  56.0617-251.5089 -35.2318  82.1382   8.3927
 traceless dip-quad polarizability:

              1        2        3      
    1 -339.9863  66.2893 -12.2804
    2   66.2893 174.6149   6.1284
    3  -12.2804   6.1284 165.3714

              1        2        3      
    1  -83.9246-279.6962  82.4763
    2 -279.6962 128.7066 -22.9706
    3   82.4763 -22.9706 -44.7820

              1        2        3      
    1    0.1811  84.0925-377.2634
    2   84.0925 -32.8089 123.2073
    3 -377.2634 123.2073  32.6277

 roa begin

 alpha real:
 XX       0.1068507487003E+02
 XY       0.7358683447315E+00
 XZ       0.3638871428191E+00
 YX       0.7358683447489E+00
 YY       0.1208099189883E+02
 YZ      -0.3391503544895E+01
 ZX       0.3638871428482E+00
 ZY      -0.3391503544961E+01
 ZZ       0.1603353568763E+02

 alpha im:
 XX       0.2243863740071E-01
 XY       0.2363791939749E-02
 XZ      -0.1823192958262E-02
 YX       0.2363792038993E-02
 YY       0.3039347893561E-01
 YZ      -0.1337322087709E-01
 ZX      -0.1823192939449E-02
 ZY      -0.1337322067613E-01
 ZZ       0.4169252114838E-01

 beta real:
 XX      -0.6303478023769E-01
 XY      -0.1683780733227E+00
 XZ       0.2968291519152E+01
 YX       0.7814513517805E+00
 YY       0.2189131310262E+01
 YZ       0.8424299137084E+01
 ZX      -0.3191259227915E+01
 ZY      -0.1102627728097E+02
 ZZ      -0.2130647660106E+01

 G-prime = -omega beta(real):
 XX      -0.6303478023769E-01
 XY      -0.1683780733227E+00
 XZ       0.2968291519152E+01
 YX       0.7814513517805E+00
 YY       0.2189131310262E+01
 YZ       0.8424299137084E+01
 ZX      -0.3191259227915E+01
 ZY      -0.1102627728097E+02
 ZZ      -0.2130647660106E+01

 beta im:
 XX      -0.7708686417042E-03
 XY       0.8073965872814E-03
 XZ       0.5757690398342E-01
 YX       0.3461980960664E-01
 YY       0.9480858833597E-01
 YZ       0.1318896820423E+00
 ZX      -0.6125553742847E-01
 ZY      -0.2320322954277E+00
 ZZ      -0.9646667931755E-01

 G-prime = -omega beta(imag):
 XX      -0.7708686417042E-03
 XY       0.8073965872814E-03
 XZ       0.5757690398342E-01
 YX       0.3461980960664E-01
 YY       0.9480858833597E-01
 YZ       0.1318896820423E+00
 ZX      -0.6125553742847E-01
 ZY      -0.2320322954277E+00
 ZZ      -0.9646667931755E-01

 dipole-quadrupole real (Cartesian):
 XXX     -0.3367699481124E+03
 XXY      0.4419284374229E+02
 XXZ     -0.8186959099052E+01
 XYY      0.6297466247794E+01
 XYZ      0.4085591101869E+01
 XZZ      0.1351531607536E+00
 YXX     -0.2253083119636E+02
 YXY     -0.1864641304796E+03
 YXZ      0.5498417546549E+02
 YYY      0.1192233051970E+03
 YYZ     -0.1531373806864E+02
 YZZ      0.3564229047518E+01
 ZXX     -0.1323840215898E+02
 ZXY      0.5606165222990E+02
 ZXZ     -0.2515089229481E+03
 ZYY     -0.3523175368324E+02
 ZYZ      0.8213817408708E+02
 ZZZ      0.8392667172016E+01

 dipole-quadrupole imag (Cartesian):
 XXX     -0.7114048666906E+00
 XXY      0.8414085631208E-01
 XXZ      0.2217055689374E-01
 XYY      0.2075930816608E-01
 XYZ     -0.4484008013598E-02
 XZZ     -0.3154952823832E-02
 YXX     -0.7115007648539E-01
 YXY     -0.4721677892178E+00
 YXZ      0.2187708390517E+00
 YYY      0.3082377349209E+00
 YYZ     -0.6384688604115E-01
 YZZ      0.6045797343741E-02
 ZXX      0.5262424748584E-01
 ZXY      0.2053544695595E+00
 ZXZ     -0.6604612598691E+00
 ZYY     -0.1438801281665E+00
 ZYZ      0.2199044356978E+00
 ZZZ      0.3274960179466E-01

 dipole-quadrupole (traceless):
 XXX     -0.3399862578166E+03
 XXY      0.6628926561344E+02
 XXZ     -0.1228043864858E+02
 XYY      0.1746148637236E+03
 XYZ      0.6128386652803E+01
 XZZ      0.1653713940930E+03
 YXX     -0.8392459831860E+02
 YXY     -0.2796961957193E+03
 YXZ      0.8247626319824E+02
 YYY      0.1287066062714E+03
 YYZ     -0.2297060710296E+02
 YZZ     -0.4478200795278E+02
 ZXX      0.1811410966313E+00
 ZXY      0.8409247834485E+02
 ZXZ     -0.3772633844222E+03
 ZYY     -0.3280888618976E+02
 ZYZ      0.1232072611306E+03
 ZZZ      0.3262774509313E+02

 roa end


 Electric Dipole Response Matrix (nonzero elements):

              1        2        3      
    1   10.6851   0.7359   0.3639
    2    0.7359  12.0810  -3.3915
    3    0.3639  -3.3915  16.0335
 
 Imaginary part:

              1        2        3      
    1    0.0224   0.0024  -0.0018
    2    0.0024   0.0304  -0.0134
    3   -0.0018  -0.0134   0.0417

 ------------------------------------------
 average:        12.93320 + I       0.03151


 DFT Linear Response polarizability / au 
 Frequency  =       0.0885580 / au
 Wavelength =     514.5029585 / nm
              X              Y              Z
 -----------------------------------------------
 X      10.6850749      0.7358683      0.3638871
 Y       0.7358683     12.0809919     -3.3915035
 Z       0.3638871     -3.3915035     16.0335357
 -----------------------------------------------
 Eigenvalues =      11.2730074      9.5436726     17.9829224
 Isotropic   =      12.9332008
 Anisotropic =       6.3043502
 -----------------------------------------------
 *************************

 DFT Linear Response IMAG polarizability / au 
 Frequency  =       0.0885580 / au
 Wavelength =     514.5029585 / nm
              X              Y              Z
 -----------------------------------------------
 X       0.0224386      0.0023638     -0.0018232
 Y       0.0023638      0.0303935     -0.0133732
 Z      -0.0018232     -0.0133732      0.0416925
 -----------------------------------------------
 Eigenvalues =       0.0228498      0.0208328      0.0508420
 Isotropic   =       0.0315082
 Anisotropic =       0.0237219
 -----------------------------------------------
 *************************

 Magnetic Dipole Response Matrix (nonzero elements):
 Optical rotation tensor Beta
 (Buckingham-Dunn version including dipole-quadrupole terms)

              1        2        3      
    1    0.1731   0.2552  -1.7037
    2    0.2552   1.2683  -0.0298
    3   -1.7037  -0.0298  -1.3899
 
 Imaginary part:

              1        2        3      
    1    0.0087  -0.0091  -0.6502
    2   -0.3909  -1.0706  -1.4893
    3    0.6917   2.6201   1.0893

 ------------------------------------------
 average:         0.01713 + I       0.00914

 Principal components and PAS (Real part)
                 -2.48622
                  1.49963
                  1.03798
 ------------------------
 average:         0.01713

              1        2        3      
    1    0.5413   0.6023   0.5867
    2   -0.0301   0.7112  -0.7024
    3    0.8403  -0.3625  -0.4031

 Chiral response tensor (Real part):

              1        2        3      
    1   -0.0608  -0.1276   0.8518
    2   -0.1276  -0.6084   0.0149
    3    0.8518   0.0149   0.7207
 
 Principal components and PAS (Real part)
                  1.26881
                 -0.72412
                 -0.49329
 ------------------------
 average:         0.01713

              1        2        3      
    1    0.5413   0.6023   0.5867
    2   -0.0301   0.7112  -0.7024
    3    0.8403  -0.3625  -0.4031
 Exiting AOResponse driver routine

 Task  times  cpu:      345.1s     wall:      348.0s
 
 
                                NWChem Input Module
                                -------------------
 
 
 Summary of allocated global arrays
-----------------------------------
  No active global arrays



                         GA Statistics for process    0
                         ------------------------------

       create   destroy   get      put      acc     scatter   gather  read&inc
calls: 2444     2444     6.44e+06 5.32e+06 4.80e+05 1938        0     1953     
number of processes/call 1.00e+00 1.00e+00 1.00e+00 0.00e+00 0.00e+00
bytes total:             1.18e+09 1.67e+08 1.11e+09 5.92e+02 0.00e+00 1.56e+04
bytes remote:            0.00e+00 0.00e+00 0.00e+00 0.00e+00 0.00e+00 0.00e+00
Max memory consumed for GA by this process: 11498464 bytes
 
MA_summarize_allocated_blocks: starting scan ...
MA_summarize_allocated_blocks: scan completed: 0 heap blocks, 0 stack blocks
MA usage statistics:

	allocation statistics:
					      heap	     stack
					      ----	     -----
	current number of blocks	         0	         0
	maximum number of blocks	        24	        52
	current total bytes		         0	         0
	maximum total bytes		  20676928	  42215048
	maximum total K-bytes		     20677	     42216
	maximum total M-bytes		        21	        43
 
 
                                     CITATION
                                     --------
                Please cite the following reference when publishing
                           results obtained with NWChem:
 
                 M. Valiev, E.J. Bylaska, N. Govind, K. Kowalski,
              T.P. Straatsma, H.J.J. van Dam, D. Wang, J. Nieplocha,
                        E. Apra, T.L. Windus, W.A. de Jong
                 "NWChem: a comprehensive and scalable open-source
                  solution for large scale molecular simulations"
                      Comput. Phys. Commun. 181, 1477 (2010)
                           doi:10.1016/j.cpc.2010.04.018
 
                                      AUTHORS
                                      -------
          E. Apra, E. J. Bylaska, W. A. de Jong, N. Govind, K. Kowalski,
       T. P. Straatsma, M. Valiev, H. J. J. van Dam, D. Wang, T. L. Windus,
        J. Hammond, J. Autschbach, K. Bhaskaran-Nair, J. Brabec, K. Lopata,
    S. A. Fischer, S. Krishnamoorthy, M. Jacquelin, W. Ma, M. Klemm, O. Villa,
      Y. Chen, V. Anisimov, F. Aquino, S. Hirata, M. T. Hackler, V. Konjkov,
            D. Mejia-Rodriguez, T. Risthaus, M. Malagoli, A. Marenich,
   A. Otero-de-la-Roza, J. Mullin, P. Nichols, R. Peverati, J. Pittner, Y. Zhao,
        P.-D. Fan, A. Fonari, M. J. Williamson, R. J. Harrison, J. R. Rehr,
      M. Dupuis, D. Silverstein, D. M. A. Smith, J. Nieplocha, V. Tipparaju,
    M. Krishnan, B. E. Van Kuiken, A. Vazquez-Mayagoitia, L. Jensen, M. Swart,
      Q. Wu, T. Van Voorhis, A. A. Auer, M. Nooijen, L. D. Crosby, E. Brown,
      G. Cisneros, G. I. Fann, H. Fruchtl, J. Garza, K. Hirao, R. A. Kendall,
      J. A. Nichols, K. Tsemekhman, K. Wolinski, J. Anchell, D. E. Bernholdt,
      P. Borowski, T. Clark, D. Clerc, H. Dachsel, M. J. O. Deegan, K. Dyall,
    D. Elwood, E. Glendening, M. Gutowski, A. C. Hess, J. Jaffe, B. G. Johnson,
     J. Ju, R. Kobayashi, R. Kutteh, Z. Lin, R. Littlefield, X. Long, B. Meng,
      T. Nakajima, S. Niu, L. Pollack, M. Rosing, K. Glaesemann, G. Sandrone,
      M. Stave, H. Taylor, G. Thomas, J. H. van Lenthe, A. T. Wong, Z. Zhang.

 Total times  cpu:      379.9s     wall:      384.7s
