 argument  1 = h2o2_514.5_09.inp
 


============================== echo of input deck ==============================
echo
start h2o2_514.5_09.inp
title "h2o2 roa calculations at 514.5 nm, input generated by va with delta_type=2"
charge 0



geometry units angstrom nocenter noautoz noautosym nucleus point;symmetry c1
 O -8.052946  3.049449 -0.530177
 O -8.433883  2.113663  0.566538
 H -8.951111  3.219078 -0.881590
 H -8.134211  2.620483  1.349715
end

basis spherical
* library def2-TZVP
end

 set prop:newaoresp 1
 set aor:roadata T
 set cphf:maxsub 100
 set cphf:acc 1.0d-10
 set cphf:maxiter 100

property
    response 1   0.088558
    bdtensor
    convergence 1e-9
    damping 0.0037
    giao
end

dft
 direct
 mult 1
 xc becke88 lyp
 iterations 250
 tolerances tight
 grid xfine
 convergence nolevelshifting
 convergence energy 1e-8
 convergence gradient 1e-8


end

task dft gradient
task dft property
================================================================================


                                         
                                         
 
 
              Northwest Computational Chemistry Package (NWChem) 6.8
              ------------------------------------------------------
 
 
                    Environmental Molecular Sciences Laboratory
                       Pacific Northwest National Laboratory
                                Richland, WA 99352
 
                              Copyright (c) 1994-2017
                       Pacific Northwest National Laboratory
                            Battelle Memorial Institute
 
             NWChem is an open-source computational chemistry package
                        distributed under the terms of the
                      Educational Community License (ECL) 2.0
             A copy of the license is included with this distribution
                              in the LICENSE.TXT file
 
                                  ACKNOWLEDGMENT
                                  --------------

            This software and its documentation were developed at the
            EMSL at Pacific Northwest National Laboratory, a multiprogram
            national laboratory, operated for the U.S. Department of Energy
            by Battelle under Contract Number DE-AC05-76RL01830. Support
            for this work was provided by the Department of Energy Office
            of Biological and Environmental Research, Office of Basic
            Energy Sciences, and the Office of Advanced Scientific Computing.


           Job information
           ---------------

    hostname        = cpn-f11-18-01.cbls.ccr.buffalo.edu
    program         = /util/academic/nwchem/nwchem-6.8/bin/LINUX64/nwchem
    date            = Thu Feb 28 18:48:56 2019

    compiled        = Tue_Nov_06_14:59:08_2018
    source          = /util/academic/nwchem/nwchem-6.8
    nwchem branch   = 6.8
    nwchem revision = v6.8-47-gdf6c956
    ga revision     = ga-5.6.3
    use scalapack   = F
    input           = h2o2_514.5_09.inp
    prefix          = h2o2_514.5_09.inp.
    data base       = ./h2o2_514.5_09.inp.db
    status          = startup
    nproc           =        1
    time left       =     -1s



           Memory information
           ------------------

    heap     =   13107200 doubles =    100.0 Mbytes
    stack    =   13107197 doubles =    100.0 Mbytes
    global   =   26214400 doubles =    200.0 Mbytes (distinct from heap & stack)
    total    =   52428797 doubles =    400.0 Mbytes
    verify   = yes
    hardfail = no 


           Directory information
           ---------------------
 
  0 permanent = .
  0 scratch   = .
 
 
 
 
                                NWChem Input Module
                                -------------------
 
 
                         h2o2 roa calculations at 514.5 nm, input generated by va with delta_type=2
                         ---------------------------------

 Scaling coordinates for geometry "geometry" by  1.889725989
 (inverse scale =  0.529177249)

 
 
                             Geometry "geometry" -> ""
                             -------------------------
 
 Output coordinates in angstroms (scale by  1.889725989 to convert to a.u.)
 
  No.       Tag          Charge          X              Y              Z
 ---- ---------------- ---------- -------------- -------------- --------------
    1 O                    8.0000    -8.05294600     3.04944900    -0.53017700
    2 O                    8.0000    -8.43388300     2.11366300     0.56653800
    3 H                    1.0000    -8.95111100     3.21907800    -0.88159000
    4 H                    1.0000    -8.13421100     2.62048300     1.34971500
 
      Atomic Mass 
      ----------- 
 
      O                 15.994910
      H                  1.007825
 

 Effective nuclear repulsion energy (a.u.)      36.0004952209

            Nuclear Dipole moment (a.u.) 
            ----------------------------
        X                 Y               Z
 ---------------- ---------------- ----------------
  -281.5312908513    89.0901056104     1.4343265918
 
 
            XYZ format geometry
            -------------------
     4
 geometry
 O                    -8.05294600     3.04944900    -0.53017700
 O                    -8.43388300     2.11366300     0.56653800
 H                    -8.95111100     3.21907800    -0.88159000
 H                    -8.13421100     2.62048300     1.34971500
 
 ==============================================================================
                                internuclear distances
 ------------------------------------------------------------------------------
       center one      |      center two      | atomic units |  angstroms
 ------------------------------------------------------------------------------
    3 H                |   1 O                |     1.85055  |     0.97927
    4 H                |   2 O                |     1.85158  |     0.97981
 ------------------------------------------------------------------------------
                         number of included internuclear distances:          2
 ==============================================================================



  warning:::::::::::::: from_environment
  NWCHEM_BASIS_LIBRARY set to: <
 /util/academic/nwchem/nwchem-6.8/src/basis/libraries>
  but file does not exist !
  using .nwchemrc or compiled library


 Summary of "ao basis" -> "" (spherical)
 ------------------------------------------------------------------------------
       Tag                 Description            Shells   Functions and Types
 ---------------- ------------------------------  ------  ---------------------
 *                         def2-TZVP                  on all atoms 


 
                                 NWChem DFT Module
                                 -----------------
 
 
                         h2o2 roa calculations at 514.5 nm, input generated by va with delta_type=2
 
 
                      Basis "ao basis" -> "ao basis" (spherical)
                      -----
  O (Oxygen)
  ----------
            Exponent  Coefficients 
       -------------- ---------------------------------------------------------
  1 S  2.70323826E+04  0.000217
  1 S  4.05238714E+03  0.001684
  1 S  9.22327227E+02  0.008740
  1 S  2.61240710E+02  0.035240
  1 S  8.53546414E+01  0.111535
  1 S  3.10350352E+01  0.255890
 
  2 S  1.22608607E+01  0.397687
  2 S  4.99870760E+00  0.246278
 
  3 S  1.17031082E+00  1.000000
 
  4 S  4.64747410E-01  1.000000
 
  5 S  1.85045364E-01  1.000000
 
  6 P  6.32749548E+01  0.006069
  6 P  1.46270494E+01  0.041913
  6 P  4.45012235E+00  0.161538
  6 P  1.52757996E+00  0.357070
 
  7 P  5.29351179E-01  1.000000
 
  8 P  1.74784213E-01  1.000000
 
  9 D  2.31400000E+00  1.000000
 
 10 D  6.45000000E-01  1.000000
 
 11 F  1.42800000E+00  1.000000
 
  H (Hydrogen)
  ------------
            Exponent  Coefficients 
       -------------- ---------------------------------------------------------
  1 S  3.40613410E+01  0.006025
  1 S  5.12357460E+00  0.045021
  1 S  1.16466260E+00  0.201897
 
  2 S  3.27230410E-01  1.000000
 
  3 S  1.03072410E-01  1.000000
 
  4 P  8.00000000E-01  1.000000
 


 Summary of "ao basis" -> "ao basis" (spherical)
 ------------------------------------------------------------------------------
       Tag                 Description            Shells   Functions and Types
 ---------------- ------------------------------  ------  ---------------------
 O                         def2-TZVP                11       31   5s3p2d1f
 H                         def2-TZVP                 4        6   3s1p




 Summary of "ao basis" -> "ao basis" (spherical)
 ------------------------------------------------------------------------------
       Tag                 Description            Shells   Functions and Types
 ---------------- ------------------------------  ------  ---------------------
 O                         def2-TZVP                11       31   5s3p2d1f
 H                         def2-TZVP                 4        6   3s1p


  Caching 1-el integrals 
  itol2e modified to match energy
  convergence criterion.
  tol_rho modified to match energy
  convergence criterion.
 
            General Information
            -------------------
          SCF calculation type: DFT
          Wavefunction type:  closed shell.
          No. of atoms     :     4
          No. of electrons :    18
           Alpha electrons :     9
            Beta electrons :     9
          Charge           :     0
          Spin multiplicity:     1
          Use of symmetry is: off; symmetry adaption is: off
          Maximum number of iterations: 250
          This is a Direct SCF calculation.
          AO basis - number of functions:    74
                     number of shells:    30
          Convergence on energy requested:  1.00D-08
          Convergence on density requested:  1.00D-05
          Convergence on gradient requested:  1.00D-08
 
              XC Information
              --------------
                    Becke 1988 Exchange Functional  1.000          
              Lee-Yang-Parr Correlation Functional  1.000          
 
             Grid Information
             ----------------
          Grid used for XC integration:  xfine     
          Radial quadrature: Mura-Knowles        
          Angular quadrature: Lebedev. 
          Tag              B.-S. Rad. Rad. Pts. Rad. Cut. Ang. Pts.
          ---              ---------- --------- --------- ---------
          O                   0.60      100           8.0      1454
          H                   0.35      100           9.0      1202
          Grid pruning is: on 
          Number of quadrature shells:   400
          Spatial weights used:  Erf1
 
          Convergence Information
          -----------------------
          Convergence aids based upon iterative change in 
          total energy or number of iterations. 
          Levelshifting, if invoked, occurs when the 
          HOMO/LUMO gap drops below (HL_TOL):  1.00D-02
          DIIS, if invoked, will attempt to extrapolate 
          using up to (NFOCK): 10 stored Fock matrices.

                    Damping( 0%)  Levelshifting(0.0)       DIIS
                  --------------- ------------------- ---------------
          dE  on:    start             N/A                start   
          dE off:    2 iters           N/A              250 iters 

 
      Screening Tolerance Information
      -------------------------------
          Density screening/tol_rho:  1.00D-11
          AO Gaussian exp screening on grid/accAOfunc:  18
          CD Gaussian exp screening on grid/accCDfunc:  20
          XC Gaussian exp screening on grid/accXCfunc:  20
          Schwarz screening/accCoul:  1.00D-09

 
      Superposition of Atomic Density Guess
      -------------------------------------
 
 Sum of atomic energies:        -150.56823290
 
      Non-variational initial energy
      ------------------------------

 Total energy =    -150.655653
 1-e energy   =    -278.564862
 2-e energy   =      91.908714
 HOMO         =      -0.359365
 LUMO         =      -0.045446
 
   Time after variat. SCF:      1.3
   Time prior to 1st pass:      1.3

 Grid_pts file          = ./h2o2_514.5_09.inp.gridpts.0
 Record size in doubles =  12289        No. of grid_pts per rec  =   3070
 Max. records in memory =    210        Max. recs in file   =   1293921


           Memory utilization after 1st SCF pass: 
           Heap Space remaining (MW):       10.52            10522928
          Stack Space remaining (MW):       13.11            13106668

   convergence    iter        energy       DeltaE   RMS-Dens  Diis-err    time
 ---------------- ----- ----------------- --------- --------- ---------  ------
 d= 0,ls=0.0,diis     1   -151.5596885060 -1.88D+02  7.37D-03  6.80D-01     5.0
 d= 0,ls=0.0,diis     2   -151.5948371880 -3.51D-02  2.67D-03  6.10D-02     8.6
 d= 0,ls=0.0,diis     3   -151.5995049677 -4.67D-03  1.05D-03  1.73D-02    12.0
 d= 0,ls=0.0,diis     4   -151.6007109865 -1.21D-03  3.68D-04  3.96D-03    15.4
 d= 0,ls=0.0,diis     5   -151.6010386969 -3.28D-04  7.85D-05  1.20D-04    18.9
 d= 0,ls=0.0,diis     6   -151.6010435986 -4.90D-06  4.02D-05  7.36D-05    22.3
 d= 0,ls=0.0,diis     7   -151.6010500587 -6.46D-06  3.75D-06  4.97D-07    25.7
 d= 0,ls=0.0,diis     8   -151.6010501020 -4.33D-08  7.36D-07  5.46D-09    29.2
 d= 0,ls=0.0,diis     9   -151.6010501024 -4.61D-10  1.84D-07  3.56D-10    32.6


         Total DFT energy =     -151.601050102445
      One electron energy =     -279.861808608897
           Coulomb energy =      110.071941475399
    Exchange-Corr. energy =      -17.811678189804
 Nuclear repulsion energy =       36.000495220858

 Numeric. integr. density =       17.999999998721

     Total iterative time =     31.3s


 
                       DFT Final Molecular Orbital Analysis
                       ------------------------------------
 
 Vector    1  Occ=2.000000D+00  E=-1.883237D+01
              MO Center= -8.1D+00,  3.0D+00, -5.3D-01, r^2= 1.6D-02
   Bfn.  Coefficient  Atom+Function         Bfn.  Coefficient  Atom+Function  
  ----- ------------  ---------------      ----- ------------  ---------------
     2      0.638694  1 O  s                  1      0.435351  1 O  s          
     3      0.037175  1 O  s                  4     -0.025123  1 O  s          
 
 Vector    2  Occ=2.000000D+00  E=-1.883145D+01
              MO Center= -8.4D+00,  2.1D+00,  5.7D-01, r^2= 1.6D-02
   Bfn.  Coefficient  Atom+Function         Bfn.  Coefficient  Atom+Function  
  ----- ------------  ---------------      ----- ------------  ---------------
    33      0.638696  2 O  s                 32      0.435351  2 O  s          
    34      0.037133  2 O  s                 35     -0.025038  2 O  s          
 
 Vector    3  Occ=2.000000D+00  E=-1.007969D+00
              MO Center= -8.3D+00,  2.6D+00,  4.9D-02, r^2= 8.2D-01
   Bfn.  Coefficient  Atom+Function         Bfn.  Coefficient  Atom+Function  
  ----- ------------  ---------------      ----- ------------  ---------------
     4      0.313245  1 O  s                 35      0.312075  2 O  s          
     3      0.239793  1 O  s                 34      0.238698  2 O  s          
     2     -0.163351  1 O  s                 33     -0.162693  2 O  s          
     5      0.096760  1 O  s                 36      0.096903  2 O  s          
    38      0.070922  2 O  py                 1     -0.070180  1 O  s          
 
 Vector    4  Occ=2.000000D+00  E=-8.190989D-01
              MO Center= -8.3D+00,  2.7D+00,  8.3D-02, r^2= 1.3D+00
   Bfn.  Coefficient  Atom+Function         Bfn.  Coefficient  Atom+Function  
  ----- ------------  ---------------      ----- ------------  ---------------
    35     -0.327790  2 O  s                  4      0.325981  1 O  s          
    34     -0.254870  2 O  s                  3      0.253278  1 O  s          
    33      0.167773  2 O  s                  2     -0.166706  1 O  s          
    36     -0.141466  2 O  s                  5      0.140503  1 O  s          
    69     -0.091618  4 H  s                 39     -0.091115  2 O  pz         
 
 Vector    5  Occ=2.000000D+00  E=-4.735258D-01
              MO Center= -8.3D+00,  2.6D+00,  6.8D-02, r^2= 1.3D+00
   Bfn.  Coefficient  Atom+Function         Bfn.  Coefficient  Atom+Function  
  ----- ------------  ---------------      ----- ------------  ---------------
    39      0.312091  2 O  pz                42      0.243948  2 O  pz         
     7      0.207681  1 O  py                 8     -0.198655  1 O  pz         
    10      0.167239  1 O  py                11     -0.157192  1 O  pz         
    70      0.133386  4 H  s                 64      0.127797  3 H  s          
     6     -0.119819  1 O  px                45      0.111571  2 O  pz         
 
 Vector    6  Occ=2.000000D+00  E=-4.331352D-01
              MO Center= -8.3D+00,  2.6D+00,  7.0D-03, r^2= 1.3D+00
   Bfn.  Coefficient  Atom+Function         Bfn.  Coefficient  Atom+Function  
  ----- ------------  ---------------      ----- ------------  ---------------
     6      0.262800  1 O  px                 9      0.195736  1 O  px         
    37      0.177007  2 O  px                 5      0.159764  1 O  s          
     4      0.158503  1 O  s                 39      0.152534  2 O  pz         
    35     -0.149107  2 O  s                 36     -0.148080  2 O  s          
    38      0.141817  2 O  py                64     -0.140002  3 H  s          
 
 Vector    7  Occ=2.000000D+00  E=-3.654114D-01
              MO Center= -8.2D+00,  2.5D+00, -8.4D-03, r^2= 1.3D+00
   Bfn.  Coefficient  Atom+Function         Bfn.  Coefficient  Atom+Function  
  ----- ------------  ---------------      ----- ------------  ---------------
    38      0.322713  2 O  py                41      0.252382  2 O  py         
     6     -0.229804  1 O  px                 8      0.220917  1 O  pz         
    11      0.178562  1 O  pz                 9     -0.175802  1 O  px         
    44      0.168355  2 O  py                36     -0.133345  2 O  s          
     5     -0.129220  1 O  s                 14      0.121085  1 O  pz         
 
 Vector    8  Occ=2.000000D+00  E=-2.755428D-01
              MO Center= -8.3D+00,  2.6D+00,  5.8D-02, r^2= 1.3D+00
   Bfn.  Coefficient  Atom+Function         Bfn.  Coefficient  Atom+Function  
  ----- ------------  ---------------      ----- ------------  ---------------
    37      0.345242  2 O  px                 7     -0.269738  1 O  py         
    40      0.268754  2 O  px                10     -0.216007  1 O  py         
    43      0.215583  2 O  px                13     -0.171281  1 O  py         
     8     -0.156801  1 O  pz                 6     -0.149202  1 O  px         
    36     -0.124873  2 O  s                  5     -0.118554  1 O  s          
 
 Vector    9  Occ=2.000000D+00  E=-2.307299D-01
              MO Center= -8.2D+00,  2.6D+00,  9.6D-03, r^2= 1.2D+00
   Bfn.  Coefficient  Atom+Function         Bfn.  Coefficient  Atom+Function  
  ----- ------------  ---------------      ----- ------------  ---------------
    37      0.281374  2 O  px                 7      0.276386  1 O  py         
    40      0.222042  2 O  px                38     -0.218796  2 O  py         
    10      0.215855  1 O  py                43      0.205579  2 O  px         
     8      0.201690  1 O  pz                13      0.190478  1 O  py         
    41     -0.167435  2 O  py                11      0.158955  1 O  pz         
 
 Vector   10  Occ=0.000000D+00  E=-6.031418D-02
              MO Center= -8.3D+00,  2.6D+00,  6.5D-02, r^2= 1.8D+00
   Bfn.  Coefficient  Atom+Function         Bfn.  Coefficient  Atom+Function  
  ----- ------------  ---------------      ----- ------------  ---------------
    36     -0.512323  2 O  s                  5      0.486113  1 O  s          
    44     -0.329757  2 O  py                71      0.307402  4 H  s          
    14      0.304337  1 O  pz                13     -0.285183  1 O  py         
    65     -0.276612  3 H  s                  8      0.266792  1 O  pz         
    45      0.265485  2 O  pz                38     -0.258924  2 O  py         
 
 Vector   11  Occ=0.000000D+00  E=-3.897294D-03
              MO Center= -8.6D+00,  3.0D+00,  2.7D-01, r^2= 4.3D+00
   Bfn.  Coefficient  Atom+Function         Bfn.  Coefficient  Atom+Function  
  ----- ------------  ---------------      ----- ------------  ---------------
    65      1.007436  3 H  s                 71      0.988270  4 H  s          
     5     -0.657960  1 O  s                 36     -0.631256  2 O  s          
    12      0.270489  1 O  px                45     -0.246670  2 O  pz         
    39     -0.135509  2 O  pz                44     -0.134530  2 O  py         
     6      0.130614  1 O  px                 3     -0.125025  1 O  s          
 
 Vector   12  Occ=0.000000D+00  E= 3.967525D-02
              MO Center= -8.6D+00,  3.0D+00,  2.9D-01, r^2= 4.3D+00
   Bfn.  Coefficient  Atom+Function         Bfn.  Coefficient  Atom+Function  
  ----- ------------  ---------------      ----- ------------  ---------------
    71     -1.192347  4 H  s                 65      1.185508  3 H  s          
    45      0.453455  2 O  pz                 5     -0.416400  1 O  s          
    36      0.417854  2 O  s                 14      0.301772  1 O  pz         
    12      0.256523  1 O  px                39      0.240272  2 O  pz         
    13     -0.208745  1 O  py                 8      0.170112  1 O  pz         
 
 Vector   13  Occ=0.000000D+00  E= 3.371672D-01
              MO Center= -8.5D+00,  2.8D+00,  2.0D-02, r^2= 3.7D+00
   Bfn.  Coefficient  Atom+Function         Bfn.  Coefficient  Atom+Function  
  ----- ------------  ---------------      ----- ------------  ---------------
    64      1.313880  3 H  s                 70      1.048642  4 H  s          
    65     -0.748832  3 H  s                 45     -0.613424  2 O  pz         
    71     -0.583080  4 H  s                 14      0.496684  1 O  pz         
     9      0.371766  1 O  px                 4     -0.350136  1 O  s          
    41     -0.317376  2 O  py                35     -0.292974  2 O  s          
 
 Vector   14  Occ=0.000000D+00  E= 3.442279D-01
              MO Center= -8.2D+00,  2.7D+00,  2.3D-01, r^2= 3.6D+00
   Bfn.  Coefficient  Atom+Function         Bfn.  Coefficient  Atom+Function  
  ----- ------------  ---------------      ----- ------------  ---------------
    70      1.581210  4 H  s                 64     -1.389611  3 H  s          
    71     -0.888584  4 H  s                 65      0.761247  3 H  s          
    12     -0.717475  1 O  px                36     -0.714559  2 O  s          
     5      0.664616  1 O  s                 44     -0.601276  2 O  py         
    35     -0.374654  2 O  s                 43     -0.360570  2 O  px         
 
 Vector   15  Occ=0.000000D+00  E= 3.516052D-01
              MO Center= -8.3D+00,  2.7D+00,  3.4D-02, r^2= 3.8D+00
   Bfn.  Coefficient  Atom+Function         Bfn.  Coefficient  Atom+Function  
  ----- ------------  ---------------      ----- ------------  ---------------
    13      0.922047  1 O  py                44      0.830026  2 O  py         
    36      0.754466  2 O  s                 45     -0.753300  2 O  pz         
     5     -0.740489  1 O  s                 14     -0.729075  1 O  pz         
    43      0.602658  2 O  px                12      0.517992  1 O  px         
     9     -0.349629  1 O  px                70      0.350213  4 H  s          
 
 Vector   16  Occ=0.000000D+00  E= 3.726142D-01
              MO Center= -8.0D+00,  2.3D+00, -1.4D-01, r^2= 2.6D+00
   Bfn.  Coefficient  Atom+Function         Bfn.  Coefficient  Atom+Function  
  ----- ------------  ---------------      ----- ------------  ---------------
    44      0.618837  2 O  py                12     -0.531740  1 O  px         
    35      0.472639  2 O  s                  4      0.452965  1 O  s          
    13      0.433784  1 O  py                 5     -0.344198  1 O  s          
    36     -0.342314  2 O  s                 70     -0.337058  4 H  s          
    41     -0.317000  2 O  py                43     -0.298670  2 O  px         
 
 Vector   17  Occ=0.000000D+00  E= 4.127742D-01
              MO Center= -8.3D+00,  2.6D+00,  1.9D-02, r^2= 3.0D+00
   Bfn.  Coefficient  Atom+Function         Bfn.  Coefficient  Atom+Function  
  ----- ------------  ---------------      ----- ------------  ---------------
    45     -0.895682  2 O  pz                14      0.851059  1 O  pz         
    12      0.757158  1 O  px                43     -0.746937  2 O  px         
    35     -0.404517  2 O  s                 11     -0.372242  1 O  pz         
    42      0.344168  2 O  pz                 4     -0.331448  1 O  s          
     9     -0.278211  1 O  px                40      0.275595  2 O  px         
 
 Vector   18  Occ=0.000000D+00  E= 4.425767D-01
              MO Center= -8.2D+00,  2.6D+00,  9.7D-03, r^2= 3.5D+00
   Bfn.  Coefficient  Atom+Function         Bfn.  Coefficient  Atom+Function  
  ----- ------------  ---------------      ----- ------------  ---------------
    44      1.195751  2 O  py                14     -1.050996  1 O  pz         
    36      0.880072  2 O  s                  5     -0.841120  1 O  s          
    12      0.801639  1 O  px                43     -0.665150  2 O  px         
    13     -0.461371  1 O  py                64      0.445675  3 H  s          
    70     -0.403025  4 H  s                 40      0.372373  2 O  px         
 
 Vector   19  Occ=0.000000D+00  E= 4.652566D-01
              MO Center= -8.3D+00,  2.7D+00,  1.0D-01, r^2= 4.0D+00
   Bfn.  Coefficient  Atom+Function         Bfn.  Coefficient  Atom+Function  
  ----- ------------  ---------------      ----- ------------  ---------------
     5      0.991208  1 O  s                 36      0.965156  2 O  s          
    71     -0.825109  4 H  s                 13      0.790344  1 O  py         
    65     -0.793526  3 H  s                 70      0.669031  4 H  s          
    64      0.662037  3 H  s                 43     -0.650936  2 O  px         
     4     -0.617499  1 O  s                 35     -0.619417  2 O  s          
 
 Vector   20  Occ=0.000000D+00  E= 5.215896D-01
              MO Center= -8.4D+00,  2.7D+00,  9.4D-02, r^2= 4.0D+00
   Bfn.  Coefficient  Atom+Function         Bfn.  Coefficient  Atom+Function  
  ----- ------------  ---------------      ----- ------------  ---------------
    45      1.568034  2 O  pz                65      1.344093  3 H  s          
    71     -1.339564  4 H  s                  5     -1.044438  1 O  s          
    12      1.047929  1 O  px                36      1.025272  2 O  s          
    14      0.909088  1 O  pz                13     -0.707731  1 O  py         
     4      0.552227  1 O  s                 35     -0.521443  2 O  s          
 
 Vector   21  Occ=0.000000D+00  E= 5.869684D-01
              MO Center= -8.4D+00,  2.8D+00,  1.3D-01, r^2= 3.0D+00
   Bfn.  Coefficient  Atom+Function         Bfn.  Coefficient  Atom+Function  
  ----- ------------  ---------------      ----- ------------  ---------------
     5      2.573856  1 O  s                 36      2.431589  2 O  s          
     4     -1.466858  1 O  s                 35     -1.451973  2 O  s          
    12     -1.384321  1 O  px                64     -1.064173  3 H  s          
    70     -1.026884  4 H  s                 45      0.888472  2 O  pz         
    44      0.878088  2 O  py                65     -0.846932  3 H  s          
 
 Vector   22  Occ=0.000000D+00  E= 6.693055D-01
              MO Center= -8.1D+00,  2.5D+00, -3.5D-02, r^2= 3.0D+00
   Bfn.  Coefficient  Atom+Function         Bfn.  Coefficient  Atom+Function  
  ----- ------------  ---------------      ----- ------------  ---------------
    36     -5.590517  2 O  s                  5      5.561179  1 O  s          
     4     -1.826089  1 O  s                 35      1.823165  2 O  s          
    14      1.752251  1 O  pz                44     -1.712052  2 O  py         
    45      1.604486  2 O  pz                13     -1.550915  1 O  py         
    70      0.902600  4 H  s                 64     -0.886360  3 H  s          
 
 Vector   23  Occ=0.000000D+00  E= 1.012287D+00
              MO Center= -8.4D+00,  2.7D+00,  7.6D-02, r^2= 1.5D+00
   Bfn.  Coefficient  Atom+Function         Bfn.  Coefficient  Atom+Function  
  ----- ------------  ---------------      ----- ------------  ---------------
    68     -0.325203  3 H  pz                70      0.304905  4 H  s          
    64     -0.298165  3 H  s                 22      0.295955  1 O  d  0       
    53     -0.268789  2 O  d  0              54      0.264030  2 O  d  1       
    23     -0.261967  1 O  d  1              74     -0.233342  4 H  pz         
    51      0.230199  2 O  d -2              73      0.224990  4 H  py         
 
 Vector   24  Occ=0.000000D+00  E= 1.080793D+00
              MO Center= -8.3D+00,  2.7D+00,  8.2D-02, r^2= 1.5D+00
   Bfn.  Coefficient  Atom+Function         Bfn.  Coefficient  Atom+Function  
  ----- ------------  ---------------      ----- ------------  ---------------
    54      0.330620  2 O  d  1              67      0.329968  3 H  py         
    22     -0.301937  1 O  d  0              20     -0.292319  1 O  d -2       
    72     -0.277115  4 H  px                70     -0.231708  4 H  s          
    52      0.223785  2 O  d -1              53      0.211867  2 O  d  0       
    74      0.209931  4 H  pz                24     -0.182476  1 O  d  2       
 
 Vector   25  Occ=0.000000D+00  E= 1.184166D+00
              MO Center= -8.3D+00,  2.7D+00,  8.8D-04, r^2= 1.5D+00
   Bfn.  Coefficient  Atom+Function         Bfn.  Coefficient  Atom+Function  
  ----- ------------  ---------------      ----- ------------  ---------------
    36     -0.433645  2 O  s                 55     -0.433010  2 O  d  2       
    23      0.429665  1 O  d  1              70      0.274913  4 H  s          
     5     -0.272181  1 O  s                 44     -0.254731  2 O  py         
    68      0.248054  3 H  pz                24      0.234133  1 O  d  2       
    35      0.215251  2 O  s                 53     -0.213317  2 O  d  0       
 
 Vector   26  Occ=0.000000D+00  E= 1.224788D+00
              MO Center= -8.4D+00,  2.7D+00,  1.7D-01, r^2= 1.7D+00
   Bfn.  Coefficient  Atom+Function         Bfn.  Coefficient  Atom+Function  
  ----- ------------  ---------------      ----- ------------  ---------------
     5      0.639994  1 O  s                 36     -0.601870  2 O  s          
    72      0.417515  4 H  px                20     -0.371133  1 O  d -2       
    67      0.347664  3 H  py                55      0.272955  2 O  d  2       
    43     -0.265680  2 O  px                51      0.262392  2 O  d -2       
    13     -0.229948  1 O  py                 4     -0.218439  1 O  s          
 
 Vector   27  Occ=0.000000D+00  E= 1.519876D+00
              MO Center= -8.4D+00,  2.6D+00,  3.8D-01, r^2= 2.4D+00
   Bfn.  Coefficient  Atom+Function         Bfn.  Coefficient  Atom+Function  
  ----- ------------  ---------------      ----- ------------  ---------------
    70      2.321517  4 H  s                 64      1.683412  3 H  s          
    45     -0.778886  2 O  pz                52     -0.690478  2 O  d -1       
    36     -0.667112  2 O  s                 35     -0.649090  2 O  s          
     4     -0.579772  1 O  s                 12      0.538546  1 O  px         
    69     -0.463024  4 H  s                 14      0.451858  1 O  pz         
 
 Vector   28  Occ=0.000000D+00  E= 1.534116D+00
              MO Center= -8.4D+00,  2.9D+00, -1.4D-01, r^2= 2.4D+00
   Bfn.  Coefficient  Atom+Function         Bfn.  Coefficient  Atom+Function  
  ----- ------------  ---------------      ----- ------------  ---------------
    64      2.454207  3 H  s                 70     -1.783768  4 H  s          
     5     -1.345310  1 O  s                 36      1.188803  2 O  s          
    12      0.826499  1 O  px                24     -0.724902  1 O  d  2       
    44      0.555501  2 O  py                65     -0.483872  3 H  s          
     9      0.455325  1 O  px                23      0.455775  1 O  d  1       
 
 Vector   29  Occ=0.000000D+00  E= 1.602316D+00
              MO Center= -8.4D+00,  2.7D+00,  1.2D-01, r^2= 1.7D+00
   Bfn.  Coefficient  Atom+Function         Bfn.  Coefficient  Atom+Function  
  ----- ------------  ---------------      ----- ------------  ---------------
    73      0.407229  4 H  py                51      0.379599  2 O  d -2       
    68      0.364212  3 H  pz                21     -0.351811  1 O  d -1       
    54      0.334325  2 O  d  1              12     -0.310568  1 O  px         
     5      0.308437  1 O  s                 22     -0.296586  1 O  d  0       
    74     -0.284297  4 H  pz                45      0.281597  2 O  pz         
 
 Vector   30  Occ=0.000000D+00  E= 1.645823D+00
              MO Center= -8.3D+00,  2.6D+00,  9.7D-02, r^2= 1.6D+00
   Bfn.  Coefficient  Atom+Function         Bfn.  Coefficient  Atom+Function  
  ----- ------------  ---------------      ----- ------------  ---------------
    70      0.734179  4 H  s                 64      0.608644  3 H  s          
    36     -0.555673  2 O  s                 21      0.549352  1 O  d -1       
    53     -0.468641  2 O  d  0              44     -0.397779  2 O  py         
     5     -0.376393  1 O  s                 55      0.368892  2 O  d  2       
    24     -0.337359  1 O  d  2              51     -0.311900  2 O  d -2       
 
 Vector   31  Occ=0.000000D+00  E= 1.742662D+00
              MO Center= -8.4D+00,  2.7D+00,  4.8D-02, r^2= 1.8D+00
   Bfn.  Coefficient  Atom+Function         Bfn.  Coefficient  Atom+Function  
  ----- ------------  ---------------      ----- ------------  ---------------
     5      1.195102  1 O  s                 36     -1.138413  2 O  s          
    13     -0.630313  1 O  py                45      0.521397  2 O  pz         
    51     -0.472787  2 O  d -2              22     -0.456034  1 O  d  0       
    14      0.444827  1 O  pz                21     -0.389675  1 O  d -1       
    43     -0.384750  2 O  px                73      0.375989  4 H  py         
 
 Vector   32  Occ=0.000000D+00  E= 1.850428D+00
              MO Center= -8.3D+00,  2.6D+00,  1.1D-01, r^2= 2.2D+00
   Bfn.  Coefficient  Atom+Function         Bfn.  Coefficient  Atom+Function  
  ----- ------------  ---------------      ----- ------------  ---------------
    36     -2.235331  2 O  s                  5      2.220499  1 O  s          
    35      1.159417  2 O  s                  4     -1.133651  1 O  s          
    44     -1.011582  2 O  py                14      0.871259  1 O  pz         
    64      0.766388  3 H  s                 70     -0.755332  4 H  s          
     9      0.600629  1 O  px                45      0.602338  2 O  pz         
 
 Vector   33  Occ=0.000000D+00  E= 1.956070D+00
              MO Center= -8.4D+00,  2.8D+00,  1.6D-01, r^2= 1.9D+00
   Bfn.  Coefficient  Atom+Function         Bfn.  Coefficient  Atom+Function  
  ----- ------------  ---------------      ----- ------------  ---------------
    72     -0.727450  4 H  px                64      0.666489  3 H  s          
    70      0.669446  4 H  s                 67      0.533148  3 H  py         
    68      0.495695  3 H  pz                20      0.450354  1 O  d -2       
    54     -0.387595  2 O  d  1              35     -0.368189  2 O  s          
    42     -0.355985  2 O  pz                 4     -0.331525  1 O  s          
 
 Vector   34  Occ=0.000000D+00  E= 2.016553D+00
              MO Center= -8.3D+00,  2.7D+00,  2.6D-02, r^2= 1.9D+00
   Bfn.  Coefficient  Atom+Function         Bfn.  Coefficient  Atom+Function  
  ----- ------------  ---------------      ----- ------------  ---------------
     5      1.144717  1 O  s                 36     -1.113256  2 O  s          
    20      0.646637  1 O  d -2              67      0.628066  3 H  py         
    64     -0.557640  3 H  s                 70      0.550405  4 H  s          
    72      0.540013  4 H  px                13     -0.518975  1 O  py         
    54      0.476327  2 O  d  1              44     -0.462556  2 O  py         
 
 Vector   35  Occ=0.000000D+00  E= 2.070617D+00
              MO Center= -8.3D+00,  2.7D+00, -1.4D-02, r^2= 1.8D+00
   Bfn.  Coefficient  Atom+Function         Bfn.  Coefficient  Atom+Function  
  ----- ------------  ---------------      ----- ------------  ---------------
    70      0.787345  4 H  s                 68     -0.619981  3 H  pz         
    23      0.582122  1 O  d  1              35     -0.561162  2 O  s          
    24      0.507132  1 O  d  2              74     -0.459816  4 H  pz         
    55      0.452575  2 O  d  2              64     -0.429817  3 H  s          
    40     -0.412973  2 O  px                53      0.403193  2 O  d  0       
 
 Vector   36  Occ=0.000000D+00  E= 2.097476D+00
              MO Center= -8.3D+00,  2.5D+00,  1.2D-01, r^2= 2.1D+00
   Bfn.  Coefficient  Atom+Function         Bfn.  Coefficient  Atom+Function  
  ----- ------------  ---------------      ----- ------------  ---------------
    64      0.956957  3 H  s                  9      0.818731  1 O  px         
    70      0.763185  4 H  s                  4     -0.664929  1 O  s          
    73     -0.655873  4 H  py                42     -0.607100  2 O  pz         
    35     -0.523106  2 O  s                 66      0.491965  3 H  px         
    22     -0.441507  1 O  d  0              53     -0.430755  2 O  d  0       
 
 Vector   37  Occ=0.000000D+00  E= 2.185454D+00
              MO Center= -8.4D+00,  2.8D+00,  1.2D-01, r^2= 2.3D+00
   Bfn.  Coefficient  Atom+Function         Bfn.  Coefficient  Atom+Function  
  ----- ------------  ---------------      ----- ------------  ---------------
    64      1.553998  3 H  s                 70     -1.489583  4 H  s          
    36      1.338193  2 O  s                  5     -1.323459  1 O  s          
     4     -0.877871  1 O  s                 35      0.856040  2 O  s          
    42      0.804065  2 O  pz                 9      0.793035  1 O  px         
    66      0.749024  3 H  px                45     -0.738379  2 O  pz         
 
 Vector   38  Occ=0.000000D+00  E= 2.229245D+00
              MO Center= -8.3D+00,  2.7D+00,  9.7D-02, r^2= 2.0D+00
   Bfn.  Coefficient  Atom+Function         Bfn.  Coefficient  Atom+Function  
  ----- ------------  ---------------      ----- ------------  ---------------
    70      1.390078  4 H  s                 64      1.289974  3 H  s          
    42     -0.823497  2 O  pz                35     -0.776850  2 O  s          
     4     -0.751286  1 O  s                 74     -0.685465  4 H  pz         
    10     -0.606614  1 O  py                 9      0.571709  1 O  px         
    68      0.485608  3 H  pz                13      0.437680  1 O  py         
 
 Vector   39  Occ=0.000000D+00  E= 2.386106D+00
              MO Center= -8.3D+00,  2.6D+00,  2.4D-02, r^2= 1.8D+00
   Bfn.  Coefficient  Atom+Function         Bfn.  Coefficient  Atom+Function  
  ----- ------------  ---------------      ----- ------------  ---------------
    64      1.145081  3 H  s                 70      0.980221  4 H  s          
     4     -0.814971  1 O  s                 11      0.806395  1 O  pz         
    40     -0.709764  2 O  px                35     -0.678225  2 O  s          
    38     -0.622252  2 O  py                41      0.613351  2 O  py         
    66      0.613386  3 H  px                12      0.575964  1 O  px         
 
 Vector   40  Occ=0.000000D+00  E= 2.402128D+00
              MO Center= -8.3D+00,  2.5D+00,  1.7D-01, r^2= 1.9D+00
   Bfn.  Coefficient  Atom+Function         Bfn.  Coefficient  Atom+Function  
  ----- ------------  ---------------      ----- ------------  ---------------
    70      1.096331  4 H  s                 74     -0.813102  4 H  pz         
    35     -0.807374  2 O  s                 45     -0.804875  2 O  pz         
    64     -0.649488  3 H  s                  6     -0.528193  1 O  px         
    39     -0.516808  2 O  pz                66     -0.517626  3 H  px         
    14     -0.509201  1 O  pz                12     -0.500836  1 O  px         
 
 Vector   41  Occ=0.000000D+00  E= 2.430384D+00
              MO Center= -8.3D+00,  2.7D+00,  6.5D-03, r^2= 1.4D+00
   Bfn.  Coefficient  Atom+Function         Bfn.  Coefficient  Atom+Function  
  ----- ------------  ---------------      ----- ------------  ---------------
     4      1.152491  1 O  s                 35      0.981664  2 O  s          
    64     -0.779259  3 H  s                 41      0.711100  2 O  py         
    70     -0.669003  4 H  s                  8     -0.643057  1 O  pz         
    39      0.626210  2 O  pz                11      0.611500  1 O  pz         
     3     -0.594476  1 O  s                 34     -0.537807  2 O  s          
 
 Vector   42  Occ=0.000000D+00  E= 2.566384D+00
              MO Center= -8.4D+00,  2.8D+00, -1.4D-01, r^2= 1.7D+00
   Bfn.  Coefficient  Atom+Function         Bfn.  Coefficient  Atom+Function  
  ----- ------------  ---------------      ----- ------------  ---------------
     5      2.126174  1 O  s                 64     -1.820419  3 H  s          
    66     -1.181984  3 H  px                 3      1.056229  1 O  s          
     4     -0.918661  1 O  s                 40     -0.855535  2 O  px         
    12     -0.767203  1 O  px                70     -0.713048  4 H  s          
    37      0.687288  2 O  px                 9     -0.566250  1 O  px         
 
 Vector   43  Occ=0.000000D+00  E= 2.569298D+00
              MO Center= -8.3D+00,  2.7D+00,  3.5D-01, r^2= 1.5D+00
   Bfn.  Coefficient  Atom+Function         Bfn.  Coefficient  Atom+Function  
  ----- ------------  ---------------      ----- ------------  ---------------
    36      2.392706  2 O  s                 70     -1.591217  4 H  s          
    35     -1.113758  2 O  s                 34      1.095472  2 O  s          
    10      1.003314  1 O  py                 5     -0.982231  1 O  s          
    74      0.745197  4 H  pz                73      0.704962  4 H  py         
    44      0.700586  2 O  py                 7     -0.695686  1 O  py         
 
 Vector   44  Occ=0.000000D+00  E= 2.675374D+00
              MO Center= -8.0D+00,  2.4D+00, -1.5D-01, r^2= 1.5D+00
   Bfn.  Coefficient  Atom+Function         Bfn.  Coefficient  Atom+Function  
  ----- ------------  ---------------      ----- ------------  ---------------
     5      2.761179  1 O  s                 36     -2.543662  2 O  s          
     4     -2.263959  1 O  s                 35      1.908388  2 O  s          
     3      1.467636  1 O  s                 34     -1.239414  2 O  s          
    41     -0.950878  2 O  py                 9     -0.764460  1 O  px         
    11      0.635058  1 O  pz                13     -0.578003  1 O  py         
 
 Vector   45  Occ=0.000000D+00  E= 2.717612D+00
              MO Center= -8.3D+00,  2.7D+00,  1.1D-01, r^2= 1.7D+00
   Bfn.  Coefficient  Atom+Function         Bfn.  Coefficient  Atom+Function  
  ----- ------------  ---------------      ----- ------------  ---------------
    35      2.485899  2 O  s                  4      2.329293  1 O  s          
    36     -1.653351  2 O  s                 34     -1.632538  2 O  s          
     3     -1.510135  1 O  s                  5     -1.336486  1 O  s          
    40     -0.681580  2 O  px                10      0.521545  1 O  py         
     9      0.437287  1 O  px                37      0.428098  2 O  px         
 
 Vector   46  Occ=0.000000D+00  E= 3.566165D+00
              MO Center= -8.4D+00,  2.7D+00,  1.7D-01, r^2= 1.7D+00
   Bfn.  Coefficient  Atom+Function         Bfn.  Coefficient  Atom+Function  
  ----- ------------  ---------------      ----- ------------  ---------------
    35     -3.011184  2 O  s                  4      2.844726  1 O  s          
     9     -1.657900  1 O  px                70      1.538763  4 H  s          
    64     -1.474345  3 H  s                 34      1.461686  2 O  s          
     3     -1.392498  1 O  s                 42     -1.396402  2 O  pz         
    66     -1.145844  3 H  px                41     -1.091906  2 O  py         
 
 Vector   47  Occ=0.000000D+00  E= 3.611151D+00
              MO Center= -8.4D+00,  2.8D+00,  7.1D-02, r^2= 1.6D+00
   Bfn.  Coefficient  Atom+Function         Bfn.  Coefficient  Atom+Function  
  ----- ------------  ---------------      ----- ------------  ---------------
     4      2.530468  1 O  s                 35      2.525550  2 O  s          
     9     -1.760100  1 O  px                42      1.404815  2 O  pz         
    64     -1.353381  3 H  s                 70     -1.271962  4 H  s          
    34     -1.170231  2 O  s                 66     -1.167607  3 H  px         
     3     -1.129072  1 O  s                 74      0.962519  4 H  pz         
 
 Vector   48  Occ=0.000000D+00  E= 3.847539D+00
              MO Center= -8.3D+00,  2.6D+00,  3.5D-02, r^2= 9.4D-01
   Bfn.  Coefficient  Atom+Function         Bfn.  Coefficient  Atom+Function  
  ----- ------------  ---------------      ----- ------------  ---------------
    42      1.674023  2 O  pz                 4      1.558738  1 O  s          
    11      1.410399  1 O  pz                35     -1.371976  2 O  s          
     3     -1.146855  1 O  s                 10     -1.129412  1 O  py         
    34      1.056532  2 O  s                 41     -0.813834  2 O  py         
    52      0.805856  2 O  d -1              21     -0.602012  1 O  d -1       
 
 Vector   49  Occ=0.000000D+00  E= 4.660064D+00
              MO Center= -8.2D+00,  2.6D+00,  1.7D-02, r^2= 1.0D+00
   Bfn.  Coefficient  Atom+Function         Bfn.  Coefficient  Atom+Function  
  ----- ------------  ---------------      ----- ------------  ---------------
    26      0.338176  1 O  f -2              30      0.335417  1 O  f  2       
    28      0.330113  1 O  f  0              61      0.303563  2 O  f  2       
    57      0.299726  2 O  f -2              59      0.295325  2 O  f  0       
    60      0.293990  2 O  f  1               9      0.283197  1 O  px         
    25     -0.270675  1 O  f -3               4     -0.268295  1 O  s          
 
 Vector   50  Occ=0.000000D+00  E= 4.720224D+00
              MO Center= -8.2D+00,  2.6D+00,  2.3D-02, r^2= 9.6D-01
   Bfn.  Coefficient  Atom+Function         Bfn.  Coefficient  Atom+Function  
  ----- ------------  ---------------      ----- ------------  ---------------
    27      0.509561  1 O  f -1              57      0.376220  2 O  f -2       
    58     -0.363883  2 O  f -1              61     -0.330186  2 O  f  2       
    31      0.272918  1 O  f  3              30      0.259885  1 O  f  2       
     5     -0.246495  1 O  s                 36     -0.233919  2 O  s          
    62     -0.228398  2 O  f  3              26     -0.189689  1 O  f -2       
 
 Vector   51  Occ=0.000000D+00  E= 4.743302D+00
              MO Center= -8.2D+00,  2.6D+00,  1.4D-02, r^2= 1.1D+00
   Bfn.  Coefficient  Atom+Function         Bfn.  Coefficient  Atom+Function  
  ----- ------------  ---------------      ----- ------------  ---------------
     4      0.538717  1 O  s                 26     -0.511055  1 O  f -2       
    35     -0.473104  2 O  s                  9     -0.417926  1 O  px         
    62      0.414351  2 O  f  3              59      0.385212  2 O  f  0       
    28      0.303885  1 O  f  0              27     -0.302136  1 O  f -1       
    42     -0.273309  2 O  pz                41     -0.263857  2 O  py         
 
 Vector   52  Occ=0.000000D+00  E= 4.842763D+00
              MO Center= -8.2D+00,  2.6D+00,  6.1D-03, r^2= 1.0D+00
   Bfn.  Coefficient  Atom+Function         Bfn.  Coefficient  Atom+Function  
  ----- ------------  ---------------      ----- ------------  ---------------
    29      0.528781  1 O  f  1              56     -0.461053  2 O  f -3       
    60     -0.399550  2 O  f  1              25      0.276331  1 O  f -3       
    28     -0.235401  1 O  f  0              31      0.234535  1 O  f  3       
    62     -0.235477  2 O  f  3              61      0.145748  2 O  f  2       
    27     -0.133390  1 O  f -1              57     -0.130855  2 O  f -2       
 
 Vector   53  Occ=0.000000D+00  E= 4.945101D+00
              MO Center= -8.3D+00,  2.6D+00,  5.3D-02, r^2= 1.1D+00
   Bfn.  Coefficient  Atom+Function         Bfn.  Coefficient  Atom+Function  
  ----- ------------  ---------------      ----- ------------  ---------------
    31      0.510947  1 O  f  3              56      0.480131  2 O  f -3       
    59      0.378588  2 O  f  0              28     -0.323882  1 O  f  0       
    62     -0.284341  2 O  f  3              27     -0.253509  1 O  f -1       
    42      0.230912  2 O  pz                11      0.210962  1 O  pz         
    60      0.176500  2 O  f  1              73      0.168752  4 H  py         
 
 Vector   54  Occ=0.000000D+00  E= 5.187594D+00
              MO Center= -8.3D+00,  2.6D+00,  8.3D-02, r^2= 1.0D+00
   Bfn.  Coefficient  Atom+Function         Bfn.  Coefficient  Atom+Function  
  ----- ------------  ---------------      ----- ------------  ---------------
    25      0.579396  1 O  f -3              56      0.452379  2 O  f -3       
    62      0.348184  2 O  f  3              61      0.313791  2 O  f  2       
    30      0.259918  1 O  f  2              59     -0.249448  2 O  f  0       
    57      0.221264  2 O  f -2              72     -0.202565  4 H  px         
    67     -0.200161  3 H  py                29      0.188489  1 O  f  1       
 
 Vector   55  Occ=0.000000D+00  E= 5.250504D+00
              MO Center= -8.2D+00,  2.9D+00, -2.8D-01, r^2= 8.8D-01
   Bfn.  Coefficient  Atom+Function         Bfn.  Coefficient  Atom+Function  
  ----- ------------  ---------------      ----- ------------  ---------------
    29      0.528038  1 O  f  1              30     -0.469131  1 O  f  2       
    25     -0.405913  1 O  f -3              56      0.324430  2 O  f -3       
    61      0.287928  2 O  f  2              27      0.279523  1 O  f -1       
    68      0.249226  3 H  pz                26     -0.221092  1 O  f -2       
    67      0.185931  3 H  py                57      0.160526  2 O  f -2       
 
 Vector   56  Occ=0.000000D+00  E= 5.258074D+00
              MO Center= -8.3D+00,  2.4D+00,  3.0D-01, r^2= 9.2D-01
   Bfn.  Coefficient  Atom+Function         Bfn.  Coefficient  Atom+Function  
  ----- ------------  ---------------      ----- ------------  ---------------
    60      0.569492  2 O  f  1              62      0.403355  2 O  f  3       
    61     -0.365516  2 O  f  2              29      0.360153  1 O  f  1       
    28     -0.250192  1 O  f  0              31      0.228407  1 O  f  3       
    58      0.221671  2 O  f -1              56     -0.215713  2 O  f -3       
    72      0.192920  4 H  px                73     -0.166381  4 H  py         
 
 Vector   57  Occ=0.000000D+00  E= 5.283930D+00
              MO Center= -8.3D+00,  2.6D+00,  9.9D-03, r^2= 9.8D-01
   Bfn.  Coefficient  Atom+Function         Bfn.  Coefficient  Atom+Function  
  ----- ------------  ---------------      ----- ------------  ---------------
    62      0.451697  2 O  f  3              25     -0.385261  1 O  f -3       
    28     -0.362715  1 O  f  0              31      0.362298  1 O  f  3       
    60     -0.340032  2 O  f  1              58     -0.297129  2 O  f -1       
    29     -0.278519  1 O  f  1              59     -0.238008  2 O  f  0       
     9     -0.229131  1 O  px                74      0.187968  4 H  pz         
 
 Vector   58  Occ=0.000000D+00  E= 5.563413D+00
              MO Center= -8.2D+00,  2.6D+00,  8.0D-03, r^2= 9.6D-01
   Bfn.  Coefficient  Atom+Function         Bfn.  Coefficient  Atom+Function  
  ----- ------------  ---------------      ----- ------------  ---------------
     4      0.646462  1 O  s                  9     -0.595890  1 O  px         
    26      0.570835  1 O  f -2              64     -0.459142  3 H  s          
    59      0.451167  2 O  f  0              66     -0.412821  3 H  px         
    35      0.391235  2 O  s                 27      0.352230  1 O  f -1       
    63     -0.296398  3 H  s                 57     -0.289418  2 O  f -2       
 
 Vector   59  Occ=0.000000D+00  E= 5.596200D+00
              MO Center= -8.3D+00,  2.6D+00,  3.1D-02, r^2= 8.9D-01
   Bfn.  Coefficient  Atom+Function         Bfn.  Coefficient  Atom+Function  
  ----- ------------  ---------------      ----- ------------  ---------------
    42      0.528801  2 O  pz                59      0.513651  2 O  f  0       
    35      0.452824  2 O  s                 28     -0.401740  1 O  f  0       
    70     -0.361466  4 H  s                 57      0.313010  2 O  f -2       
    19     -0.286317  1 O  d  2              17     -0.264320  1 O  d  0       
    69     -0.262940  4 H  s                 41      0.260080  2 O  py         
 
 Vector   60  Occ=0.000000D+00  E= 5.850509D+00
              MO Center= -8.3D+00,  2.6D+00,  9.9D-02, r^2= 1.0D+00
   Bfn.  Coefficient  Atom+Function         Bfn.  Coefficient  Atom+Function  
  ----- ------------  ---------------      ----- ------------  ---------------
    35      0.727258  2 O  s                 42      0.727479  2 O  pz         
     4     -0.619491  1 O  s                  9      0.610964  1 O  px         
    47      0.539616  2 O  d -1              69     -0.496090  4 H  s          
    74      0.490768  4 H  pz                66      0.470662  3 H  px         
    63      0.445057  3 H  s                 70     -0.419931  4 H  s          
 
 Vector   61  Occ=0.000000D+00  E= 5.949477D+00
              MO Center= -8.3D+00,  2.7D+00,  2.1D-02, r^2= 1.0D+00
   Bfn.  Coefficient  Atom+Function         Bfn.  Coefficient  Atom+Function  
  ----- ------------  ---------------      ----- ------------  ---------------
     4      1.037593  1 O  s                 35      0.902126  2 O  s          
     9     -0.775313  1 O  px                42      0.626876  2 O  pz         
    66     -0.571296  3 H  px                63     -0.517978  3 H  s          
    74      0.488096  4 H  pz                69     -0.466925  4 H  s          
    64     -0.459310  3 H  s                  3     -0.445904  1 O  s          
 
 Vector   62  Occ=0.000000D+00  E= 6.097844D+00
              MO Center= -8.2D+00,  2.6D+00,  3.3D-02, r^2= 8.9D-01
   Bfn.  Coefficient  Atom+Function         Bfn.  Coefficient  Atom+Function  
  ----- ------------  ---------------      ----- ------------  ---------------
     5      1.249665  1 O  s                 36     -1.252950  2 O  s          
    35      0.977102  2 O  s                  4     -0.953908  1 O  s          
    16      0.695712  1 O  d -1              48      0.568654  2 O  d  0       
    34     -0.438121  2 O  s                  3      0.428369  1 O  s          
    44     -0.427811  2 O  py                14      0.394035  1 O  pz         
 
 Vector   63  Occ=0.000000D+00  E= 6.115813D+00
              MO Center= -8.3D+00,  2.6D+00,  3.5D-02, r^2= 8.9D-01
   Bfn.  Coefficient  Atom+Function         Bfn.  Coefficient  Atom+Function  
  ----- ------------  ---------------      ----- ------------  ---------------
    50      0.636175  2 O  d  2              19     -0.486392  1 O  d  2       
    18     -0.470035  1 O  d  1              17     -0.393751  1 O  d  0       
    55     -0.321788  2 O  d  2              48      0.318894  2 O  d  0       
    49      0.313099  2 O  d  1              23      0.265237  1 O  d  1       
    46      0.258000  2 O  d -2              24      0.208795  1 O  d  2       
 
 Vector   64  Occ=0.000000D+00  E= 6.167792D+00
              MO Center= -8.2D+00,  2.6D+00, -4.0D-03, r^2= 9.1D-01
   Bfn.  Coefficient  Atom+Function         Bfn.  Coefficient  Atom+Function  
  ----- ------------  ---------------      ----- ------------  ---------------
    15      0.519872  1 O  d -2              17      0.461541  1 O  d  0       
    46      0.455412  2 O  d -2              49     -0.383213  2 O  d  1       
    18     -0.328378  1 O  d  1              47     -0.324169  2 O  d -1       
    51     -0.321602  2 O  d -2              48     -0.319109  2 O  d  0       
    70      0.317088  4 H  s                 20     -0.303760  1 O  d -2       
 
 Vector   65  Occ=0.000000D+00  E= 6.197998D+00
              MO Center= -8.3D+00,  2.5D+00,  4.8D-02, r^2= 9.0D-01
   Bfn.  Coefficient  Atom+Function         Bfn.  Coefficient  Atom+Function  
  ----- ------------  ---------------      ----- ------------  ---------------
    15      0.587232  1 O  d -2              46     -0.532799  2 O  d -2       
    49     -0.518252  2 O  d  1               5     -0.473299  1 O  s          
    36      0.433679  2 O  s                 17     -0.431259  1 O  d  0       
    20     -0.331298  1 O  d -2              54      0.306666  2 O  d  1       
    51      0.291834  2 O  d -2              64      0.254063  3 H  s          
 
 Vector   66  Occ=0.000000D+00  E= 6.251280D+00
              MO Center= -8.2D+00,  2.6D+00,  1.4D-02, r^2= 9.4D-01
   Bfn.  Coefficient  Atom+Function         Bfn.  Coefficient  Atom+Function  
  ----- ------------  ---------------      ----- ------------  ---------------
    15      0.608494  1 O  d -2              18     -0.517667  1 O  d  1       
    50     -0.455600  2 O  d  2              49      0.441192  2 O  d  1       
    20     -0.433862  1 O  d -2              46     -0.409173  2 O  d -2       
    55      0.322692  2 O  d  2              35     -0.316985  2 O  s          
     4      0.307797  1 O  s                 47      0.289985  2 O  d -1       
 
 Vector   67  Occ=0.000000D+00  E= 6.514949D+00
              MO Center= -8.2D+00,  2.6D+00,  1.3D-02, r^2= 1.0D+00
   Bfn.  Coefficient  Atom+Function         Bfn.  Coefficient  Atom+Function  
  ----- ------------  ---------------      ----- ------------  ---------------
    70      0.832870  4 H  s                 64      0.774319  3 H  s          
    42     -0.691488  2 O  pz                16     -0.649672  1 O  d -1       
     9      0.630033  1 O  px                46      0.587353  2 O  d -2       
    51     -0.530909  2 O  d -2              74     -0.455837  4 H  pz         
    24     -0.446998  1 O  d  2              21      0.441166  1 O  d -1       
 
 Vector   68  Occ=0.000000D+00  E= 6.614790D+00
              MO Center= -8.2D+00,  2.6D+00, -8.2D-03, r^2= 1.1D+00
   Bfn.  Coefficient  Atom+Function         Bfn.  Coefficient  Atom+Function  
  ----- ------------  ---------------      ----- ------------  ---------------
    64     -0.917038  3 H  s                 24      0.897033  1 O  d  2       
    70      0.854852  4 H  s                  9     -0.828635  1 O  px         
     4      0.812956  1 O  s                 35     -0.792644  2 O  s          
    19     -0.728831  1 O  d  2               5      0.632183  1 O  s          
    54      0.600738  2 O  d  1              36     -0.589485  2 O  s          
 
 Vector   69  Occ=0.000000D+00  E= 6.752997D+00
              MO Center= -8.2D+00,  2.6D+00, -5.6D-03, r^2= 1.0D+00
   Bfn.  Coefficient  Atom+Function         Bfn.  Coefficient  Atom+Function  
  ----- ------------  ---------------      ----- ------------  ---------------
    47     -0.549359  2 O  d -1              17      0.541581  1 O  d  0       
    22     -0.497251  1 O  d  0              48      0.477059  2 O  d  0       
    52      0.478637  2 O  d -1              16     -0.433372  1 O  d -1       
    53     -0.408059  2 O  d  0              51      0.392320  2 O  d -2       
    20      0.325921  1 O  d -2              46     -0.318009  2 O  d -2       
 
 Vector   70  Occ=0.000000D+00  E= 6.817373D+00
              MO Center= -8.3D+00,  2.6D+00,  2.3D-02, r^2= 1.2D+00
   Bfn.  Coefficient  Atom+Function         Bfn.  Coefficient  Atom+Function  
  ----- ------------  ---------------      ----- ------------  ---------------
     4      1.144328  1 O  s                 35     -1.042258  2 O  s          
    64     -0.975670  3 H  s                  9     -0.889191  1 O  px         
    70      0.884500  4 H  s                 53     -0.723003  2 O  d  0       
    42     -0.717458  2 O  pz                23     -0.706858  1 O  d  1       
    66     -0.674576  3 H  px                63     -0.645474  3 H  s          
 
 Vector   71  Occ=0.000000D+00  E= 7.022949D+00
              MO Center= -8.3D+00,  2.6D+00,  5.2D-02, r^2= 1.1D+00
   Bfn.  Coefficient  Atom+Function         Bfn.  Coefficient  Atom+Function  
  ----- ------------  ---------------      ----- ------------  ---------------
     4      1.304680  1 O  s                 35      1.296791  2 O  s          
    70     -0.893665  4 H  s                  9     -0.830177  1 O  px         
    64     -0.827093  3 H  s                 52      0.799484  2 O  d -1       
    42      0.750040  2 O  pz                69     -0.702038  4 H  s          
    63     -0.656583  3 H  s                 23     -0.629477  1 O  d  1       
 
 Vector   72  Occ=0.000000D+00  E= 7.714770D+00
              MO Center= -8.2D+00,  2.6D+00,  1.1D-02, r^2= 1.1D+00
   Bfn.  Coefficient  Atom+Function         Bfn.  Coefficient  Atom+Function  
  ----- ------------  ---------------      ----- ------------  ---------------
    35     -1.633759  2 O  s                 42      1.597453  2 O  pz         
     4      1.550036  1 O  s                 11      1.541751  1 O  pz         
    52      1.361642  2 O  d -1              10     -1.282803  1 O  py         
    21     -1.232017  1 O  d -1              41     -1.144209  2 O  py         
    34      1.098388  2 O  s                  3     -1.065074  1 O  s          
 
 Vector   73  Occ=0.000000D+00  E= 4.266742D+01
              MO Center= -8.2D+00,  2.6D+00,  1.8D-02, r^2= 6.6D-01
   Bfn.  Coefficient  Atom+Function         Bfn.  Coefficient  Atom+Function  
  ----- ------------  ---------------      ----- ------------  ---------------
     2      1.197119  1 O  s                 33      1.193576  2 O  s          
     4      1.094202  1 O  s                 35      1.087040  2 O  s          
     3     -1.061711  1 O  s                 34     -1.057631  2 O  s          
     1     -0.983677  1 O  s                 32     -0.980798  2 O  s          
     5     -0.473022  1 O  s                 36     -0.464532  2 O  s          
 
 Vector   74  Occ=0.000000D+00  E= 4.314235D+01
              MO Center= -8.2D+00,  2.6D+00,  2.0D-02, r^2= 6.6D-01
   Bfn.  Coefficient  Atom+Function         Bfn.  Coefficient  Atom+Function  
  ----- ------------  ---------------      ----- ------------  ---------------
     4      1.428748  1 O  s                 35     -1.435197  2 O  s          
     3     -1.252622  1 O  s                 34      1.256374  2 O  s          
     2      1.214340  1 O  s                 33     -1.217864  2 O  s          
     1     -0.984022  1 O  s                 32      0.986899  2 O  s          
    36      0.673395  2 O  s                  5     -0.668427  1 O  s          
 

 center of mass
 --------------
 x = -15.61131386 y =   4.91631872 z =   0.05853757

 moments of inertia (a.u.)
 ------------------
          70.054389392823          -8.615446436763           9.088929223455
          -8.615446436763          49.577187945930          31.219351380499
           9.088929223455          31.219351380499          32.380329037614
 
     Multipole analysis of the density
     ---------------------------------
 
     L   x y z        total         alpha         beta         nuclear
     -   - - -        -----         -----         ----         -------
     0   0 0 0     -0.000000     -9.000000     -9.000000     18.000000
 
     1   1 0 0     -0.402134    140.564579    140.564579   -281.531291
     1   0 1 0      0.468872    -44.310617    -44.310617     89.090106
     1   0 0 1      0.287163     -0.573582     -0.573582      1.434327
 
     2   2 0 0      3.824817  -2201.667017  -2201.667017   4407.158851
     2   1 1 0    -10.079068    689.884872    689.884872  -1389.848812
     2   1 0 1     -2.886791     11.335095     11.335095    -25.556980
     2   0 2 0     -4.955641   -229.888692   -229.888692    454.821743
     2   0 1 1      1.364903      5.423433      5.423433     -9.481962
     2   0 0 2     -6.375405    -16.428057    -16.428057     26.480710
 
 
            General Information
            -------------------
          SCF calculation type: DFT
          Wavefunction type:  closed shell.
          No. of atoms     :     4
          No. of electrons :    18
           Alpha electrons :     9
            Beta electrons :     9
          Charge           :     0
          Spin multiplicity:     1
          Use of symmetry is: off; symmetry adaption is: off
          Maximum number of iterations: 250
          This is a Direct SCF calculation.
          AO basis - number of functions:    74
                     number of shells:    30
          Convergence on energy requested:  1.00D-08
          Convergence on density requested:  1.00D-05
          Convergence on gradient requested:  1.00D-08
 
              XC Information
              --------------
                    Becke 1988 Exchange Functional  1.000          
              Lee-Yang-Parr Correlation Functional  1.000          
 
             Grid Information
             ----------------
          Grid used for XC integration:  xfine     
          Radial quadrature: Mura-Knowles        
          Angular quadrature: Lebedev. 
          Tag              B.-S. Rad. Rad. Pts. Rad. Cut. Ang. Pts.
          ---              ---------- --------- --------- ---------
          O                   0.60      100           8.0      1454
          H                   0.35      100           9.0      1202
          Grid pruning is: on 
          Number of quadrature shells:   400
          Spatial weights used:  Erf1
 
          Convergence Information
          -----------------------
          Convergence aids based upon iterative change in 
          total energy or number of iterations. 
          Levelshifting, if invoked, occurs when the 
          HOMO/LUMO gap drops below (HL_TOL):  1.00D-02
          DIIS, if invoked, will attempt to extrapolate 
          using up to (NFOCK): 10 stored Fock matrices.

                    Damping( 0%)  Levelshifting(0.0)       DIIS
                  --------------- ------------------- ---------------
          dE  on:    start             N/A                start   
          dE off:    2 iters           N/A              250 iters 

 
      Screening Tolerance Information
      -------------------------------
          Density screening/tol_rho:  1.00D-11
          AO Gaussian exp screening on grid/accAOfunc:  18
          CD Gaussian exp screening on grid/accCDfunc:  20
          XC Gaussian exp screening on grid/accXCfunc:  20
          Schwarz screening/accCoul:  1.00D-09

 
 
                            NWChem DFT Gradient Module
                            --------------------------
 
 
                         h2o2 roa calculations at 514.5 nm, input generated by va with delta_type=2
 
 

  charge          =   0.00
  wavefunction    = closed shell



                         DFT ENERGY GRADIENTS

    atom               coordinates                        gradient
                 x          y          z           x          y          z
   1 O     -15.217861   5.762623  -1.001889    0.001966   0.000228  -0.002149
   2 O     -15.937728   3.994244   1.070602   -0.000265   0.002746  -0.001077
   3 H     -16.915147   6.083175  -1.665964   -0.001047  -0.001415   0.001592
   4 H     -15.371430   4.951995   2.550592   -0.000654  -0.001560   0.001634
 
                 ----------------------------------------
                 |  Time  |  1-e(secs)   |  2-e(secs)   |
                 ----------------------------------------
                 |  CPU   |       0.01   |       2.25   |
                 ----------------------------------------
                 |  WALL  |       0.01   |       2.26   |
                 ----------------------------------------

 Task  times  cpu:       38.3s     wall:       39.3s
 
 
                                NWChem Input Module
                                -------------------
 
 
                              NWChem Property Module
                              ----------------------
 
 
                         h2o2 roa calculations at 514.5 nm, input generated by va with delta_type=2
 
 
                                 NWChem DFT Module
                                 -----------------
 
 
                         h2o2 roa calculations at 514.5 nm, input generated by va with delta_type=2
 
 


 Summary of "ao basis" -> "ao basis" (spherical)
 ------------------------------------------------------------------------------
       Tag                 Description            Shells   Functions and Types
 ---------------- ------------------------------  ------  ---------------------
 O                         def2-TZVP                11       31   5s3p2d1f
 H                         def2-TZVP                 4        6   3s1p


  Caching 1-el integrals 
 
            General Information
            -------------------
          SCF calculation type: DFT
          Wavefunction type:  closed shell.
          No. of atoms     :     4
          No. of electrons :    18
           Alpha electrons :     9
            Beta electrons :     9
          Charge           :     0
          Spin multiplicity:     1
          Use of symmetry is: off; symmetry adaption is: off
          Maximum number of iterations: 250
          This is a Direct SCF calculation.
          AO basis - number of functions:    74
                     number of shells:    30
          Convergence on energy requested:  1.00D-08
          Convergence on density requested:  1.00D-05
          Convergence on gradient requested:  1.00D-08
 
              XC Information
              --------------
                    Becke 1988 Exchange Functional  1.000          
              Lee-Yang-Parr Correlation Functional  1.000          
 
             Grid Information
             ----------------
          Grid used for XC integration:  xfine     
          Radial quadrature: Mura-Knowles        
          Angular quadrature: Lebedev. 
          Tag              B.-S. Rad. Rad. Pts. Rad. Cut. Ang. Pts.
          ---              ---------- --------- --------- ---------
          O                   0.60      100           8.0      1454
          H                   0.35      100           9.0      1202
          Grid pruning is: on 
          Number of quadrature shells:   400
          Spatial weights used:  Erf1
 
          Convergence Information
          -----------------------
          Convergence aids based upon iterative change in 
          total energy or number of iterations. 
          Levelshifting, if invoked, occurs when the 
          HOMO/LUMO gap drops below (HL_TOL):  1.00D-02
          DIIS, if invoked, will attempt to extrapolate 
          using up to (NFOCK): 10 stored Fock matrices.

                    Damping( 0%)  Levelshifting(0.0)       DIIS
                  --------------- ------------------- ---------------
          dE  on:    start             N/A                start   
          dE off:    2 iters           N/A              250 iters 

 
      Screening Tolerance Information
      -------------------------------
          Density screening/tol_rho:  1.00D-11
          AO Gaussian exp screening on grid/accAOfunc:  18
          CD Gaussian exp screening on grid/accCDfunc:  20
          XC Gaussian exp screening on grid/accXCfunc:  20
          Schwarz screening/accCoul:  1.00D-09


 Loading old vectors from job with title :

h2o2 roa calculations at 514.5 nm, input generated by va with delta_type=2

   Time after variat. SCF:     39.9
   Time prior to 1st pass:     39.9

 Grid_pts file          = ./h2o2_514.5_09.inp.gridpts.0
 Record size in doubles =  12289        No. of grid_pts per rec  =   3070
 Max. records in memory =    210        Max. recs in file   =   3881561


           Memory utilization after 1st SCF pass: 
           Heap Space remaining (MW):       10.52            10522928
          Stack Space remaining (MW):       13.11            13106668

   convergence    iter        energy       DeltaE   RMS-Dens  Diis-err    time
 ---------------- ----- ----------------- --------- --------- ---------  ------
 d= 0,ls=0.0,diis     1   -151.6010501025 -1.88D+02  1.97D-08  1.39D-12    43.5
 d= 0,ls=0.0,diis     2   -151.6010501025 -2.84D-13  8.17D-09  1.09D-12    47.0


         Total DFT energy =     -151.601050102479
      One electron energy =     -279.861831641711
           Coulomb energy =      110.071966715820
    Exchange-Corr. energy =      -17.811680397446
 Nuclear repulsion energy =       36.000495220858

 Numeric. integr. density =       17.999999998721

     Total iterative time =      7.0s


 
                       DFT Final Molecular Orbital Analysis
                       ------------------------------------
 
 Vector    1  Occ=2.000000D+00  E=-1.883237D+01
              MO Center= -8.1D+00,  3.0D+00, -5.3D-01, r^2= 1.6D-02
   Bfn.  Coefficient  Atom+Function         Bfn.  Coefficient  Atom+Function  
  ----- ------------  ---------------      ----- ------------  ---------------
     2      0.638694  1 O  s                  1      0.435351  1 O  s          
     3      0.037175  1 O  s                  4     -0.025123  1 O  s          
 
 Vector    2  Occ=2.000000D+00  E=-1.883145D+01
              MO Center= -8.4D+00,  2.1D+00,  5.7D-01, r^2= 1.6D-02
   Bfn.  Coefficient  Atom+Function         Bfn.  Coefficient  Atom+Function  
  ----- ------------  ---------------      ----- ------------  ---------------
    33      0.638696  2 O  s                 32      0.435351  2 O  s          
    34      0.037133  2 O  s                 35     -0.025038  2 O  s          
 
 Vector    3  Occ=2.000000D+00  E=-1.007969D+00
              MO Center= -8.3D+00,  2.6D+00,  4.9D-02, r^2= 8.2D-01
   Bfn.  Coefficient  Atom+Function         Bfn.  Coefficient  Atom+Function  
  ----- ------------  ---------------      ----- ------------  ---------------
     4      0.313245  1 O  s                 35      0.312075  2 O  s          
     3      0.239793  1 O  s                 34      0.238698  2 O  s          
     2     -0.163351  1 O  s                 33     -0.162693  2 O  s          
     5      0.096760  1 O  s                 36      0.096903  2 O  s          
    38      0.070922  2 O  py                 1     -0.070180  1 O  s          
 
 Vector    4  Occ=2.000000D+00  E=-8.190991D-01
              MO Center= -8.3D+00,  2.7D+00,  8.3D-02, r^2= 1.3D+00
   Bfn.  Coefficient  Atom+Function         Bfn.  Coefficient  Atom+Function  
  ----- ------------  ---------------      ----- ------------  ---------------
    35     -0.327790  2 O  s                  4      0.325981  1 O  s          
    34     -0.254870  2 O  s                  3      0.253278  1 O  s          
    33      0.167773  2 O  s                  2     -0.166706  1 O  s          
    36     -0.141466  2 O  s                  5      0.140503  1 O  s          
    69     -0.091618  4 H  s                 39     -0.091115  2 O  pz         
 
 Vector    5  Occ=2.000000D+00  E=-4.735260D-01
              MO Center= -8.3D+00,  2.6D+00,  6.8D-02, r^2= 1.3D+00
   Bfn.  Coefficient  Atom+Function         Bfn.  Coefficient  Atom+Function  
  ----- ------------  ---------------      ----- ------------  ---------------
    39      0.312091  2 O  pz                42      0.243948  2 O  pz         
     7      0.207681  1 O  py                 8     -0.198655  1 O  pz         
    10      0.167239  1 O  py                11     -0.157192  1 O  pz         
    70      0.133386  4 H  s                 64      0.127797  3 H  s          
     6     -0.119819  1 O  px                45      0.111571  2 O  pz         
 
 Vector    6  Occ=2.000000D+00  E=-4.331354D-01
              MO Center= -8.3D+00,  2.6D+00,  7.0D-03, r^2= 1.3D+00
   Bfn.  Coefficient  Atom+Function         Bfn.  Coefficient  Atom+Function  
  ----- ------------  ---------------      ----- ------------  ---------------
     6      0.262800  1 O  px                 9      0.195736  1 O  px         
    37      0.177007  2 O  px                 5      0.159764  1 O  s          
     4      0.158503  1 O  s                 39      0.152534  2 O  pz         
    35     -0.149107  2 O  s                 36     -0.148080  2 O  s          
    38      0.141817  2 O  py                64     -0.140002  3 H  s          
 
 Vector    7  Occ=2.000000D+00  E=-3.654115D-01
              MO Center= -8.2D+00,  2.5D+00, -8.4D-03, r^2= 1.3D+00
   Bfn.  Coefficient  Atom+Function         Bfn.  Coefficient  Atom+Function  
  ----- ------------  ---------------      ----- ------------  ---------------
    38      0.322713  2 O  py                41      0.252382  2 O  py         
     6     -0.229804  1 O  px                 8      0.220917  1 O  pz         
    11      0.178562  1 O  pz                 9     -0.175802  1 O  px         
    44      0.168355  2 O  py                36     -0.133345  2 O  s          
     5     -0.129220  1 O  s                 14      0.121085  1 O  pz         
 
 Vector    8  Occ=2.000000D+00  E=-2.755430D-01
              MO Center= -8.3D+00,  2.6D+00,  5.8D-02, r^2= 1.3D+00
   Bfn.  Coefficient  Atom+Function         Bfn.  Coefficient  Atom+Function  
  ----- ------------  ---------------      ----- ------------  ---------------
    37      0.345242  2 O  px                 7     -0.269738  1 O  py         
    40      0.268754  2 O  px                10     -0.216007  1 O  py         
    43      0.215583  2 O  px                13     -0.171281  1 O  py         
     8     -0.156801  1 O  pz                 6     -0.149202  1 O  px         
    36     -0.124873  2 O  s                  5     -0.118554  1 O  s          
 
 Vector    9  Occ=2.000000D+00  E=-2.307301D-01
              MO Center= -8.2D+00,  2.6D+00,  9.6D-03, r^2= 1.2D+00
   Bfn.  Coefficient  Atom+Function         Bfn.  Coefficient  Atom+Function  
  ----- ------------  ---------------      ----- ------------  ---------------
    37      0.281374  2 O  px                 7      0.276386  1 O  py         
    40      0.222042  2 O  px                38     -0.218796  2 O  py         
    10      0.215855  1 O  py                43      0.205579  2 O  px         
     8      0.201690  1 O  pz                13      0.190478  1 O  py         
    41     -0.167435  2 O  py                11      0.158955  1 O  pz         
 
 Vector   10  Occ=0.000000D+00  E=-6.031430D-02
              MO Center= -8.3D+00,  2.6D+00,  6.5D-02, r^2= 1.8D+00
   Bfn.  Coefficient  Atom+Function         Bfn.  Coefficient  Atom+Function  
  ----- ------------  ---------------      ----- ------------  ---------------
    36     -0.512323  2 O  s                  5      0.486113  1 O  s          
    44     -0.329756  2 O  py                71      0.307402  4 H  s          
    14      0.304337  1 O  pz                13     -0.285183  1 O  py         
    65     -0.276612  3 H  s                  8      0.266792  1 O  pz         
    45      0.265485  2 O  pz                38     -0.258924  2 O  py         
 
 Vector   11  Occ=0.000000D+00  E=-3.897409D-03
              MO Center= -8.6D+00,  3.0D+00,  2.7D-01, r^2= 4.3D+00
[...]
    70      0.832870  4 H  s                 64      0.774319  3 H  s          
    42     -0.691488  2 O  pz                16     -0.649672  1 O  d -1       
     9      0.630033  1 O  px                46      0.587353  2 O  d -2       
    51     -0.530909  2 O  d -2              74     -0.455837  4 H  pz         
    24     -0.446998  1 O  d  2              21      0.441166  1 O  d -1       
 
 Vector   68  Occ=0.000000D+00  E= 6.614789D+00
              MO Center= -8.2D+00,  2.6D+00, -8.2D-03, r^2= 1.1D+00
   Bfn.  Coefficient  Atom+Function         Bfn.  Coefficient  Atom+Function  
  ----- ------------  ---------------      ----- ------------  ---------------
    64     -0.917038  3 H  s                 24      0.897033  1 O  d  2       
    70      0.854852  4 H  s                  9     -0.828635  1 O  px         
     4      0.812956  1 O  s                 35     -0.792644  2 O  s          
    19     -0.728831  1 O  d  2               5      0.632183  1 O  s          
    54      0.600738  2 O  d  1              36     -0.589485  2 O  s          
 
 Vector   69  Occ=0.000000D+00  E= 6.752997D+00
              MO Center= -8.2D+00,  2.6D+00, -5.6D-03, r^2= 1.0D+00
   Bfn.  Coefficient  Atom+Function         Bfn.  Coefficient  Atom+Function  
  ----- ------------  ---------------      ----- ------------  ---------------
    47     -0.549359  2 O  d -1              17      0.541581  1 O  d  0       
    22     -0.497251  1 O  d  0              48      0.477059  2 O  d  0       
    52      0.478637  2 O  d -1              16     -0.433372  1 O  d -1       
    53     -0.408059  2 O  d  0              51      0.392320  2 O  d -2       
    20      0.325921  1 O  d -2              46     -0.318009  2 O  d -2       
 
 Vector   70  Occ=0.000000D+00  E= 6.817372D+00
              MO Center= -8.3D+00,  2.6D+00,  2.3D-02, r^2= 1.2D+00
   Bfn.  Coefficient  Atom+Function         Bfn.  Coefficient  Atom+Function  
  ----- ------------  ---------------      ----- ------------  ---------------
     4      1.144328  1 O  s                 35     -1.042258  2 O  s          
    64     -0.975670  3 H  s                  9     -0.889191  1 O  px         
    70      0.884500  4 H  s                 53     -0.723003  2 O  d  0       
    42     -0.717458  2 O  pz                23     -0.706858  1 O  d  1       
    66     -0.674576  3 H  px                63     -0.645474  3 H  s          
 
 Vector   71  Occ=0.000000D+00  E= 7.022949D+00
              MO Center= -8.3D+00,  2.6D+00,  5.2D-02, r^2= 1.1D+00
   Bfn.  Coefficient  Atom+Function         Bfn.  Coefficient  Atom+Function  
  ----- ------------  ---------------      ----- ------------  ---------------
     4      1.304680  1 O  s                 35      1.296791  2 O  s          
    70     -0.893665  4 H  s                  9     -0.830177  1 O  px         
    64     -0.827093  3 H  s                 52      0.799484  2 O  d -1       
    42      0.750040  2 O  pz                69     -0.702038  4 H  s          
    63     -0.656583  3 H  s                 23     -0.629477  1 O  d  1       
 
 Vector   72  Occ=0.000000D+00  E= 7.714770D+00
              MO Center= -8.2D+00,  2.6D+00,  1.1D-02, r^2= 1.1D+00
   Bfn.  Coefficient  Atom+Function         Bfn.  Coefficient  Atom+Function  
  ----- ------------  ---------------      ----- ------------  ---------------
    35     -1.633759  2 O  s                 42      1.597453  2 O  pz         
     4      1.550036  1 O  s                 11      1.541751  1 O  pz         
    52      1.361642  2 O  d -1              10     -1.282803  1 O  py         
    21     -1.232017  1 O  d -1              41     -1.144209  2 O  py         
    34      1.098388  2 O  s                  3     -1.065074  1 O  s          
 
 Vector   73  Occ=0.000000D+00  E= 4.266742D+01
              MO Center= -8.2D+00,  2.6D+00,  1.8D-02, r^2= 6.6D-01
   Bfn.  Coefficient  Atom+Function         Bfn.  Coefficient  Atom+Function  
  ----- ------------  ---------------      ----- ------------  ---------------
     2      1.197119  1 O  s                 33      1.193576  2 O  s          
     4      1.094202  1 O  s                 35      1.087040  2 O  s          
     3     -1.061711  1 O  s                 34     -1.057631  2 O  s          
     1     -0.983677  1 O  s                 32     -0.980798  2 O  s          
     5     -0.473022  1 O  s                 36     -0.464532  2 O  s          
 
 Vector   74  Occ=0.000000D+00  E= 4.314235D+01
              MO Center= -8.2D+00,  2.6D+00,  2.0D-02, r^2= 6.6D-01
   Bfn.  Coefficient  Atom+Function         Bfn.  Coefficient  Atom+Function  
  ----- ------------  ---------------      ----- ------------  ---------------
     4      1.428748  1 O  s                 35     -1.435197  2 O  s          
     3     -1.252622  1 O  s                 34      1.256374  2 O  s          
     2      1.214340  1 O  s                 33     -1.217864  2 O  s          
     1     -0.984022  1 O  s                 32      0.986899  2 O  s          
    36      0.673395  2 O  s                  5     -0.668427  1 O  s          
 

 center of mass
 --------------
 x = -15.61131386 y =   4.91631872 z =   0.05853757

 moments of inertia (a.u.)
 ------------------
          70.054389392823          -8.615446436763           9.088929223455
          -8.615446436763          49.577187945930          31.219351380499
           9.088929223455          31.219351380499          32.380329037614
 
     Multipole analysis of the density
     ---------------------------------
 
     L   x y z        total         alpha         beta         nuclear
     -   - - -        -----         -----         ----         -------
     0   0 0 0     -0.000000     -9.000000     -9.000000     18.000000
 
     1   1 0 0     -0.402133    140.564579    140.564579   -281.531291
     1   0 1 0      0.468871    -44.310617    -44.310617     89.090106
     1   0 0 1      0.287163     -0.573582     -0.573582      1.434327
 
     2   2 0 0      3.824798  -2201.667027  -2201.667027   4407.158851
     2   1 1 0    -10.079052    689.884880    689.884880  -1389.848812
     2   1 0 1     -2.886783     11.335099     11.335099    -25.556980
     2   0 2 0     -4.955648   -229.888696   -229.888696    454.821743
     2   0 1 1      1.364900      5.423431      5.423431     -9.481962
     2   0 0 2     -6.375405    -16.428058    -16.428058     26.480710
 
 *** CALLING NEW AORESP DRIVER FOR CLOSED AND OPEN SHELLS ***
 Entering AOResponse driver routine


--------------------------------------------------------------------------------

          ****************
          *** RESPONSE ***
          ****************

 Response module for NWChem and dynamic CPKS solver
 developed by J. Autschbach and coworkers, SUNY Buffalo
 The methodology used in this program is described in 
 ChemPhysChem 12 (2011), 3224-3235 (main reference)
 J. Chem. Phys. 123 (2005), 114103
 J. Chem. Phys. 122 (2005), 224115
 J. Chem. Phys. 122 (2005), 074105
 Comp. Lett. 3 (2007), 131-150 (contact JA for a copy)
 Please cite this work in publications based on results
 obtained with this code. Thank you!

 For extension of response module to open shell
 calculations please acknowledge:
 F. Aquino, Northwestern University, Schatz Rsrch Group
 The update to the methodology is described in
 J. Phys. Chem. A 118 (2014) 517-525



          -----------------------------------------------
          Solving response equations for perturbing field
          -----------------------------------------------

 number of frequencies:     1
 frequency in a.u.:  0.8855800E-01
 Perturbing field: electric
 Using GIAO formalism for OptRot
 Adding quadrupole terms to OptRot
 to create an origin in dependent tensor.
 Using El. Dipole Length Gauge
 
 Applying DAMPING constant of  0.003700 a.u.
 
 Setting up CPKS
 with frequency omega =      0.08855800 a.u.
 and a damping of            0.00370000 a.u.

 
                            NWChem Dynamic CPHF Module
                            --------------------------
 
 
    scftype = RHF 
    nclosed =    9
      nopen =    0
  variables =     2340
  num. vecs =        3
  tolerance =   1.0D-09
  max. iter =  100

 SCF residual:   5.151718245515880E-007


Iterative solution of linear equations
  No. of variables     1170
  No. of equations        3
  Maximum subspace       99
       Convergence  1.0D-09
        Start time     50.5


   iter   nsub   residual    time 
   ----  ------  --------  --------- 
 dft_CPHF2_read: failed to open./h2o2_514.5_09.inp.aoresp_fiao_f1
     1      3    5.10D+00      78.0
     2      6    2.14D+00     105.7
     3      9    1.67D-01     133.5
     4     12    8.28D-03     161.2
     5     15    2.19D-03     188.9
     6     18    3.25D-04     216.7
     7     21    1.81D-05     244.4
     8     24    1.11D-06     272.2
     9     27    1.04D-07     299.9
    10     30    9.13D-09     327.6
    11     33    5.50D-10     355.3

 Calculating some arrays needed for GIAO optical rotation

    0 giaofock schwarz done =      98.67%
    0 giaofock schwarz done =      98.67%
 aor_r1_tensor_giao: roadata output requested
 dip-quad polarizability Re:

              1        2        3        4        5        6      
    1 -337.4621  44.0084  -7.6036   6.5539   3.7256   0.3419
    2  -22.9993-185.4091  54.5439 118.6007 -15.2548   3.5373
    3  -12.1127  55.4646-252.2128 -35.0841  82.2534   8.9398
 traceless dip-quad polarizability:

              1        2        3      
    1 -340.9099  66.0126 -11.4055
    2   66.0126 175.1140   5.5884
    3  -11.4055   5.5884 165.7960

              1        2        3      
    1  -84.0683-278.1136  81.8158
    2 -278.1136 128.3317 -22.8822
    3   81.8158 -22.8822 -44.2634

              1        2        3      
    1    0.9595  83.1970-378.3192
    2   83.1970 -33.4977 123.3801
    3 -378.3192 123.3801  32.5382

 roa begin

 alpha real:
 XX       0.1070396060937E+02
 XY       0.7505086263203E+00
 XZ       0.3272653771392E+00
 YX       0.7505086263705E+00
 YY       0.1202123725949E+02
 YZ      -0.3372246753366E+01
 ZX       0.3272653769649E+00
 ZY      -0.3372246753106E+01
 ZZ       0.1608586198271E+02

 alpha im:
 XX       0.2227080627432E-01
 XY       0.2488000403944E-02
 XZ      -0.1910350473584E-02
 YX       0.2488000533817E-02
 YY       0.3036399082779E-01
 YZ      -0.1317773419777E-01
 ZX      -0.1910350500977E-02
 ZY      -0.1317773395667E-01
 ZZ       0.4197721167446E-01

 beta real:
 XX      -0.5701387176209E-01
 XY      -0.1468072730678E+00
 XZ       0.2982318808761E+01
 YX       0.7770615918820E+00
 YY       0.2183749016296E+01
 YZ       0.8388452215983E+01
 ZX      -0.3191802257240E+01
 ZY      -0.1107049292794E+02
 ZZ      -0.2131291186375E+01

 G-prime = -omega beta(real):
 XX      -0.5701387176209E-01
 XY      -0.1468072730678E+00
 XZ       0.2982318808761E+01
 YX       0.7770615918820E+00
 YY       0.2183749016296E+01
 YZ       0.8388452215983E+01
 ZX      -0.3191802257240E+01
 ZY      -0.1107049292794E+02
 ZZ      -0.2131291186375E+01

 beta im:
 XX      -0.5523094645262E-03
 XY       0.1405574948279E-02
 XZ       0.5805465033897E-01
 YX       0.3456852137971E-01
 YY       0.9449933404000E-01
 YZ       0.1306549981786E+00
 ZX      -0.6121463855446E-01
 ZY      -0.2335896272084E+00
 ZZ      -0.9645377907354E-01

 G-prime = -omega beta(imag):
 XX      -0.5523094645262E-03
 XY       0.1405574948279E-02
 XZ       0.5805465033897E-01
 YX       0.3456852137971E-01
 YY       0.9449933404000E-01
 YZ       0.1306549981786E+00
 ZX      -0.6121463855446E-01
 ZY      -0.2335896272084E+00
 ZZ      -0.9645377907354E-01

 dipole-quadrupole real (Cartesian):
 XXX     -0.3374620658659E+03
 XXY      0.4400842456543E+02
 XXZ     -0.7603637079872E+01
 XYY      0.6553863366045E+01
 XYZ      0.3725585441462E+01
 XZZ      0.3418774312022E+00
 YXX     -0.2299932078952E+02
 YXY     -0.1854090822076E+03
 YXZ      0.5454388012423E+02
 YYY      0.1186006671593E+03
 YYZ     -0.1525477921486E+02
 YZZ      0.3537306908262E+01
 ZXX     -0.1211266687869E+02
 ZXY      0.5546464815676E+02
 ZXZ     -0.2522128136040E+03
 ZYY     -0.3508414591762E+02
 ZYZ      0.8225342156171E+02
 ZZZ      0.8939789625966E+01

 dipole-quadrupole imag (Cartesian):
 XXX     -0.7064973635757E+00
 XXY      0.8056472861277E-01
 XXZ      0.2441887740443E-01
 XYY      0.2249189112808E-01
 XYZ     -0.5645424606551E-02
 XZZ     -0.1980675362392E-02
 YXX     -0.7516715091798E-01
 YXY     -0.4710454926446E+00
 YXZ      0.2152243345038E+00
 YYY      0.3071280734384E+00
 YYZ     -0.6271779167987E-01
 YZZ      0.7073868062121E-02
 ZXX      0.5547892072241E-01
 ZXY      0.2014307001587E+00
 ZXZ     -0.6644477582732E+00
 ZYY     -0.1424369851154E+00
 ZYZ      0.2211896343408E+00
 ZZZ      0.3531914410681E-01

 dipole-quadrupole (traceless):
 XXX     -0.3409099362645E+03
 XXY      0.6601263684815E+02
 XXZ     -0.1140545561981E+02
 XYY      0.1751139575834E+03
 XYZ      0.5588378162193E+01
 XZZ      0.1657959786811E+03
 YXX     -0.8406830782328E+02
 YXY     -0.2781136233114E+03
 YXZ      0.8181582018634E+02
 YYY      0.1283316740999E+03
 YYZ     -0.2288216882229E+02
 YZZ     -0.4426336627660E+02
 ZXX      0.9595112671395E+00
 ZXY      0.8319697223514E+02
 ZXZ     -0.3783192204060E+03
 ZYY     -0.3349770729126E+02
 ZYZ      0.1233801323426E+03
 ZZZ      0.3253819602412E+02

 roa end


 Electric Dipole Response Matrix (nonzero elements):

              1        2        3      
    1   10.7040   0.7505   0.3273
    2    0.7505  12.0212  -3.3722
    3    0.3273  -3.3722  16.0859
 
 Imaginary part:

              1        2        3      
    1    0.0223   0.0025  -0.0019
    2    0.0025   0.0304  -0.0132
    3   -0.0019  -0.0132   0.0420

 ------------------------------------------
 average:        12.93702 + I       0.03154


 DFT Linear Response polarizability / au 
 Frequency  =       0.0885580 / au
 Wavelength =     514.5029585 / nm
              X              Y              Z
 -----------------------------------------------
 X      10.7039606      0.7505086      0.3272654
 Y       0.7505086     12.0212373     -3.3722468
 Z       0.3272654     -3.3722468     16.0858620
 -----------------------------------------------
 Eigenvalues =      11.2752087      9.5440162     17.9918350
 Isotropic   =      12.9370200
 Anisotropic =       6.3107247
 -----------------------------------------------
 *************************

 DFT Linear Response IMAG polarizability / au 
 Frequency  =       0.0885580 / au
 Wavelength =     514.5029585 / nm
              X              Y              Z
 -----------------------------------------------
 X       0.0222708      0.0024880     -0.0019104
 Y       0.0024880      0.0303640     -0.0131777
 Z      -0.0019104     -0.0131777      0.0419772
 -----------------------------------------------
 Eigenvalues =       0.0229068      0.0208278      0.0508774
 Isotropic   =       0.0315373
 Anisotropic =       0.0237323
 -----------------------------------------------
 *************************

 Magnetic Dipole Response Matrix (nonzero elements):
 Optical rotation tensor Beta
 (Buckingham-Dunn version including dipole-quadrupole terms)

              1        2        3      
    1    0.1834   0.2717  -1.7443
    2    0.2717   1.2106  -0.0051
    3   -1.7443  -0.0051  -1.3425
 
 Imaginary part:

              1        2        3      
    1    0.0062  -0.0159  -0.6556
    2   -0.3903  -1.0671  -1.4754
    3    0.6912   2.6377   1.0892

 ------------------------------------------
 average:         0.01715 + I       0.00944

 Principal components and PAS (Real part)
                 -2.48913
                  1.50652
                  1.03406
 ------------------------
 average:         0.01715

              1        2        3      
    1    0.5489   0.6683  -0.5020
    2   -0.0392   0.6205   0.7832
    3    0.8349  -0.4103   0.3668

 Chiral response tensor (Real part):

              1        2        3      
    1   -0.0660  -0.1358   0.8722
    2   -0.1358  -0.5796   0.0025
    3    0.8722   0.0025   0.6970
 
 Principal components and PAS (Real part)
                  1.27029
                 -0.72753
                 -0.49131
 ------------------------
 average:         0.01715

              1        2        3      
    1    0.5489   0.6683  -0.5020
    2   -0.0392   0.6205   0.7832
    3    0.8349  -0.4103   0.3668
 Exiting AOResponse driver routine

 Task  times  cpu:      344.0s     wall:      344.8s
 
 
                                NWChem Input Module
                                -------------------
 
 
 Summary of allocated global arrays
-----------------------------------
  No active global arrays



                         GA Statistics for process    0
                         ------------------------------

       create   destroy   get      put      acc     scatter   gather  read&inc
calls: 2444     2444     6.45e+06 5.32e+06 4.83e+05 1938        0     1953     
number of processes/call 1.00e+00 1.00e+00 1.00e+00 0.00e+00 0.00e+00
bytes total:             1.20e+09 1.67e+08 1.12e+09 5.92e+02 0.00e+00 1.56e+04
bytes remote:            0.00e+00 0.00e+00 0.00e+00 0.00e+00 0.00e+00 0.00e+00
Max memory consumed for GA by this process: 11498464 bytes
 
MA_summarize_allocated_blocks: starting scan ...
MA_summarize_allocated_blocks: scan completed: 0 heap blocks, 0 stack blocks
MA usage statistics:

	allocation statistics:
					      heap	     stack
					      ----	     -----
	current number of blocks	         0	         0
	maximum number of blocks	        24	        52
	current total bytes		         0	         0
	maximum total bytes		  20676928	  42215048
	maximum total K-bytes		     20677	     42216
	maximum total M-bytes		        21	        43
 
 
                                     CITATION
                                     --------
                Please cite the following reference when publishing
                           results obtained with NWChem:
 
                 M. Valiev, E.J. Bylaska, N. Govind, K. Kowalski,
              T.P. Straatsma, H.J.J. van Dam, D. Wang, J. Nieplocha,
                        E. Apra, T.L. Windus, W.A. de Jong
                 "NWChem: a comprehensive and scalable open-source
                  solution for large scale molecular simulations"
                      Comput. Phys. Commun. 181, 1477 (2010)
                           doi:10.1016/j.cpc.2010.04.018
 
                                      AUTHORS
                                      -------
          E. Apra, E. J. Bylaska, W. A. de Jong, N. Govind, K. Kowalski,
       T. P. Straatsma, M. Valiev, H. J. J. van Dam, D. Wang, T. L. Windus,
        J. Hammond, J. Autschbach, K. Bhaskaran-Nair, J. Brabec, K. Lopata,
    S. A. Fischer, S. Krishnamoorthy, M. Jacquelin, W. Ma, M. Klemm, O. Villa,
      Y. Chen, V. Anisimov, F. Aquino, S. Hirata, M. T. Hackler, V. Konjkov,
            D. Mejia-Rodriguez, T. Risthaus, M. Malagoli, A. Marenich,
   A. Otero-de-la-Roza, J. Mullin, P. Nichols, R. Peverati, J. Pittner, Y. Zhao,
        P.-D. Fan, A. Fonari, M. J. Williamson, R. J. Harrison, J. R. Rehr,
      M. Dupuis, D. Silverstein, D. M. A. Smith, J. Nieplocha, V. Tipparaju,
    M. Krishnan, B. E. Van Kuiken, A. Vazquez-Mayagoitia, L. Jensen, M. Swart,
      Q. Wu, T. Van Voorhis, A. A. Auer, M. Nooijen, L. D. Crosby, E. Brown,
      G. Cisneros, G. I. Fann, H. Fruchtl, J. Garza, K. Hirao, R. A. Kendall,
      J. A. Nichols, K. Tsemekhman, K. Wolinski, J. Anchell, D. E. Bernholdt,
      P. Borowski, T. Clark, D. Clerc, H. Dachsel, M. J. O. Deegan, K. Dyall,
    D. Elwood, E. Glendening, M. Gutowski, A. C. Hess, J. Jaffe, B. G. Johnson,
     J. Ju, R. Kobayashi, R. Kutteh, Z. Lin, R. Littlefield, X. Long, B. Meng,
      T. Nakajima, S. Niu, L. Pollack, M. Rosing, K. Glaesemann, G. Sandrone,
      M. Stave, H. Taylor, G. Thomas, J. H. van Lenthe, A. T. Wong, Z. Zhang.

 Total times  cpu:      382.3s     wall:      384.7s
