 argument  1 = h2o2_514.5_08.inp
 


============================== echo of input deck ==============================
echo
start h2o2_514.5_08.inp
title "h2o2 roa calculations at 514.5 nm, input generated by va with delta_type=2"
charge 0



geometry units angstrom nocenter noautoz noautosym nucleus point;symmetry c1
 O -8.048320  3.062264 -0.544611
 O -8.438894  2.098465  0.582397
 H -8.947310  3.236911 -0.893449
 H -8.131904  2.640482  1.338936
end

basis spherical
* library def2-TZVP
end

 set prop:newaoresp 1
 set aor:roadata T
 set cphf:maxsub 100
 set cphf:acc 1.0d-10
 set cphf:maxiter 100

property
    response 1   0.088558
    bdtensor
    convergence 1e-9
    damping 0.0037
    giao
end

dft
 direct
 mult 1
 xc becke88 lyp
 iterations 250
 tolerances tight
 grid xfine
 convergence nolevelshifting
 convergence energy 1e-8
 convergence gradient 1e-8


end

task dft gradient
task dft property
================================================================================


                                         
                                         
 
 
              Northwest Computational Chemistry Package (NWChem) 6.8
              ------------------------------------------------------
 
 
                    Environmental Molecular Sciences Laboratory
                       Pacific Northwest National Laboratory
                                Richland, WA 99352
 
                              Copyright (c) 1994-2017
                       Pacific Northwest National Laboratory
                            Battelle Memorial Institute
 
             NWChem is an open-source computational chemistry package
                        distributed under the terms of the
                      Educational Community License (ECL) 2.0
             A copy of the license is included with this distribution
                              in the LICENSE.TXT file
 
                                  ACKNOWLEDGMENT
                                  --------------

            This software and its documentation were developed at the
            EMSL at Pacific Northwest National Laboratory, a multiprogram
            national laboratory, operated for the U.S. Department of Energy
            by Battelle under Contract Number DE-AC05-76RL01830. Support
            for this work was provided by the Department of Energy Office
            of Biological and Environmental Research, Office of Basic
            Energy Sciences, and the Office of Advanced Scientific Computing.


           Job information
           ---------------

    hostname        = cpn-f11-18-01.cbls.ccr.buffalo.edu
    program         = /util/academic/nwchem/nwchem-6.8/bin/LINUX64/nwchem
    date            = Thu Feb 28 18:48:56 2019

    compiled        = Tue_Nov_06_14:59:08_2018
    source          = /util/academic/nwchem/nwchem-6.8
    nwchem branch   = 6.8
    nwchem revision = v6.8-47-gdf6c956
    ga revision     = ga-5.6.3
    use scalapack   = F
    input           = h2o2_514.5_08.inp
    prefix          = h2o2_514.5_08.inp.
    data base       = ./h2o2_514.5_08.inp.db
    status          = startup
    nproc           =        1
    time left       =     -1s



           Memory information
           ------------------

    heap     =   13107200 doubles =    100.0 Mbytes
    stack    =   13107197 doubles =    100.0 Mbytes
    global   =   26214400 doubles =    200.0 Mbytes (distinct from heap & stack)
    total    =   52428797 doubles =    400.0 Mbytes
    verify   = yes
    hardfail = no 


           Directory information
           ---------------------
 
  0 permanent = .
  0 scratch   = .
 
 
 
 
                                NWChem Input Module
                                -------------------
 
 
                         h2o2 roa calculations at 514.5 nm, input generated by va with delta_type=2
                         ---------------------------------

 Scaling coordinates for geometry "geometry" by  1.889725989
 (inverse scale =  0.529177249)

 
 
                             Geometry "geometry" -> ""
                             -------------------------
 
 Output coordinates in angstroms (scale by  1.889725989 to convert to a.u.)
 
  No.       Tag          Charge          X              Y              Z
 ---- ---------------- ---------- -------------- -------------- --------------
    1 O                    8.0000    -8.04832000     3.06226400    -0.54461100
    2 O                    8.0000    -8.43889400     2.09846500     0.58239700
    3 H                    1.0000    -8.94731000     3.23691100    -0.89344900
    4 H                    1.0000    -8.13190400     2.64048200     1.33893600
 
      Atomic Mass 
      ----------- 
 
      O                 15.994910
      H                  1.007825
 

 Effective nuclear repulsion energy (a.u.)      35.3231933150

            Nuclear Dipole moment (a.u.) 
            ----------------------------
        X                 Y               Z
 ---------------- ---------------- ----------------
  -281.5255687610    89.1255719877     1.4130898511
 
 
            XYZ format geometry
            -------------------
     4
 geometry
 O                    -8.04832000     3.06226400    -0.54461100
 O                    -8.43889400     2.09846500     0.58239700
 H                    -8.94731000     3.23691100    -0.89344900
 H                    -8.13190400     2.64048200     1.33893600
 
 ==============================================================================
                                internuclear distances
 ------------------------------------------------------------------------------
       center one      |      center two      | atomic units |  angstroms
 ------------------------------------------------------------------------------
    3 H                |   1 O                |     1.85190  |     0.97999
    4 H                |   2 O                |     1.85191  |     0.97999
 ------------------------------------------------------------------------------
                         number of included internuclear distances:          2
 ==============================================================================



  warning:::::::::::::: from_environment
  NWCHEM_BASIS_LIBRARY set to: <
 /util/academic/nwchem/nwchem-6.8/src/basis/libraries>
  but file does not exist !
  using .nwchemrc or compiled library


 Summary of "ao basis" -> "" (spherical)
 ------------------------------------------------------------------------------
       Tag                 Description            Shells   Functions and Types
 ---------------- ------------------------------  ------  ---------------------
 *                         def2-TZVP                  on all atoms 


 
                                 NWChem DFT Module
                                 -----------------
 
 
                         h2o2 roa calculations at 514.5 nm, input generated by va with delta_type=2
 
 
                      Basis "ao basis" -> "ao basis" (spherical)
                      -----
  O (Oxygen)
  ----------
            Exponent  Coefficients 
       -------------- ---------------------------------------------------------
  1 S  2.70323826E+04  0.000217
  1 S  4.05238714E+03  0.001684
  1 S  9.22327227E+02  0.008740
  1 S  2.61240710E+02  0.035240
  1 S  8.53546414E+01  0.111535
  1 S  3.10350352E+01  0.255890
 
  2 S  1.22608607E+01  0.397687
  2 S  4.99870760E+00  0.246278
 
  3 S  1.17031082E+00  1.000000
 
  4 S  4.64747410E-01  1.000000
 
  5 S  1.85045364E-01  1.000000
 
  6 P  6.32749548E+01  0.006069
  6 P  1.46270494E+01  0.041913
  6 P  4.45012235E+00  0.161538
  6 P  1.52757996E+00  0.357070
 
  7 P  5.29351179E-01  1.000000
 
  8 P  1.74784213E-01  1.000000
 
  9 D  2.31400000E+00  1.000000
 
 10 D  6.45000000E-01  1.000000
 
 11 F  1.42800000E+00  1.000000
 
  H (Hydrogen)
  ------------
            Exponent  Coefficients 
       -------------- ---------------------------------------------------------
  1 S  3.40613410E+01  0.006025
  1 S  5.12357460E+00  0.045021
  1 S  1.16466260E+00  0.201897
 
  2 S  3.27230410E-01  1.000000
 
  3 S  1.03072410E-01  1.000000
 
  4 P  8.00000000E-01  1.000000
 


 Summary of "ao basis" -> "ao basis" (spherical)
 ------------------------------------------------------------------------------
       Tag                 Description            Shells   Functions and Types
 ---------------- ------------------------------  ------  ---------------------
 O                         def2-TZVP                11       31   5s3p2d1f
 H                         def2-TZVP                 4        6   3s1p




 Summary of "ao basis" -> "ao basis" (spherical)
 ------------------------------------------------------------------------------
       Tag                 Description            Shells   Functions and Types
 ---------------- ------------------------------  ------  ---------------------
 O                         def2-TZVP                11       31   5s3p2d1f
 H                         def2-TZVP                 4        6   3s1p


  Caching 1-el integrals 
  itol2e modified to match energy
  convergence criterion.
  tol_rho modified to match energy
  convergence criterion.
 
            General Information
            -------------------
          SCF calculation type: DFT
          Wavefunction type:  closed shell.
          No. of atoms     :     4
          No. of electrons :    18
           Alpha electrons :     9
            Beta electrons :     9
          Charge           :     0
          Spin multiplicity:     1
          Use of symmetry is: off; symmetry adaption is: off
          Maximum number of iterations: 250
          This is a Direct SCF calculation.
          AO basis - number of functions:    74
                     number of shells:    30
          Convergence on energy requested:  1.00D-08
          Convergence on density requested:  1.00D-05
          Convergence on gradient requested:  1.00D-08
 
              XC Information
              --------------
                    Becke 1988 Exchange Functional  1.000          
              Lee-Yang-Parr Correlation Functional  1.000          
 
             Grid Information
             ----------------
          Grid used for XC integration:  xfine     
          Radial quadrature: Mura-Knowles        
          Angular quadrature: Lebedev. 
          Tag              B.-S. Rad. Rad. Pts. Rad. Cut. Ang. Pts.
          ---              ---------- --------- --------- ---------
          O                   0.60      100           8.0      1454
          H                   0.35      100           9.0      1202
          Grid pruning is: on 
          Number of quadrature shells:   400
          Spatial weights used:  Erf1
 
          Convergence Information
          -----------------------
          Convergence aids based upon iterative change in 
          total energy or number of iterations. 
          Levelshifting, if invoked, occurs when the 
          HOMO/LUMO gap drops below (HL_TOL):  1.00D-02
          DIIS, if invoked, will attempt to extrapolate 
          using up to (NFOCK): 10 stored Fock matrices.

                    Damping( 0%)  Levelshifting(0.0)       DIIS
                  --------------- ------------------- ---------------
          dE  on:    start             N/A                start   
          dE off:    2 iters           N/A              250 iters 

 
      Screening Tolerance Information
      -------------------------------
          Density screening/tol_rho:  1.00D-11
          AO Gaussian exp screening on grid/accAOfunc:  18
          CD Gaussian exp screening on grid/accCDfunc:  20
          XC Gaussian exp screening on grid/accXCfunc:  20
          Schwarz screening/accCoul:  1.00D-09

 
      Superposition of Atomic Density Guess
      -------------------------------------
 
 Sum of atomic energies:        -150.56823290
 
      Non-variational initial energy
      ------------------------------

 Total energy =    -150.592972
 1-e energy   =    -277.233131
 2-e energy   =      91.316966
 HOMO         =      -0.366496
 LUMO         =      -0.076609
 
   Time after variat. SCF:      1.3
   Time prior to 1st pass:      1.3

 Grid_pts file          = ./h2o2_514.5_08.inp.gridpts.0
 Record size in doubles =  12289        No. of grid_pts per rec  =   3070
 Max. records in memory =    210        Max. recs in file   =   1293921


           Memory utilization after 1st SCF pass: 
           Heap Space remaining (MW):       10.52            10522928
          Stack Space remaining (MW):       13.11            13106668

   convergence    iter        energy       DeltaE   RMS-Dens  Diis-err    time
 ---------------- ----- ----------------- --------- --------- ---------  ------
 d= 0,ls=0.0,diis     1   -151.5596078849 -1.87D+02  7.23D-03  6.74D-01     5.0
 d= 0,ls=0.0,diis     2   -151.5943852603 -3.48D-02  2.58D-03  5.96D-02     8.9
 d= 0,ls=0.0,diis     3   -151.5991447221 -4.76D-03  9.69D-04  1.49D-02    12.3
 d= 0,ls=0.0,diis     4   -151.6001903067 -1.05D-03  3.42D-04  3.47D-03    15.7
 d= 0,ls=0.0,diis     5   -151.6004795610 -2.89D-04  5.05D-05  6.81D-05    19.4
 d= 0,ls=0.0,diis     6   -151.6004863941 -6.83D-06  5.55D-06  8.10D-07    22.8
 d= 0,ls=0.0,diis     7   -151.6004864664 -7.23D-08  1.38D-06  1.52D-08    26.2
 d= 0,ls=0.0,diis     8   -151.6004864673 -9.11D-10  5.96D-07  5.98D-09    29.7


         Total DFT energy =     -151.600486467319
      One electron energy =     -278.527664308374
           Coulomb energy =      109.399342960494
    Exchange-Corr. energy =      -17.795358434437
 Nuclear repulsion energy =       35.323193314998

 Numeric. integr. density =       17.999999998618

     Total iterative time =     28.4s


 
                       DFT Final Molecular Orbital Analysis
                       ------------------------------------
 
 Vector    1  Occ=2.000000D+00  E=-1.883425D+01
              MO Center= -8.2D+00,  2.8D+00, -2.2D-01, r^2= 4.9D-01
   Bfn.  Coefficient  Atom+Function         Bfn.  Coefficient  Atom+Function  
  ----- ------------  ---------------      ----- ------------  ---------------
     2      0.540328  1 O  s                  1      0.368334  1 O  s          
    33     -0.340532  2 O  s                 32     -0.232183  2 O  s          
     3      0.031871  1 O  s          
 
 Vector    2  Occ=2.000000D+00  E=-1.883422D+01
              MO Center= -8.3D+00,  2.4D+00,  2.6D-01, r^2= 4.9D-01
   Bfn.  Coefficient  Atom+Function         Bfn.  Coefficient  Atom+Function  
  ----- ------------  ---------------      ----- ------------  ---------------
    33      0.540450  2 O  s                 32      0.368319  2 O  s          
     2      0.340725  1 O  s                  1      0.232159  1 O  s          
    34      0.030606  2 O  s          
 
 Vector    3  Occ=2.000000D+00  E=-9.954993D-01
              MO Center= -8.3D+00,  2.6D+00,  5.4D-02, r^2= 8.6D-01
   Bfn.  Coefficient  Atom+Function         Bfn.  Coefficient  Atom+Function  
  ----- ------------  ---------------      ----- ------------  ---------------
     4      0.313918  1 O  s                 35      0.313907  2 O  s          
     3      0.239798  1 O  s                 34      0.239788  2 O  s          
     2     -0.163158  1 O  s                 33     -0.163152  2 O  s          
     5      0.100264  1 O  s                 36      0.100260  2 O  s          
     1     -0.070087  1 O  s                 32     -0.070084  2 O  s          
 
 Vector    4  Occ=2.000000D+00  E=-8.252561D-01
              MO Center= -8.3D+00,  2.7D+00,  7.2D-02, r^2= 1.3D+00
   Bfn.  Coefficient  Atom+Function         Bfn.  Coefficient  Atom+Function  
  ----- ------------  ---------------      ----- ------------  ---------------
     4      0.328099  1 O  s                 35     -0.328108  2 O  s          
     3      0.255932  1 O  s                 34     -0.255939  2 O  s          
     2     -0.168354  1 O  s                 33      0.168358  2 O  s          
     5      0.140318  1 O  s                 36     -0.140322  2 O  s          
    63      0.089450  3 H  s                 69     -0.089452  4 H  s          
 
 Vector    5  Occ=2.000000D+00  E=-4.649223D-01
              MO Center= -8.3D+00,  2.6D+00,  5.6D-02, r^2= 1.3D+00
   Bfn.  Coefficient  Atom+Function         Bfn.  Coefficient  Atom+Function  
  ----- ------------  ---------------      ----- ------------  ---------------
    39      0.310458  2 O  pz                42      0.243661  2 O  pz         
     7      0.205355  1 O  py                 8     -0.196998  1 O  pz         
    10      0.166001  1 O  py                11     -0.156726  1 O  pz         
    64      0.131177  3 H  s                 70      0.131166  4 H  s          
     6     -0.129270  1 O  px                45      0.114575  2 O  pz         
 
 Vector    6  Occ=2.000000D+00  E=-4.310928D-01
              MO Center= -8.3D+00,  2.6D+00,  3.7D-02, r^2= 1.3D+00
   Bfn.  Coefficient  Atom+Function         Bfn.  Coefficient  Atom+Function  
  ----- ------------  ---------------      ----- ------------  ---------------
     6      0.255987  1 O  px                 9      0.190536  1 O  px         
    37      0.171694  2 O  px                39      0.157979  2 O  pz         
     5      0.155255  1 O  s                 36     -0.155253  2 O  s          
    38      0.154304  2 O  py                 4      0.151298  1 O  s          
    35     -0.151297  2 O  s                 64     -0.138749  3 H  s          
 
 Vector    7  Occ=2.000000D+00  E=-3.643638D-01
              MO Center= -8.2D+00,  2.5D+00, -1.6D-02, r^2= 1.4D+00
   Bfn.  Coefficient  Atom+Function         Bfn.  Coefficient  Atom+Function  
  ----- ------------  ---------------      ----- ------------  ---------------
    38      0.319258  2 O  py                41      0.249623  2 O  py         
     6     -0.241109  1 O  px                 8      0.212760  1 O  pz         
     9     -0.184053  1 O  px                11      0.172820  1 O  pz         
    44      0.165788  2 O  py                 5     -0.134844  1 O  s          
    36     -0.134852  2 O  s                 12     -0.119469  1 O  px         
 
 Vector    8  Occ=2.000000D+00  E=-2.779524D-01
              MO Center= -8.3D+00,  2.6D+00,  5.2D-02, r^2= 1.3D+00
   Bfn.  Coefficient  Atom+Function         Bfn.  Coefficient  Atom+Function  
  ----- ------------  ---------------      ----- ------------  ---------------
    37      0.346172  2 O  px                 7     -0.271954  1 O  py         
    40      0.269171  2 O  px                10     -0.217426  1 O  py         
    43      0.215328  2 O  px                13     -0.173126  1 O  py         
     8     -0.168370  1 O  pz                 6     -0.135559  1 O  px         
    11     -0.126016  1 O  pz                14     -0.111235  1 O  pz         
 
 Vector    9  Occ=2.000000D+00  E=-2.360948D-01
              MO Center= -8.2D+00,  2.6D+00,  7.7D-03, r^2= 1.3D+00
   Bfn.  Coefficient  Atom+Function         Bfn.  Coefficient  Atom+Function  
  ----- ------------  ---------------      ----- ------------  ---------------
    37      0.285091  2 O  px                 7      0.275534  1 O  py         
    40      0.224487  2 O  px                10      0.214628  1 O  py         
    38     -0.213320  2 O  py                 8      0.205102  1 O  pz         
    43      0.204684  2 O  px                13      0.187823  1 O  py         
    41     -0.163131  2 O  py                11      0.161561  1 O  pz         
 
 Vector   10  Occ=0.000000D+00  E=-8.158166D-02
              MO Center= -8.3D+00,  2.6D+00,  4.0D-02, r^2= 1.6D+00
   Bfn.  Coefficient  Atom+Function         Bfn.  Coefficient  Atom+Function  
  ----- ------------  ---------------      ----- ------------  ---------------
     5      0.409814  1 O  s                 36     -0.409809  2 O  s          
    44     -0.297872  2 O  py                14      0.289030  1 O  pz         
    45      0.275034  2 O  pz                 8      0.273169  1 O  pz         
    13     -0.273259  1 O  py                39      0.261007  2 O  pz         
    38     -0.256188  2 O  py                 7     -0.234800  1 O  py         
 
 Vector   11  Occ=0.000000D+00  E=-4.561275D-03
              MO Center= -8.6D+00,  3.0D+00,  2.9D-01, r^2= 4.3D+00
   Bfn.  Coefficient  Atom+Function         Bfn.  Coefficient  Atom+Function  
  ----- ------------  ---------------      ----- ------------  ---------------
    65      0.996052  3 H  s                 71      0.996026  4 H  s          
     5     -0.642207  1 O  s                 36     -0.642200  2 O  s          
    12      0.264109  1 O  px                45     -0.230386  2 O  pz         
    44     -0.156308  2 O  py                 6      0.128185  1 O  px         
    39     -0.127629  2 O  pz                 3     -0.122680  1 O  s          
 
 Vector   12  Occ=0.000000D+00  E= 3.772416D-02
              MO Center= -8.6D+00,  3.0D+00,  2.7D-01, r^2= 4.5D+00
   Bfn.  Coefficient  Atom+Function         Bfn.  Coefficient  Atom+Function  
  ----- ------------  ---------------      ----- ------------  ---------------
    65      1.205455  3 H  s                 71     -1.205480  4 H  s          
     5     -0.481499  1 O  s                 36      0.481515  2 O  s          
    45      0.409017  2 O  pz                12      0.277806  1 O  px         
    14      0.269255  1 O  pz                39      0.221003  2 O  pz         
    13     -0.170093  1 O  py                 8      0.153898  1 O  pz         
 
 Vector   13  Occ=0.000000D+00  E= 3.371701D-01
              MO Center= -8.4D+00,  2.8D+00,  1.5D-01, r^2= 3.8D+00
   Bfn.  Coefficient  Atom+Function         Bfn.  Coefficient  Atom+Function  
  ----- ------------  ---------------      ----- ------------  ---------------
    64      1.196994  3 H  s                 70      1.196937  4 H  s          
    65     -0.673661  3 H  s                 71     -0.673634  4 H  s          
    45     -0.587704  2 O  pz                14      0.509993  1 O  pz         
     9      0.360700  1 O  px                41     -0.330165  2 O  py         
     4     -0.306050  1 O  s                 35     -0.306053  2 O  s          
 
 Vector   14  Occ=0.000000D+00  E= 3.428946D-01
              MO Center= -8.3D+00,  2.7D+00,  7.5D-02, r^2= 3.6D+00
   Bfn.  Coefficient  Atom+Function         Bfn.  Coefficient  Atom+Function  
  ----- ------------  ---------------      ----- ------------  ---------------
    64      1.494181  3 H  s                 70     -1.494189  4 H  s          
    65     -0.825143  3 H  s                 71      0.825145  4 H  s          
    12      0.691564  1 O  px                 5     -0.627959  1 O  s          
    36      0.627957  2 O  s                 44      0.630527  2 O  py         
     4     -0.372659  1 O  s                 35      0.372663  2 O  s          
 
 Vector   15  Occ=0.000000D+00  E= 3.506929D-01
              MO Center= -8.3D+00,  2.6D+00,  5.6D-02, r^2= 3.9D+00
   Bfn.  Coefficient  Atom+Function         Bfn.  Coefficient  Atom+Function  
  ----- ------------  ---------------      ----- ------------  ---------------
    13      0.904489  1 O  py                44      0.819223  2 O  py         
    45     -0.741418  2 O  pz                14     -0.692828  1 O  pz         
     5     -0.633598  1 O  s                 36      0.633607  2 O  s          
    43      0.584674  2 O  px                12      0.514272  1 O  px         
     9     -0.347341  1 O  px                64     -0.330065  3 H  s          
 
 Vector   16  Occ=0.000000D+00  E= 3.719757D-01
              MO Center= -8.0D+00,  2.3D+00, -1.4D-01, r^2= 2.6D+00
   Bfn.  Coefficient  Atom+Function         Bfn.  Coefficient  Atom+Function  
  ----- ------------  ---------------      ----- ------------  ---------------
    44      0.619071  2 O  py                12     -0.547104  1 O  px         
     4      0.465811  1 O  s                 35      0.465808  2 O  s          
    13      0.414651  1 O  py                 5     -0.354506  1 O  s          
    36     -0.354506  2 O  s                 41     -0.317451  2 O  py         
    43     -0.306803  2 O  px                64     -0.308310  3 H  s          
 
 Vector   17  Occ=0.000000D+00  E= 4.141066D-01
              MO Center= -8.3D+00,  2.6D+00,  3.0D-02, r^2= 3.1D+00
   Bfn.  Coefficient  Atom+Function         Bfn.  Coefficient  Atom+Function  
  ----- ------------  ---------------      ----- ------------  ---------------
    45      0.872249  2 O  pz                14     -0.855459  1 O  pz         
    12     -0.785510  1 O  px                43      0.761049  2 O  px         
     4      0.366382  1 O  s                 11      0.367517  1 O  pz         
    35      0.366370  2 O  s                 42     -0.350362  2 O  pz         
    40     -0.281833  2 O  px                 9      0.256932  1 O  px         
 
 Vector   18  Occ=0.000000D+00  E= 4.412156D-01
              MO Center= -8.2D+00,  2.6D+00,  2.0D-02, r^2= 3.6D+00
   Bfn.  Coefficient  Atom+Function         Bfn.  Coefficient  Atom+Function  
  ----- ------------  ---------------      ----- ------------  ---------------
    44      1.202379  2 O  py                14     -1.005680  1 O  pz         
     5     -0.811398  1 O  s                 36      0.811362  2 O  s          
    12      0.769117  1 O  px                43     -0.634655  2 O  px         
    13     -0.496976  1 O  py                64      0.424435  3 H  s          
    70     -0.424453  4 H  s                 40      0.364105  2 O  px         
 
 Vector   19  Occ=0.000000D+00  E= 4.650607D-01
              MO Center= -8.3D+00,  2.7D+00,  8.9D-02, r^2= 4.1D+00
   Bfn.  Coefficient  Atom+Function         Bfn.  Coefficient  Atom+Function  
  ----- ------------  ---------------      ----- ------------  ---------------
     5      1.021291  1 O  s                 36      1.021274  2 O  s          
    65     -0.823361  3 H  s                 71     -0.823328  4 H  s          
    13      0.760860  1 O  py                 4     -0.631095  1 O  s          
    35     -0.631090  2 O  s                 43     -0.631556  2 O  px         
    64      0.633727  3 H  s                 70      0.633727  4 H  s          
 
 Vector   20  Occ=0.000000D+00  E= 5.201473D-01
              MO Center= -8.4D+00,  2.7D+00,  9.3D-02, r^2= 4.0D+00
   Bfn.  Coefficient  Atom+Function         Bfn.  Coefficient  Atom+Function  
  ----- ------------  ---------------      ----- ------------  ---------------
    45      1.496669  2 O  pz                65      1.351090  3 H  s          
    71     -1.351091  4 H  s                  5     -1.102186  1 O  s          
    36      1.102165  2 O  s                 12      1.064726  1 O  px         
    14      0.909403  1 O  pz                13     -0.673230  1 O  py         
     4      0.555926  1 O  s                 35     -0.555917  2 O  s          
 
 Vector   21  Occ=0.000000D+00  E= 5.892737D-01
              MO Center= -8.4D+00,  2.8D+00,  1.4D-01, r^2= 3.0D+00
   Bfn.  Coefficient  Atom+Function         Bfn.  Coefficient  Atom+Function  
  ----- ------------  ---------------      ----- ------------  ---------------
     5      2.479279  1 O  s                 36      2.479250  2 O  s          
     4     -1.454682  1 O  s                 35     -1.454671  2 O  s          
    12     -1.343600  1 O  px                64     -1.034919  3 H  s          
    70     -1.034918  4 H  s                 44      0.922133  2 O  py         
    65     -0.831739  3 H  s                 71     -0.831756  4 H  s          
 
 Vector   22  Occ=0.000000D+00  E= 6.641977D-01
              MO Center= -8.2D+00,  2.5D+00, -4.2D-02, r^2= 3.0D+00
   Bfn.  Coefficient  Atom+Function         Bfn.  Coefficient  Atom+Function  
  ----- ------------  ---------------      ----- ------------  ---------------
     5      5.282210  1 O  s                 36     -5.282238  2 O  s          
     4     -1.808186  1 O  s                 35      1.808214  2 O  s          
    14      1.648323  1 O  pz                44     -1.656503  2 O  py         
    45      1.555013  2 O  pz                13     -1.492463  1 O  py         
    64     -0.903702  3 H  s                 70      0.903708  4 H  s          
 
 Vector   23  Occ=0.000000D+00  E= 1.010248D+00
              MO Center= -8.4D+00,  2.7D+00,  9.3D-02, r^2= 1.5D+00
   Bfn.  Coefficient  Atom+Function         Bfn.  Coefficient  Atom+Function  
  ----- ------------  ---------------      ----- ------------  ---------------
    22      0.326154  1 O  d  0              68     -0.310774  3 H  pz         
    53     -0.294812  2 O  d  0              64     -0.283948  3 H  s          
    70      0.283944  4 H  s                 74     -0.260049  4 H  pz         
    23     -0.250673  1 O  d  1              54      0.247494  2 O  d  1       
    51      0.219798  2 O  d -2              73      0.218168  4 H  py         
 
 Vector   24  Occ=0.000000D+00  E= 1.080682D+00
              MO Center= -8.3D+00,  2.7D+00,  6.4D-02, r^2= 1.5D+00
   Bfn.  Coefficient  Atom+Function         Bfn.  Coefficient  Atom+Function  
  ----- ------------  ---------------      ----- ------------  ---------------
    54      0.343929  2 O  d  1              67      0.335322  3 H  py         
    20     -0.300427  1 O  d -2              22     -0.286322  1 O  d  0       
    72     -0.268220  4 H  px                52      0.238746  2 O  d -1       
    64     -0.219933  3 H  s                 70     -0.219915  4 H  s          
    53      0.205762  2 O  d  0              74      0.201740  4 H  pz         
 
 Vector   25  Occ=0.000000D+00  E= 1.177753D+00
              MO Center= -8.3D+00,  2.6D+00,  5.6D-02, r^2= 1.6D+00
   Bfn.  Coefficient  Atom+Function         Bfn.  Coefficient  Atom+Function  
  ----- ------------  ---------------      ----- ------------  ---------------
    55     -0.439689  2 O  d  2              23      0.424161  1 O  d  1       
     5     -0.337915  1 O  s                 36     -0.337905  2 O  s          
    68      0.241492  3 H  pz                24      0.230423  1 O  d  2       
    44     -0.222712  2 O  py                51     -0.217057  2 O  d -2       
    73      0.211932  4 H  py                12      0.208727  1 O  px         
 
 Vector   26  Occ=0.000000D+00  E= 1.219551D+00
              MO Center= -8.4D+00,  2.7D+00,  1.1D-01, r^2= 1.8D+00
   Bfn.  Coefficient  Atom+Function         Bfn.  Coefficient  Atom+Function  
  ----- ------------  ---------------      ----- ------------  ---------------
     5      0.549993  1 O  s                 36     -0.549989  2 O  s          
    72      0.407494  4 H  px                20     -0.378186  1 O  d -2       
    67      0.352189  3 H  py                51      0.254085  2 O  d -2       
    43     -0.245642  2 O  px                68      0.241864  3 H  pz         
    55      0.236642  2 O  d  2              13     -0.220433  1 O  py         
 
 Vector   27  Occ=0.000000D+00  E= 1.507906D+00
              MO Center= -8.4D+00,  2.7D+00,  1.1D-01, r^2= 2.3D+00
   Bfn.  Coefficient  Atom+Function         Bfn.  Coefficient  Atom+Function  
  ----- ------------  ---------------      ----- ------------  ---------------
    64      1.895663  3 H  s                 70      1.895391  4 H  s          
    52     -0.650819  2 O  d -1              45     -0.622294  2 O  pz         
     4     -0.584139  1 O  s                 35     -0.584090  2 O  s          
    12      0.579947  1 O  px                24     -0.498178  1 O  d  2       
     5     -0.447690  1 O  s                 36     -0.447556  2 O  s          
 
 Vector   28  Occ=0.000000D+00  E= 1.539442D+00
              MO Center= -8.4D+00,  2.7D+00,  1.1D-01, r^2= 2.5D+00
   Bfn.  Coefficient  Atom+Function         Bfn.  Coefficient  Atom+Function  
  ----- ------------  ---------------      ----- ------------  ---------------
    64      2.149952  3 H  s                 70     -2.150132  4 H  s          
     5     -1.230020  1 O  s                 36      1.230048  2 O  s          
    12      0.724875  1 O  px                24     -0.635730  1 O  d  2       
    44      0.614246  2 O  py                52      0.526988  2 O  d -1       
    65     -0.428963  3 H  s                 71      0.429004  4 H  s          
 
 Vector   29  Occ=0.000000D+00  E= 1.580720D+00
              MO Center= -8.3D+00,  2.7D+00,  8.6D-02, r^2= 1.8D+00
   Bfn.  Coefficient  Atom+Function         Bfn.  Coefficient  Atom+Function  
  ----- ------------  ---------------      ----- ------------  ---------------
    64      0.584520  3 H  s                 70      0.584639  4 H  s          
    51     -0.476077  2 O  d -2              21      0.429498  1 O  d -1       
    12      0.426484  1 O  px                73     -0.414627  4 H  py         
    45     -0.354558  2 O  pz                 5     -0.328615  1 O  s          
    36     -0.328678  2 O  s                 68     -0.327017  3 H  pz         
 
 Vector   30  Occ=0.000000D+00  E= 1.625765D+00
              MO Center= -8.3D+00,  2.7D+00,  7.3D-02, r^2= 1.6D+00
   Bfn.  Coefficient  Atom+Function         Bfn.  Coefficient  Atom+Function  
  ----- ------------  ---------------      ----- ------------  ---------------
    64      0.796758  3 H  s                 70      0.796750  4 H  s          
    21      0.466201  1 O  d -1              53     -0.445851  2 O  d  0       
     5     -0.420243  1 O  s                 36     -0.420194  2 O  s          
    24     -0.408896  1 O  d  2              55      0.371926  2 O  d  2       
    44     -0.339721  2 O  py                54      0.293197  2 O  d  1       
 
 Vector   31  Occ=0.000000D+00  E= 1.725108D+00
              MO Center= -8.3D+00,  2.7D+00,  8.9D-02, r^2= 1.8D+00
   Bfn.  Coefficient  Atom+Function         Bfn.  Coefficient  Atom+Function  
  ----- ------------  ---------------      ----- ------------  ---------------
     5      0.957763  1 O  s                 36     -0.957776  2 O  s          
    13     -0.561100  1 O  py                22     -0.506290  1 O  d  0       
    45      0.495200  2 O  pz                51     -0.449175  2 O  d -2       
    73      0.396899  4 H  py                54     -0.368311  2 O  d  1       
    43     -0.339241  2 O  px                14      0.334226  1 O  pz         
 
 Vector   32  Occ=0.000000D+00  E= 1.853929D+00
              MO Center= -8.3D+00,  2.7D+00,  6.7D-02, r^2= 2.3D+00
   Bfn.  Coefficient  Atom+Function         Bfn.  Coefficient  Atom+Function  
  ----- ------------  ---------------      ----- ------------  ---------------
     5      2.233205  1 O  s                 36     -2.233198  2 O  s          
     4     -1.196553  1 O  s                 35      1.196535  2 O  s          
    44     -1.009568  2 O  py                14      0.892058  1 O  pz         
    64      0.709121  3 H  s                 70     -0.709113  4 H  s          
    12     -0.609631  1 O  px                45      0.606728  2 O  pz         
 
 Vector   33  Occ=0.000000D+00  E= 1.961437D+00
              MO Center= -8.4D+00,  2.8D+00,  1.5D-01, r^2= 1.9D+00
   Bfn.  Coefficient  Atom+Function         Bfn.  Coefficient  Atom+Function  
  ----- ------------  ---------------      ----- ------------  ---------------
    72      0.727796  4 H  px                64     -0.625410  3 H  s          
    70     -0.625405  4 H  s                 67     -0.525905  3 H  py         
    68     -0.513122  3 H  pz                20     -0.472067  1 O  d -2       
    54      0.369529  2 O  d  1               4      0.361928  1 O  s          
    35      0.361913  2 O  s                 55     -0.343669  2 O  d  2       
 
 Vector   34  Occ=0.000000D+00  E= 2.007654D+00
              MO Center= -8.3D+00,  2.7D+00,  6.3D-02, r^2= 1.9D+00
   Bfn.  Coefficient  Atom+Function         Bfn.  Coefficient  Atom+Function  
  ----- ------------  ---------------      ----- ------------  ---------------
     5      0.997503  1 O  s                 36     -0.997512  2 O  s          
    67      0.642655  3 H  py                20      0.613323  1 O  d -2       
    64     -0.581121  3 H  s                 70      0.581099  4 H  s          
    72      0.557828  4 H  px                13     -0.470509  1 O  py         
    54      0.468391  2 O  d  1              44     -0.457865  2 O  py         
 
 Vector   35  Occ=0.000000D+00  E= 2.056731D+00
              MO Center= -8.3D+00,  2.7D+00,  7.7D-02, r^2= 1.9D+00
   Bfn.  Coefficient  Atom+Function         Bfn.  Coefficient  Atom+Function  
  ----- ------------  ---------------      ----- ------------  ---------------
    68      0.595899  3 H  pz                23     -0.533088  1 O  d  1       
    55     -0.515509  2 O  d  2              64      0.507382  3 H  s          
    70     -0.507305  4 H  s                 53     -0.481819  2 O  d  0       
    24     -0.434961  1 O  d  2              74      0.417668  4 H  pz         
    73     -0.394326  4 H  py                 4     -0.364185  1 O  s          
 
 Vector   36  Occ=0.000000D+00  E= 2.092097D+00
              MO Center= -8.3D+00,  2.6D+00,  4.2D-02, r^2= 2.2D+00
   Bfn.  Coefficient  Atom+Function         Bfn.  Coefficient  Atom+Function  
  ----- ------------  ---------------      ----- ------------  ---------------
    64      0.895648  3 H  s                 70      0.895656  4 H  s          
     9      0.808725  1 O  px                 4     -0.675195  1 O  s          
    35     -0.675218  2 O  s                 42     -0.605512  2 O  pz         
    73     -0.591176  4 H  py                66      0.554163  3 H  px         
    41     -0.486144  2 O  py                22     -0.459171  1 O  d  0       
 
 Vector   37  Occ=0.000000D+00  E= 2.178985D+00
              MO Center= -8.4D+00,  2.8D+00,  1.4D-01, r^2= 2.4D+00
   Bfn.  Coefficient  Atom+Function         Bfn.  Coefficient  Atom+Function  
  ----- ------------  ---------------      ----- ------------  ---------------
    64      1.563335  3 H  s                 70     -1.563292  4 H  s          
     5     -1.291229  1 O  s                 36      1.291226  2 O  s          
    42      0.851306  2 O  pz                 4     -0.844835  1 O  s          
    35      0.844803  2 O  s                  9      0.756988  1 O  px         
    45     -0.746384  2 O  pz                66      0.747826  3 H  px         
 
 Vector   38  Occ=0.000000D+00  E= 2.218739D+00
              MO Center= -8.4D+00,  2.7D+00,  9.5D-02, r^2= 2.0D+00
   Bfn.  Coefficient  Atom+Function         Bfn.  Coefficient  Atom+Function  
  ----- ------------  ---------------      ----- ------------  ---------------
    64      1.319935  3 H  s                 70      1.320009  4 H  s          
     4     -0.820061  1 O  s                 35     -0.820095  2 O  s          
    42     -0.735500  2 O  pz                74     -0.674301  4 H  pz         
     9      0.620795  1 O  px                10     -0.551557  1 O  py         
    68      0.488500  3 H  pz                 3      0.459899  1 O  s          
 
 Vector   39  Occ=0.000000D+00  E= 2.384789D+00
              MO Center= -8.3D+00,  2.6D+00,  4.2D-02, r^2= 1.8D+00
   Bfn.  Coefficient  Atom+Function         Bfn.  Coefficient  Atom+Function  
  ----- ------------  ---------------      ----- ------------  ---------------
    11      0.981174  1 O  pz                64      0.955351  3 H  s          
    70      0.955421  4 H  s                 41      0.722307  2 O  py         
    38     -0.709484  2 O  py                44     -0.590511  2 O  py         
     8     -0.585503  1 O  pz                40     -0.559207  2 O  px         
     4     -0.522059  1 O  s                 35     -0.522084  2 O  s          
 
 Vector   40  Occ=0.000000D+00  E= 2.400954D+00
              MO Center= -8.3D+00,  2.6D+00,  3.5D-02, r^2= 1.4D+00
   Bfn.  Coefficient  Atom+Function         Bfn.  Coefficient  Atom+Function  
  ----- ------------  ---------------      ----- ------------  ---------------
     4      1.213467  1 O  s                 35      1.212612  2 O  s          
    64     -0.730118  3 H  s                 70     -0.728858  4 H  s          
    10     -0.683624  1 O  py                39      0.680833  2 O  pz         
     3     -0.666045  1 O  s                 34     -0.665913  2 O  s          
     7      0.580144  1 O  py                74      0.540757  4 H  pz         
 
 Vector   41  Occ=0.000000D+00  E= 2.401973D+00
              MO Center= -8.3D+00,  2.6D+00,  4.6D-02, r^2= 1.9D+00
   Bfn.  Coefficient  Atom+Function         Bfn.  Coefficient  Atom+Function  
  ----- ------------  ---------------      ----- ------------  ---------------
    64      0.848773  3 H  s                 70     -0.849728  4 H  s          
    45      0.731245  2 O  pz                74      0.660968  4 H  pz         
    66      0.624257  3 H  px                 4     -0.590633  1 O  s          
     6      0.590418  1 O  px                35      0.592307  2 O  s          
    12      0.581934  1 O  px                14      0.527027  1 O  pz         
 
 Vector   42  Occ=0.000000D+00  E= 2.548601D+00
              MO Center= -8.3D+00,  2.7D+00,  6.7D-02, r^2= 1.9D+00
   Bfn.  Coefficient  Atom+Function         Bfn.  Coefficient  Atom+Function  
  ----- ------------  ---------------      ----- ------------  ---------------
    64      1.539482  3 H  s                 70      1.539919  4 H  s          
     5     -1.247946  1 O  s                 36     -1.248609  2 O  s          
    66      1.003624  3 H  px                74     -0.722877  4 H  pz         
     3     -0.650950  1 O  s                 34     -0.651182  2 O  s          
    73     -0.621834  4 H  py                10     -0.618229  1 O  py         
 
 Vector   43  Occ=0.000000D+00  E= 2.554470D+00
              MO Center= -8.5D+00,  2.8D+00,  1.7D-01, r^2= 1.5D+00
   Bfn.  Coefficient  Atom+Function         Bfn.  Coefficient  Atom+Function  
  ----- ------------  ---------------      ----- ------------  ---------------
     5      1.721958  1 O  s                 36     -1.721402  2 O  s          
    40     -1.034205  2 O  px                64     -1.034853  3 H  s          
    70      1.034235  4 H  s                 10     -0.799627  1 O  py         
     4     -0.671086  1 O  s                 35      0.670842  2 O  s          
    66     -0.662766  3 H  px                 3      0.650369  1 O  s          
 
 Vector   44  Occ=0.000000D+00  E= 2.662970D+00
              MO Center= -8.1D+00,  2.4D+00, -9.8D-02, r^2= 1.6D+00
   Bfn.  Coefficient  Atom+Function         Bfn.  Coefficient  Atom+Function  
  ----- ------------  ---------------      ----- ------------  ---------------
     5      2.620975  1 O  s                 36     -2.620926  2 O  s          
     4     -2.140484  1 O  s                 35      2.140406  2 O  s          
     3      1.395909  1 O  s                 34     -1.395861  2 O  s          
    41     -0.955467  2 O  py                 9     -0.737501  1 O  px         
    11      0.614790  1 O  pz                13     -0.557193  1 O  py         
 
 Vector   45  Occ=0.000000D+00  E= 2.705493D+00
              MO Center= -8.3D+00,  2.7D+00,  8.2D-02, r^2= 1.7D+00
   Bfn.  Coefficient  Atom+Function         Bfn.  Coefficient  Atom+Function  
  ----- ------------  ---------------      ----- ------------  ---------------
     4      2.436321  1 O  s                 35      2.436445  2 O  s          
     3     -1.623665  1 O  s                 34     -1.623744  2 O  s          
     5     -1.593271  1 O  s                 36     -1.593404  2 O  s          
    40     -0.668682  2 O  px                 9      0.537847  1 O  px         
    10      0.448184  1 O  py                37      0.418049  2 O  px         
 
 Vector   46  Occ=0.000000D+00  E= 3.559661D+00
              MO Center= -8.4D+00,  2.8D+00,  1.2D-01, r^2= 1.7D+00
   Bfn.  Coefficient  Atom+Function         Bfn.  Coefficient  Atom+Function  
  ----- ------------  ---------------      ----- ------------  ---------------
     4      2.984129  1 O  s                 35     -2.984045  2 O  s          
     9     -1.696415  1 O  px                64     -1.482969  3 H  s          
    70      1.482926  4 H  s                  3     -1.469077  1 O  s          
    34      1.469047  2 O  s                 42     -1.243486  2 O  pz         
    41     -1.160291  2 O  py                66     -1.163724  3 H  px         
 
 Vector   47  Occ=0.000000D+00  E= 3.608041D+00
              MO Center= -8.4D+00,  2.7D+00,  1.1D-01, r^2= 1.7D+00
   Bfn.  Coefficient  Atom+Function         Bfn.  Coefficient  Atom+Function  
  ----- ------------  ---------------      ----- ------------  ---------------
     4      2.557326  1 O  s                 35      2.557343  2 O  s          
     9     -1.726829  1 O  px                42      1.454238  2 O  pz         
    64     -1.325312  3 H  s                 70     -1.325353  4 H  s          
     3     -1.177134  1 O  s                 34     -1.177129  2 O  s          
    66     -1.132065  3 H  px                41      0.995458  2 O  py         
 
 Vector   48  Occ=0.000000D+00  E= 3.760661D+00
              MO Center= -8.3D+00,  2.6D+00,  2.5D-02, r^2= 9.7D-01
   Bfn.  Coefficient  Atom+Function         Bfn.  Coefficient  Atom+Function  
  ----- ------------  ---------------      ----- ------------  ---------------
    42      1.573346  2 O  pz                11      1.357166  1 O  pz         
     4      1.185157  1 O  s                 35     -1.185264  2 O  s          
    10     -1.071586  1 O  py                 3     -0.988587  1 O  s          
    34      0.988637  2 O  s                 52      0.763813  2 O  d -1       
    41     -0.691522  2 O  py                39     -0.584411  2 O  pz         
 
 Vector   49  Occ=0.000000D+00  E= 4.686117D+00
              MO Center= -8.2D+00,  2.6D+00,  2.1D-02, r^2= 1.1D+00
   Bfn.  Coefficient  Atom+Function         Bfn.  Coefficient  Atom+Function  
  ----- ------------  ---------------      ----- ------------  ---------------
    30      0.343612  1 O  f  2              28      0.335465  1 O  f  0       
    26      0.332990  1 O  f -2              57      0.314785  2 O  f -2       
    59      0.302176  2 O  f  0              60      0.294796  2 O  f  1       
    61      0.279668  2 O  f  2              56     -0.278151  2 O  f -3       
    25     -0.265091  1 O  f -3               9      0.261870  1 O  px         
 
 Vector   50  Occ=0.000000D+00  E= 4.734935D+00
              MO Center= -8.3D+00,  2.6D+00,  2.4D-02, r^2= 1.0D+00
   Bfn.  Coefficient  Atom+Function         Bfn.  Coefficient  Atom+Function  
  ----- ------------  ---------------      ----- ------------  ---------------
    27      0.494162  1 O  f -1              58     -0.397750  2 O  f -1       
    61     -0.360112  2 O  f  2              57      0.354136  2 O  f -2       
     5     -0.275343  1 O  s                 36     -0.275350  2 O  s          
    30      0.260755  1 O  f  2              31      0.255752  1 O  f  3       
    26     -0.248891  1 O  f -2               4      0.225363  1 O  s          
 
 Vector   51  Occ=0.000000D+00  E= 4.758978D+00
              MO Center= -8.2D+00,  2.6D+00,  2.1D-02, r^2= 1.1D+00
   Bfn.  Coefficient  Atom+Function         Bfn.  Coefficient  Atom+Function  
  ----- ------------  ---------------      ----- ------------  ---------------
    26     -0.492743  1 O  f -2               4      0.464150  1 O  s          
    35     -0.464167  2 O  s                 62      0.447823  2 O  f  3       
     9     -0.388912  1 O  px                59      0.381671  2 O  f  0       
    27     -0.344969  1 O  f -1              28      0.296583  1 O  f  0       
    42     -0.262106  2 O  pz                41     -0.255303  2 O  py         
 
 Vector   52  Occ=0.000000D+00  E= 4.863215D+00
              MO Center= -8.2D+00,  2.6D+00,  1.3D-02, r^2= 1.1D+00
   Bfn.  Coefficient  Atom+Function         Bfn.  Coefficient  Atom+Function  
  ----- ------------  ---------------      ----- ------------  ---------------
    29      0.519289  1 O  f  1              56     -0.471282  2 O  f -3       
    60     -0.432880  2 O  f  1              25      0.285114  1 O  f -3       
    31      0.248347  1 O  f  3              28     -0.235792  1 O  f  0       
    62     -0.207109  2 O  f  3              61      0.125009  2 O  f  2       
    27     -0.110700  1 O  f -1              68      0.099439  3 H  pz         
 
 Vector   53  Occ=0.000000D+00  E= 4.966993D+00
              MO Center= -8.3D+00,  2.6D+00,  3.4D-02, r^2= 1.1D+00
   Bfn.  Coefficient  Atom+Function         Bfn.  Coefficient  Atom+Function  
  ----- ------------  ---------------      ----- ------------  ---------------
    31      0.521339  1 O  f  3              56      0.476581  2 O  f -3       
    59      0.377343  2 O  f  0              28     -0.354347  1 O  f  0       
    27     -0.254422  1 O  f -1              62     -0.238825  2 O  f  3       
    60      0.185679  2 O  f  1              58      0.178402  2 O  f -1       
    11      0.171317  1 O  pz                42      0.169162  2 O  pz         
 
 Vector   54  Occ=0.000000D+00  E= 5.178819D+00
              MO Center= -8.3D+00,  2.6D+00,  2.7D-02, r^2= 1.0D+00
   Bfn.  Coefficient  Atom+Function         Bfn.  Coefficient  Atom+Function  
  ----- ------------  ---------------      ----- ------------  ---------------
    25      0.573590  1 O  f -3              62      0.411045  2 O  f  3       
    56      0.359022  2 O  f -3              29      0.338493  1 O  f  1       
    59     -0.289772  2 O  f  0              60      0.235463  2 O  f  1       
    61      0.201983  2 O  f  2              30      0.190447  1 O  f  2       
    67     -0.175236  3 H  py                15     -0.158345  1 O  d -2       
 
 Vector   55  Occ=0.000000D+00  E= 5.239178D+00
              MO Center= -8.3D+00,  2.6D+00,  2.9D-02, r^2= 1.1D+00
   Bfn.  Coefficient  Atom+Function         Bfn.  Coefficient  Atom+Function  
  ----- ------------  ---------------      ----- ------------  ---------------
    60      0.517978  2 O  f  1              29      0.485793  1 O  f  1       
    30     -0.358118  1 O  f  2              61     -0.320651  2 O  f  2       
    56     -0.236584  2 O  f -3              26     -0.233703  1 O  f -2       
    58      0.233759  2 O  f -1              27      0.226661  1 O  f -1       
    25     -0.203196  1 O  f -3              72      0.198978  4 H  px         
 
 Vector   56  Occ=0.000000D+00  E= 5.248444D+00
              MO Center= -8.3D+00,  2.6D+00,  3.9D-02, r^2= 1.1D+00
   Bfn.  Coefficient  Atom+Function         Bfn.  Coefficient  Atom+Function  
  ----- ------------  ---------------      ----- ------------  ---------------
    56      0.414378  2 O  f -3              61      0.407993  2 O  f  2       
    29      0.383721  1 O  f  1              30     -0.380981  1 O  f  2       
    25     -0.355255  1 O  f -3              60     -0.300748  2 O  f  1       
    57      0.233565  2 O  f -2              27      0.219759  1 O  f -1       
    68      0.209917  3 H  pz                72     -0.203072  4 H  px         
 
 Vector   57  Occ=0.000000D+00  E= 5.256417D+00
              MO Center= -8.3D+00,  2.6D+00,  3.7D-02, r^2= 1.0D+00
   Bfn.  Coefficient  Atom+Function         Bfn.  Coefficient  Atom+Function  
  ----- ------------  ---------------      ----- ------------  ---------------
    62      0.550433  2 O  f  3              31      0.395537  1 O  f  3       
    28     -0.393455  1 O  f  0              25     -0.384030  1 O  f -3       
    58     -0.280625  2 O  f -1              59     -0.275381  2 O  f  0       
     9     -0.204534  1 O  px                74      0.195118  4 H  pz         
    60     -0.169854  2 O  f  1              67      0.169698  3 H  py         
 
 Vector   58  Occ=0.000000D+00  E= 5.482657D+00
              MO Center= -8.2D+00,  2.6D+00,  1.3D-02, r^2= 9.9D-01
   Bfn.  Coefficient  Atom+Function         Bfn.  Coefficient  Atom+Function  
  ----- ------------  ---------------      ----- ------------  ---------------
    59      0.578304  2 O  f  0              26      0.513421  1 O  f -2       
     4      0.456835  1 O  s                 35      0.456892  2 O  s          
     9     -0.405730  1 O  px                27      0.386109  1 O  f -1       
    42      0.361096  2 O  pz                64     -0.343075  3 H  s          
    70     -0.343117  4 H  s                 66     -0.297498  3 H  px         
 
 Vector   59  Occ=0.000000D+00  E= 5.510156D+00
              MO Center= -8.2D+00,  2.6D+00,  2.1D-02, r^2= 9.1D-01
   Bfn.  Coefficient  Atom+Function         Bfn.  Coefficient  Atom+Function  
  ----- ------------  ---------------      ----- ------------  ---------------
    28      0.397812  1 O  f  0              57     -0.396970  2 O  f -2       
    42     -0.342794  2 O  pz                59     -0.330589  2 O  f  0       
     9     -0.315298  1 O  px                61     -0.292418  2 O  f  2       
    29      0.286773  1 O  f  1              26      0.262791  1 O  f -2       
     4      0.249732  1 O  s                 35     -0.249647  2 O  s          
 
 Vector   60  Occ=0.000000D+00  E= 5.826030D+00
              MO Center= -8.3D+00,  2.6D+00,  4.8D-02, r^2= 1.0D+00
   Bfn.  Coefficient  Atom+Function         Bfn.  Coefficient  Atom+Function  
  ----- ------------  ---------------      ----- ------------  ---------------
    42      0.658594  2 O  pz                 9      0.590512  1 O  px         
    47      0.553576  2 O  d -1               4     -0.479926  1 O  s          
    35      0.479907  2 O  s                 66      0.459185  3 H  px         
    63      0.426400  3 H  s                 69     -0.426391  4 H  s          
    74      0.411244  4 H  pz                11      0.381389  1 O  pz         
 
 Vector   61  Occ=0.000000D+00  E= 5.941276D+00
              MO Center= -8.3D+00,  2.7D+00,  7.1D-02, r^2= 1.1D+00
   Bfn.  Coefficient  Atom+Function         Bfn.  Coefficient  Atom+Function  
  ----- ------------  ---------------      ----- ------------  ---------------
     4      0.998144  1 O  s                 35      0.998174  2 O  s          
     9     -0.764772  1 O  px                42      0.654674  2 O  pz         
    66     -0.568700  3 H  px                63     -0.507509  3 H  s          
    69     -0.507519  4 H  s                 74      0.506134  4 H  pz         
    64     -0.469833  3 H  s                 70     -0.469840  4 H  s          
 
 Vector   62  Occ=0.000000D+00  E= 6.041253D+00
              MO Center= -8.3D+00,  2.6D+00,  3.0D-02, r^2= 9.4D-01
   Bfn.  Coefficient  Atom+Function         Bfn.  Coefficient  Atom+Function  
  ----- ------------  ---------------      ----- ------------  ---------------
     4      1.178456  1 O  s                 35     -1.178439  2 O  s          
     5     -1.088725  1 O  s                 36      1.088718  2 O  s          
    16     -0.652949  1 O  d -1               3     -0.540230  1 O  s          
    34      0.540225  2 O  s                 48     -0.532824  2 O  d  0       
     9     -0.426363  1 O  px                44      0.380208  2 O  py         
 
 Vector   63  Occ=0.000000D+00  E= 6.090441D+00
              MO Center= -8.2D+00,  2.6D+00,  2.0D-02, r^2= 9.1D-01
   Bfn.  Coefficient  Atom+Function         Bfn.  Coefficient  Atom+Function  
  ----- ------------  ---------------      ----- ------------  ---------------
    50      0.567748  2 O  d  2              18     -0.480049  1 O  d  1       
    19     -0.477003  1 O  d  2              17     -0.407235  1 O  d  0       
    49      0.356513  2 O  d  1              48      0.338324  2 O  d  0       
    55     -0.283892  2 O  d  2              46      0.260440  2 O  d -2       
    23      0.249452  1 O  d  1              24      0.230795  1 O  d  2       
 
 Vector   64  Occ=0.000000D+00  E= 6.162926D+00
              MO Center= -8.2D+00,  2.6D+00,  4.1D-03, r^2= 9.4D-01
   Bfn.  Coefficient  Atom+Function         Bfn.  Coefficient  Atom+Function  
  ----- ------------  ---------------      ----- ------------  ---------------
    15      0.660221  1 O  d -2              49     -0.493900  2 O  d  1       
    20     -0.378030  1 O  d -2              50      0.372538  2 O  d  2       
    54      0.358133  2 O  d  1              47     -0.351951  2 O  d -1       
    46      0.310987  2 O  d -2              18     -0.302600  1 O  d  1       
    17      0.293679  1 O  d  0              64      0.277092  3 H  s          
 
 Vector   65  Occ=0.000000D+00  E= 6.166781D+00
              MO Center= -8.2D+00,  2.6D+00,  1.4D-02, r^2= 9.2D-01
   Bfn.  Coefficient  Atom+Function         Bfn.  Coefficient  Atom+Function  
  ----- ------------  ---------------      ----- ------------  ---------------
    46      0.583443  2 O  d -2              17      0.575244  1 O  d  0       
    15     -0.456433  1 O  d -2              49      0.391877  2 O  d  1       
    48     -0.380492  2 O  d  0              51     -0.332358  2 O  d -2       
    22     -0.309963  1 O  d  0               5      0.305074  1 O  s          
    36     -0.305145  2 O  s                 18     -0.289369  1 O  d  1       
 
 Vector   66  Occ=0.000000D+00  E= 6.243828D+00
              MO Center= -8.2D+00,  2.6D+00,  1.9D-02, r^2= 9.7D-01
   Bfn.  Coefficient  Atom+Function         Bfn.  Coefficient  Atom+Function  
  ----- ------------  ---------------      ----- ------------  ---------------
    15      0.592248  1 O  d -2              18     -0.516783  1 O  d  1       
    50     -0.489477  2 O  d  2              49      0.456289  2 O  d  1       
    20     -0.419913  1 O  d -2              46     -0.383823  2 O  d -2       
    55      0.345022  2 O  d  2              23      0.288150  1 O  d  1       
     4      0.275084  1 O  s                 35     -0.275064  2 O  s          
 
 Vector   67  Occ=0.000000D+00  E= 6.475549D+00
              MO Center= -8.3D+00,  2.6D+00,  2.4D-02, r^2= 1.0D+00
   Bfn.  Coefficient  Atom+Function         Bfn.  Coefficient  Atom+Function  
  ----- ------------  ---------------      ----- ------------  ---------------
    64     -0.708183  3 H  s                 70     -0.708151  4 H  s          
    16      0.702169  1 O  d -1              42      0.572334  2 O  pz         
    46     -0.554283  2 O  d -2               9     -0.547976  1 O  px         
    51      0.476839  2 O  d -2              21     -0.450921  1 O  d -1       
    50      0.440397  2 O  d  2              24      0.411081  1 O  d  2       
 
 Vector   68  Occ=0.000000D+00  E= 6.593868D+00
              MO Center= -8.2D+00,  2.6D+00,  2.0D-02, r^2= 1.1D+00
   Bfn.  Coefficient  Atom+Function         Bfn.  Coefficient  Atom+Function  
  ----- ------------  ---------------      ----- ------------  ---------------
    24      0.820879  1 O  d  2              64     -0.793689  3 H  s          
    70      0.793695  4 H  s                 19     -0.718461  1 O  d  2       
     9     -0.705385  1 O  px                 4      0.696876  1 O  s          
    35     -0.696863  2 O  s                  5      0.626963  1 O  s          
    36     -0.626974  2 O  s                 54      0.549204  2 O  d  1       
 
 Vector   69  Occ=0.000000D+00  E= 6.697170D+00
              MO Center= -8.2D+00,  2.6D+00,  1.5D-02, r^2= 1.1D+00
   Bfn.  Coefficient  Atom+Function         Bfn.  Coefficient  Atom+Function  
  ----- ------------  ---------------      ----- ------------  ---------------
    17      0.629718  1 O  d  0              22     -0.591519  1 O  d  0       
    48      0.564703  2 O  d  0              53     -0.483909  2 O  d  0       
    47     -0.452002  2 O  d -1              51      0.423715  2 O  d -2       
    46     -0.390952  2 O  d -2              52      0.391195  2 O  d -1       
    16     -0.304587  1 O  d -1              19     -0.294568  1 O  d  2       
 
 Vector   70  Occ=0.000000D+00  E= 6.765142D+00
              MO Center= -8.2D+00,  2.6D+00,  2.1D-02, r^2= 1.2D+00
   Bfn.  Coefficient  Atom+Function         Bfn.  Coefficient  Atom+Function  
  ----- ------------  ---------------      ----- ------------  ---------------
     4      1.202945  1 O  s                 35     -1.202958  2 O  s          
    64     -1.024904  3 H  s                 70      1.024931  4 H  s          
     9     -0.942474  1 O  px                42     -0.732150  2 O  pz         
    66     -0.712947  3 H  px                23     -0.689440  1 O  d  1       
    63     -0.659632  3 H  s                 69      0.659637  4 H  s          
 
 Vector   71  Occ=0.000000D+00  E= 6.973498D+00
              MO Center= -8.2D+00,  2.6D+00,  2.1D-02, r^2= 1.2D+00
   Bfn.  Coefficient  Atom+Function         Bfn.  Coefficient  Atom+Function  
  ----- ------------  ---------------      ----- ------------  ---------------
     4      1.336856  1 O  s                 35      1.336847  2 O  s          
    64     -0.923234  3 H  s                 70     -0.923209  4 H  s          
     9     -0.917897  1 O  px                52      0.790133  2 O  d -1       
    42      0.728982  2 O  pz                63     -0.706705  3 H  s          
    69     -0.706684  4 H  s                 66     -0.679836  3 H  px         
 
 Vector   72  Occ=0.000000D+00  E= 7.599609D+00
              MO Center= -8.2D+00,  2.6D+00,  1.9D-02, r^2= 1.1D+00
   Bfn.  Coefficient  Atom+Function         Bfn.  Coefficient  Atom+Function  
  ----- ------------  ---------------      ----- ------------  ---------------
    42      1.391184  2 O  pz                52      1.290422  2 O  d -1       
    11      1.271049  1 O  pz                21     -1.097714  1 O  d -1       
    10     -1.053768  1 O  py                 4      1.046208  1 O  s          
    35     -1.046183  2 O  s                  5      0.918335  1 O  s          
    36     -0.918334  2 O  s                 41     -0.842607  2 O  py         
 
 Vector   73  Occ=0.000000D+00  E= 4.264616D+01
              MO Center= -8.2D+00,  2.6D+00,  2.0D-02, r^2= 6.9D-01
   Bfn.  Coefficient  Atom+Function         Bfn.  Coefficient  Atom+Function  
  ----- ------------  ---------------      ----- ------------  ---------------
     2      1.194723  1 O  s                 33      1.194691  2 O  s          
     4      1.094698  1 O  s                 35      1.094662  2 O  s          
     3     -1.059505  1 O  s                 34     -1.059473  2 O  s          
     1     -0.982137  1 O  s                 32     -0.982111  2 O  s          
     5     -0.469296  1 O  s                 36     -0.469279  2 O  s          
 
 Vector   74  Occ=0.000000D+00  E= 4.309208D+01
              MO Center= -8.2D+00,  2.6D+00,  1.9D-02, r^2= 6.9D-01
   Bfn.  Coefficient  Atom+Function         Bfn.  Coefficient  Atom+Function  
  ----- ------------  ---------------      ----- ------------  ---------------
     4      1.364044  1 O  s                 35     -1.364071  2 O  s          
     3     -1.222269  1 O  s                 34      1.222297  2 O  s          
     2      1.213701  1 O  s                 33     -1.213732  2 O  s          
     1     -0.985087  1 O  s                 32      0.985113  2 O  s          
     5     -0.659089  1 O  s                 36      0.659100  2 O  s          
 

 center of mass
 --------------
 x = -15.61131399 y =   4.91631940 z =   0.05853633

 moments of inertia (a.u.)
 ------------------
          73.562641189086          -9.157394019401           9.704233655916
          -9.157394019401          51.670390014760          32.922855220484
           9.704233655916          32.922855220484          34.185112734441
 
     Multipole analysis of the density
     ---------------------------------
 
     L   x y z        total         alpha         beta         nuclear
     -   - - -        -----         -----         ----         -------
     0   0 0 0     -0.000000     -9.000000     -9.000000     18.000000
 
     1   1 0 0     -0.401625    140.561972    140.561972   -281.525569
     1   0 1 0      0.486138    -44.319717    -44.319717     89.125572
     1   0 0 1      0.276610     -0.568240     -0.568240      1.413090
 
     2   2 0 0      3.776338  -2201.646551  -2201.646551   4407.069440
     2   1 1 0    -10.345312    689.885422    689.885422  -1390.116156
     2   1 0 1     -2.719238     11.401218     11.401218    -25.521673
     2   0 2 0     -4.756362   -230.386829   -230.386829    456.017297
     2   0 1 1      1.311099      5.871807      5.871807    -10.432514
     2   0 0 2     -6.410639    -16.913385    -16.913385     27.416132
 
 
            General Information
            -------------------
          SCF calculation type: DFT
          Wavefunction type:  closed shell.
          No. of atoms     :     4
          No. of electrons :    18
           Alpha electrons :     9
            Beta electrons :     9
          Charge           :     0
          Spin multiplicity:     1
          Use of symmetry is: off; symmetry adaption is: off
          Maximum number of iterations: 250
          This is a Direct SCF calculation.
          AO basis - number of functions:    74
                     number of shells:    30
          Convergence on energy requested:  1.00D-08
          Convergence on density requested:  1.00D-05
          Convergence on gradient requested:  1.00D-08
 
              XC Information
              --------------
                    Becke 1988 Exchange Functional  1.000          
              Lee-Yang-Parr Correlation Functional  1.000          
 
             Grid Information
             ----------------
          Grid used for XC integration:  xfine     
          Radial quadrature: Mura-Knowles        
          Angular quadrature: Lebedev. 
          Tag              B.-S. Rad. Rad. Pts. Rad. Cut. Ang. Pts.
          ---              ---------- --------- --------- ---------
          O                   0.60      100           8.0      1454
          H                   0.35      100           9.0      1202
          Grid pruning is: on 
          Number of quadrature shells:   400
          Spatial weights used:  Erf1
 
          Convergence Information
          -----------------------
          Convergence aids based upon iterative change in 
          total energy or number of iterations. 
          Levelshifting, if invoked, occurs when the 
          HOMO/LUMO gap drops below (HL_TOL):  1.00D-02
          DIIS, if invoked, will attempt to extrapolate 
          using up to (NFOCK): 10 stored Fock matrices.

                    Damping( 0%)  Levelshifting(0.0)       DIIS
                  --------------- ------------------- ---------------
          dE  on:    start             N/A                start   
          dE off:    2 iters           N/A              250 iters 

 
      Screening Tolerance Information
      -------------------------------
          Density screening/tol_rho:  1.00D-11
          AO Gaussian exp screening on grid/accAOfunc:  18
          CD Gaussian exp screening on grid/accCDfunc:  20
          XC Gaussian exp screening on grid/accXCfunc:  20
          Schwarz screening/accCoul:  1.00D-09

 
 
                            NWChem DFT Gradient Module
                            --------------------------
 
 
                         h2o2 roa calculations at 514.5 nm, input generated by va with delta_type=2
 
 

  charge          =   0.00
  wavefunction    = closed shell



                         DFT ENERGY GRADIENTS

    atom               coordinates                        gradient
                 x          y          z           x          y          z
   1 O     -15.209119   5.786840  -1.029166    0.004505   0.009786  -0.011756
   2 O     -15.947197   3.965524   1.100571   -0.003992  -0.010409   0.011400
   3 H     -16.907964   6.116875  -1.688374   -0.000399   0.000230   0.000112
   4 H     -15.367070   4.989787   2.530222   -0.000113   0.000393   0.000245
 
                 ----------------------------------------
                 |  Time  |  1-e(secs)   |  2-e(secs)   |
                 ----------------------------------------
                 |  CPU   |       0.01   |       2.22   |
                 ----------------------------------------
                 |  WALL  |       0.01   |       2.23   |
                 ----------------------------------------

 Task  times  cpu:       34.7s     wall:       36.3s
 
 
                                NWChem Input Module
                                -------------------
 
 
                              NWChem Property Module
                              ----------------------
 
 
                         h2o2 roa calculations at 514.5 nm, input generated by va with delta_type=2
 
 
                                 NWChem DFT Module
                                 -----------------
 
 
                         h2o2 roa calculations at 514.5 nm, input generated by va with delta_type=2
 
 


 Summary of "ao basis" -> "ao basis" (spherical)
 ------------------------------------------------------------------------------
       Tag                 Description            Shells   Functions and Types
 ---------------- ------------------------------  ------  ---------------------
 O                         def2-TZVP                11       31   5s3p2d1f
 H                         def2-TZVP                 4        6   3s1p


  Caching 1-el integrals 
 
            General Information
            -------------------
          SCF calculation type: DFT
          Wavefunction type:  closed shell.
          No. of atoms     :     4
          No. of electrons :    18
           Alpha electrons :     9
            Beta electrons :     9
          Charge           :     0
          Spin multiplicity:     1
          Use of symmetry is: off; symmetry adaption is: off
          Maximum number of iterations: 250
          This is a Direct SCF calculation.
          AO basis - number of functions:    74
                     number of shells:    30
          Convergence on energy requested:  1.00D-08
          Convergence on density requested:  1.00D-05
          Convergence on gradient requested:  1.00D-08
 
              XC Information
              --------------
                    Becke 1988 Exchange Functional  1.000          
              Lee-Yang-Parr Correlation Functional  1.000          
 
             Grid Information
             ----------------
          Grid used for XC integration:  xfine     
          Radial quadrature: Mura-Knowles        
          Angular quadrature: Lebedev. 
          Tag              B.-S. Rad. Rad. Pts. Rad. Cut. Ang. Pts.
          ---              ---------- --------- --------- ---------
          O                   0.60      100           8.0      1454
          H                   0.35      100           9.0      1202
          Grid pruning is: on 
          Number of quadrature shells:   400
          Spatial weights used:  Erf1
 
          Convergence Information
          -----------------------
          Convergence aids based upon iterative change in 
          total energy or number of iterations. 
          Levelshifting, if invoked, occurs when the 
          HOMO/LUMO gap drops below (HL_TOL):  1.00D-02
          DIIS, if invoked, will attempt to extrapolate 
          using up to (NFOCK): 10 stored Fock matrices.

                    Damping( 0%)  Levelshifting(0.0)       DIIS
                  --------------- ------------------- ---------------
          dE  on:    start             N/A                start   
          dE off:    2 iters           N/A              250 iters 

 
      Screening Tolerance Information
      -------------------------------
          Density screening/tol_rho:  1.00D-11
          AO Gaussian exp screening on grid/accAOfunc:  18
          CD Gaussian exp screening on grid/accCDfunc:  20
          XC Gaussian exp screening on grid/accXCfunc:  20
          Schwarz screening/accCoul:  1.00D-09


 Loading old vectors from job with title :

h2o2 roa calculations at 514.5 nm, input generated by va with delta_type=2

   Time after variat. SCF:     36.9
   Time prior to 1st pass:     36.9

 Grid_pts file          = ./h2o2_514.5_08.inp.gridpts.0
 Record size in doubles =  12289        No. of grid_pts per rec  =   3070
 Max. records in memory =    210        Max. recs in file   =   3881490


           Memory utilization after 1st SCF pass: 
           Heap Space remaining (MW):       10.52            10522928
          Stack Space remaining (MW):       13.11            13106668

   convergence    iter        energy       DeltaE   RMS-Dens  Diis-err    time
 ---------------- ----- ----------------- --------- --------- ---------  ------
 d= 0,ls=0.0,diis     1   -151.6004864675 -1.87D+02  1.18D-06  3.93D-09    40.5
 d= 0,ls=0.0,diis     2   -151.6004864640  3.46D-09  9.02D-07  4.27D-08    43.9
 d= 0,ls=0.0,diis     3   -151.6004864679 -3.81D-09  5.12D-08  3.49D-11    47.3


         Total DFT energy =     -151.600486467857
      One electron energy =     -278.527707262542
           Coulomb energy =      109.399390180539
    Exchange-Corr. energy =      -17.795362700852
 Nuclear repulsion energy =       35.323193314998

 Numeric. integr. density =       17.999999998618

     Total iterative time =     10.4s


 
                       DFT Final Molecular Orbital Analysis
                       ------------------------------------
 
 Vector    1  Occ=2.000000D+00  E=-1.883425D+01
              MO Center= -8.2D+00,  2.6D+00,  2.9D-02, r^2= 6.0D-01
   Bfn.  Coefficient  Atom+Function         Bfn.  Coefficient  Atom+Function  
  ----- ------------  ---------------      ----- ------------  ---------------
    33     -0.455535  2 O  s                  2      0.447649  1 O  s          
    32     -0.310556  2 O  s                  1      0.305181  1 O  s          
    34     -0.027170  2 O  s                  3      0.026729  1 O  s          
 
 Vector    2  Occ=2.000000D+00  E=-1.883422D+01
              MO Center= -8.2D+00,  2.6D+00,  9.1D-03, r^2= 6.0D-01
   Bfn.  Coefficient  Atom+Function         Bfn.  Coefficient  Atom+Function  
  ----- ------------  ---------------      ----- ------------  ---------------
     2      0.455696  1 O  s                 33      0.447812  2 O  s          
     1      0.310535  1 O  s                 32      0.305161  2 O  s          
     3      0.025507  1 O  s                 34      0.025036  2 O  s          
 
 Vector    3  Occ=2.000000D+00  E=-9.954999D-01
              MO Center= -8.3D+00,  2.6D+00,  5.4D-02, r^2= 8.6D-01
   Bfn.  Coefficient  Atom+Function         Bfn.  Coefficient  Atom+Function  
  ----- ------------  ---------------      ----- ------------  ---------------
     4      0.313912  1 O  s                 35      0.313912  2 O  s          
     3      0.239793  1 O  s                 34      0.239793  2 O  s          
     2     -0.163155  1 O  s                 33     -0.163155  2 O  s          
     5      0.100262  1 O  s                 36      0.100262  2 O  s          
     1     -0.070086  1 O  s                 32     -0.070085  2 O  s          
 
 Vector    4  Occ=2.000000D+00  E=-8.252565D-01
              MO Center= -8.3D+00,  2.7D+00,  7.2D-02, r^2= 1.3D+00
   Bfn.  Coefficient  Atom+Function         Bfn.  Coefficient  Atom+Function  
  ----- ------------  ---------------      ----- ------------  ---------------
     4      0.328103  1 O  s                 35     -0.328104  2 O  s          
     3      0.255935  1 O  s                 34     -0.255936  2 O  s          
     2     -0.168356  1 O  s                 33      0.168356  2 O  s          
     5      0.140320  1 O  s                 36     -0.140320  2 O  s          
    63      0.089451  3 H  s                 69     -0.089451  4 H  s          
 
 Vector    5  Occ=2.000000D+00  E=-4.649230D-01
              MO Center= -8.3D+00,  2.6D+00,  5.6D-02, r^2= 1.3D+00
   Bfn.  Coefficient  Atom+Function         Bfn.  Coefficient  Atom+Function  
  ----- ------------  ---------------      ----- ------------  ---------------
    39      0.310465  2 O  pz                42      0.243667  2 O  pz         
     7      0.205354  1 O  py                 8     -0.196993  1 O  pz         
    10      0.166000  1 O  py                11     -0.156722  1 O  pz         
    64      0.131173  3 H  s                 70      0.131170  4 H  s          
     6     -0.129262  1 O  px                45      0.114577  2 O  pz         
 
 Vector    6  Occ=2.000000D+00  E=-4.310930D-01
              MO Center= -8.3D+00,  2.6D+00,  3.7D-02, r^2= 1.3D+00
   Bfn.  Coefficient  Atom+Function         Bfn.  Coefficient  Atom+Function  
  ----- ------------  ---------------      ----- ------------  ---------------
     6      0.255983  1 O  px                 9      0.190533  1 O  px         
    37      0.171699  2 O  px                39      0.157969  2 O  pz         
     5      0.155252  1 O  s                 36     -0.155255  2 O  s          
    38      0.154312  2 O  py                 4      0.151296  1 O  s          
    35     -0.151299  2 O  s                 64     -0.138751  3 H  s          
 
 Vector    7  Occ=2.000000D+00  E=-3.643642D-01
              MO Center= -8.2D+00,  2.5D+00, -1.6D-02, r^2= 1.4D+00
   Bfn.  Coefficient  Atom+Function         Bfn.  Coefficient  Atom+Function  
  ----- ------------  ---------------      ----- ------------  ---------------
    38      0.319260  2 O  py                41      0.249624  2 O  py         
     6     -0.241112  1 O  px                 8      0.212754  1 O  pz         
     9     -0.184055  1 O  px                11      0.172815  1 O  pz         
    44      0.165788  2 O  py                 5     -0.134848  1 O  s          
    36     -0.134847  2 O  s                 12     -0.119470  1 O  px         
 
 Vector    8  Occ=2.000000D+00  E=-2.779526D-01
              MO Center= -8.3D+00,  2.6D+00,  5.2D-02, r^2= 1.3D+00
   Bfn.  Coefficient  Atom+Function         Bfn.  Coefficient  Atom+Function  
  ----- ------------  ---------------      ----- ------------  ---------------
    37      0.346184  2 O  px                 7     -0.271940  1 O  py         
    40      0.269181  2 O  px                10     -0.217415  1 O  py         
    43      0.215336  2 O  px                13     -0.173118  1 O  py         
     8     -0.168361  1 O  pz                 6     -0.135567  1 O  px         
    11     -0.126010  1 O  pz                14     -0.111229  1 O  pz         
 
 Vector    9  Occ=2.000000D+00  E=-2.360953D-01
              MO Center= -8.2D+00,  2.6D+00,  7.7D-03, r^2= 1.3D+00
   Bfn.  Coefficient  Atom+Function         Bfn.  Coefficient  Atom+Function  
  ----- ------------  ---------------      ----- ------------  ---------------
    37      0.285075  2 O  px                 7      0.275548  1 O  py         
    40      0.224475  2 O  px                10      0.214639  1 O  py         
    38     -0.213316  2 O  py                 8      0.205111  1 O  pz         
    43      0.204672  2 O  px                13      0.187834  1 O  py         
    41     -0.163128  2 O  py                11      0.161568  1 O  pz         
 
 Vector   10  Occ=0.000000D+00  E=-8.158218D-02
              MO Center= -8.3D+00,  2.6D+00,  4.0D-02, r^2= 1.6D+00
   Bfn.  Coefficient  Atom+Function         Bfn.  Coefficient  Atom+Function  
  ----- ------------  ---------------      ----- ------------  ---------------
     5      0.409812  1 O  s                 36     -0.409808  2 O  s          
    44     -0.297871  2 O  py                14      0.289031  1 O  pz         
    45      0.275032  2 O  pz                 8      0.273171  1 O  pz         
    13     -0.273259  1 O  py                39      0.261006  2 O  pz         
[...]
    16      0.702171  1 O  d -1              42      0.572341  2 O  pz         
    46     -0.554282  2 O  d -2               9     -0.547962  1 O  px         
    51      0.476842  2 O  d -2              21     -0.450919  1 O  d -1       
    50      0.440401  2 O  d  2              24      0.411071  1 O  d  2       
 
 Vector   68  Occ=0.000000D+00  E= 6.593868D+00
              MO Center= -8.2D+00,  2.6D+00,  2.0D-02, r^2= 1.1D+00
   Bfn.  Coefficient  Atom+Function         Bfn.  Coefficient  Atom+Function  
  ----- ------------  ---------------      ----- ------------  ---------------
    24      0.820881  1 O  d  2              64     -0.793693  3 H  s          
    70      0.793692  4 H  s                 19     -0.718464  1 O  d  2       
     9     -0.705387  1 O  px                 4      0.696875  1 O  s          
    35     -0.696866  2 O  s                  5      0.626966  1 O  s          
    36     -0.626971  2 O  s                 54      0.549203  2 O  d  1       
 
 Vector   69  Occ=0.000000D+00  E= 6.697169D+00
              MO Center= -8.2D+00,  2.6D+00,  1.5D-02, r^2= 1.1D+00
   Bfn.  Coefficient  Atom+Function         Bfn.  Coefficient  Atom+Function  
  ----- ------------  ---------------      ----- ------------  ---------------
    17      0.629720  1 O  d  0              22     -0.591520  1 O  d  0       
    48      0.564700  2 O  d  0              53     -0.483908  2 O  d  0       
    47     -0.452001  2 O  d -1              51      0.423712  2 O  d -2       
    46     -0.390949  2 O  d -2              52      0.391194  2 O  d -1       
    16     -0.304586  1 O  d -1              19     -0.294572  1 O  d  2       
 
 Vector   70  Occ=0.000000D+00  E= 6.765141D+00
              MO Center= -8.2D+00,  2.6D+00,  2.1D-02, r^2= 1.2D+00
   Bfn.  Coefficient  Atom+Function         Bfn.  Coefficient  Atom+Function  
  ----- ------------  ---------------      ----- ------------  ---------------
     4      1.202933  1 O  s                 35     -1.202969  2 O  s          
    64     -1.024898  3 H  s                 70      1.024936  4 H  s          
     9     -0.942467  1 O  px                42     -0.732154  2 O  pz         
    66     -0.712942  3 H  px                23     -0.689435  1 O  d  1       
    63     -0.659626  3 H  s                 69      0.659642  4 H  s          
 
 Vector   71  Occ=0.000000D+00  E= 6.973498D+00
              MO Center= -8.2D+00,  2.6D+00,  2.1D-02, r^2= 1.2D+00
   Bfn.  Coefficient  Atom+Function         Bfn.  Coefficient  Atom+Function  
  ----- ------------  ---------------      ----- ------------  ---------------
     4      1.336871  1 O  s                 35      1.336831  2 O  s          
    64     -0.923244  3 H  s                 70     -0.923199  4 H  s          
     9     -0.917907  1 O  px                52      0.790130  2 O  d -1       
    42      0.728977  2 O  pz                63     -0.706711  3 H  s          
    69     -0.706677  4 H  s                 66     -0.679843  3 H  px         
 
 Vector   72  Occ=0.000000D+00  E= 7.599609D+00
              MO Center= -8.2D+00,  2.6D+00,  1.9D-02, r^2= 1.1D+00
   Bfn.  Coefficient  Atom+Function         Bfn.  Coefficient  Atom+Function  
  ----- ------------  ---------------      ----- ------------  ---------------
    42      1.391183  2 O  pz                52      1.290420  2 O  d -1       
    11      1.271049  1 O  pz                21     -1.097715  1 O  d -1       
    10     -1.053768  1 O  py                 4      1.046205  1 O  s          
    35     -1.046186  2 O  s                  5      0.918335  1 O  s          
    36     -0.918334  2 O  s                 41     -0.842608  2 O  py         
 
 Vector   73  Occ=0.000000D+00  E= 4.264616D+01
              MO Center= -8.2D+00,  2.6D+00,  2.0D-02, r^2= 6.9D-01
   Bfn.  Coefficient  Atom+Function         Bfn.  Coefficient  Atom+Function  
  ----- ------------  ---------------      ----- ------------  ---------------
     2      1.194707  1 O  s                 33      1.194707  2 O  s          
     4      1.094680  1 O  s                 35      1.094680  2 O  s          
     3     -1.059489  1 O  s                 34     -1.059490  2 O  s          
     1     -0.982124  1 O  s                 32     -0.982125  2 O  s          
     5     -0.469287  1 O  s                 36     -0.469288  2 O  s          
 
 Vector   74  Occ=0.000000D+00  E= 4.309208D+01
              MO Center= -8.2D+00,  2.6D+00,  1.9D-02, r^2= 6.9D-01
   Bfn.  Coefficient  Atom+Function         Bfn.  Coefficient  Atom+Function  
  ----- ------------  ---------------      ----- ------------  ---------------
     4      1.364058  1 O  s                 35     -1.364057  2 O  s          
     3     -1.222283  1 O  s                 34      1.222283  2 O  s          
     2      1.213716  1 O  s                 33     -1.213716  2 O  s          
     1     -0.985100  1 O  s                 32      0.985100  2 O  s          
     5     -0.659095  1 O  s                 36      0.659093  2 O  s          
 

 center of mass
 --------------
 x = -15.61131399 y =   4.91631940 z =   0.05853633

 moments of inertia (a.u.)
 ------------------
          73.562641189086          -9.157394019401           9.704233655916
          -9.157394019401          51.670390014760          32.922855220484
           9.704233655916          32.922855220484          34.185112734441
 
     Multipole analysis of the density
     ---------------------------------
 
     L   x y z        total         alpha         beta         nuclear
     -   - - -        -----         -----         ----         -------
     0   0 0 0     -0.000000     -9.000000     -9.000000     18.000000
 
     1   1 0 0     -0.401609    140.561980    140.561980   -281.525569
     1   0 1 0      0.486175    -44.319699    -44.319699     89.125572
     1   0 0 1      0.276581     -0.568254     -0.568254      1.413090
 
     2   2 0 0      3.775833  -2201.646804  -2201.646804   4407.069440
     2   1 1 0    -10.345796    689.885180    689.885180  -1390.116156
     2   1 0 1     -2.718792     11.401440     11.401440    -25.521673
     2   0 2 0     -4.756002   -230.386649   -230.386649    456.017297
     2   0 1 1      1.310959      5.871737      5.871737    -10.432514
     2   0 0 2     -6.410623    -16.913378    -16.913378     27.416132
 
 *** CALLING NEW AORESP DRIVER FOR CLOSED AND OPEN SHELLS ***
 Entering AOResponse driver routine


--------------------------------------------------------------------------------

          ****************
          *** RESPONSE ***
          ****************

 Response module for NWChem and dynamic CPKS solver
 developed by J. Autschbach and coworkers, SUNY Buffalo
 The methodology used in this program is described in 
 ChemPhysChem 12 (2011), 3224-3235 (main reference)
 J. Chem. Phys. 123 (2005), 114103
 J. Chem. Phys. 122 (2005), 224115
 J. Chem. Phys. 122 (2005), 074105
 Comp. Lett. 3 (2007), 131-150 (contact JA for a copy)
 Please cite this work in publications based on results
 obtained with this code. Thank you!

 For extension of response module to open shell
 calculations please acknowledge:
 F. Aquino, Northwestern University, Schatz Rsrch Group
 The update to the methodology is described in
 J. Phys. Chem. A 118 (2014) 517-525



          -----------------------------------------------
          Solving response equations for perturbing field
          -----------------------------------------------

 number of frequencies:     1
 frequency in a.u.:  0.8855800E-01
 Perturbing field: electric
 Using GIAO formalism for OptRot
 Adding quadrupole terms to OptRot
 to create an origin in dependent tensor.
 Using El. Dipole Length Gauge
 
 Applying DAMPING constant of  0.003700 a.u.
 
 Setting up CPKS
 with frequency omega =      0.08855800 a.u.
 and a damping of            0.00370000 a.u.

 
                            NWChem Dynamic CPHF Module
                            --------------------------
 
 
    scftype = RHF 
    nclosed =    9
      nopen =    0
  variables =     2340
  num. vecs =        3
  tolerance =   1.0D-09
  max. iter =  100

 SCF residual:   2.556806863344110E-006


Iterative solution of linear equations
  No. of variables     1170
  No. of equations        3
  Maximum subspace       99
       Convergence  1.0D-09
        Start time     50.9


   iter   nsub   residual    time 
   ----  ------  --------  --------- 
 dft_CPHF2_read: failed to open./h2o2_514.5_08.inp.aoresp_fiao_f1
     1      3    6.20D+00      78.3
     2      6    2.35D+00     106.1
     3      9    1.70D-01     133.8
     4     12    9.57D-03     161.6
     5     15    2.17D-03     189.3
     6     18    3.81D-04     217.1
     7     21    3.37D-05     244.8
     8     24    1.18D-06     272.6
     9     27    7.12D-08     300.4
    10     30    6.87D-09     328.1
    11     33    1.46D-09     355.9
    12     36    3.48D-10     383.5

 Calculating some arrays needed for GIAO optical rotation

    0 giaofock schwarz done =      98.59%
    0 giaofock schwarz done =      98.59%
 aor_r1_tensor_giao: roadata output requested
 dip-quad polarizability Re:

              1        2        3        4        5        6      
    1 -341.7805  42.5541  -5.2424   7.9011   3.1198   0.2406
    2  -27.4681-192.6353  60.9974 123.5489 -17.0044   3.5143
    3   -7.3438  61.1200-259.2651 -38.9038  84.5838   8.2662
 traceless dip-quad polarizability:

              1        2        3      
    1 -345.8514  63.8312  -7.8635
    2   63.8312 178.6710   4.6797
    3   -7.8635   4.6797 167.1803

              1        2        3      
    1  -90.9997-288.9529  91.4960
    2 -288.9529 135.5258 -25.5066
    3   91.4960 -25.5066 -44.5261

              1        2        3      
    1    7.9750  91.6800-388.8977
    2   91.6800 -39.3651 126.8757
    3 -388.8977 126.8757  31.3900

 roa begin

 alpha real:
 XX       0.1084182681740E+02
 XY       0.8937991288048E+00
 XZ       0.1752228776922E+00
 YX       0.8937991288502E+00
 YY       0.1252744729096E+02
 YZ      -0.3779051462809E+01
 ZX       0.1752228777621E+00
 ZY      -0.3779051462834E+01
 ZZ       0.1653630136629E+02

 alpha im:
 XX       0.2324426953398E-01
 XY       0.3606058684099E-02
 XZ      -0.3506740293076E-02
 YX       0.3606058894278E-02
 YY       0.3379513176847E-01
 YZ      -0.1673805828666E-01
 ZX      -0.3506740191933E-02
 ZY      -0.1673805804277E-01
 ZZ       0.4562377636476E-01

 beta real:
 XX      -0.2275952936296E-01
 XY      -0.3504862590455E-01
 XZ       0.3114604829688E+01
 YX       0.8830973492796E+00
 YY       0.2460442093815E+01
 YZ       0.8770884200755E+01
 ZX      -0.3321120489403E+01
 ZY      -0.1138817243194E+02
 ZZ      -0.2448892171056E+01

 G-prime = -omega beta(real):
 XX      -0.2275952936296E-01
 XY      -0.3504862590455E-01
 XZ       0.3114604829688E+01
 YX       0.8830973492796E+00
 YY       0.2460442093815E+01
 YZ       0.8770884200755E+01
 ZX      -0.3321120489403E+01
 ZY      -0.1138817243194E+02
 ZZ      -0.2448892171056E+01

 beta im:
 XX       0.1022102855788E-02
 XY       0.7240929618745E-02
 XZ       0.6353510547635E-01
 YX       0.3994528413115E-01
 YY       0.1065696068697E+00
 YZ       0.1456331403535E+00
 ZX      -0.6651808638820E-01
 ZY      -0.2465222891223E+00
 ZZ      -0.1119290242009E+00

 G-prime = -omega beta(imag):
 XX       0.1022102855788E-02
 XY       0.7240929618745E-02
 XZ       0.6353510547635E-01
 YX       0.3994528413115E-01
 YY       0.1065696068697E+00
 YZ       0.1456331403535E+00
 ZX      -0.6651808638820E-01
 ZY      -0.2465222891223E+00
 ZZ      -0.1119290242009E+00

 dipole-quadrupole real (Cartesian):
 XXX     -0.3417805319260E+03
 XXY      0.4255412999947E+02
 XXZ     -0.5242359731008E+01
 XYY      0.7901065711523E+01
 XYZ      0.3119771275692E+01
 XZZ      0.2406162349129E+00
 YXX     -0.2746806404721E+02
 YXY     -0.1926352572101E+03
 YXZ      0.6099736392824E+02
 YYY      0.1235489166194E+03
 YYZ     -0.1700440534085E+02
 YZZ      0.3514329285022E+01
 ZXX     -0.7343773706095E+01
 ZXY      0.6112002243699E+02
 ZXZ     -0.2592651303823E+03
 ZYY     -0.3890384599559E+02
 ZYZ      0.8458380872184E+02
 ZZZ      0.8266214403523E+01

 dipole-quadrupole imag (Cartesian):
 XXX     -0.7372786916016E+00
 XXY      0.6781296293907E-01
 XXZ      0.5037959718690E-01
 XYY      0.3431934555037E-01
 XYZ     -0.1411972158205E-01
 XZZ     -0.2180339943753E-02
 YXX     -0.1099242564760E+00
 YXY     -0.5182923483762E+00
 YXZ      0.2700555227094E+00
 YYY      0.3418270811347E+00
 YYZ     -0.7875500324840E-01
 YZZ      0.3321387490912E-02
 ZXX      0.1054809524002E+00
 ZXY      0.2488009542645E+00
 ZXZ     -0.7205862903197E+00
 ZYY     -0.1741483498818E+00
 ZYZ      0.2379747167008E+00
 ZZZ      0.2886287762158E-01

 dipole-quadrupole (traceless):
 XXX     -0.3458513728992E+03
 XXY      0.6383119499920E+02
 XXZ     -0.7863539596513E+01
 XYY      0.1786710235570E+03
 XYZ      0.4679656913538E+01
 XZZ      0.1671803493421E+03
 YXX     -0.9099968699941E+02
 YXY     -0.2889528858152E+03
 YXZ      0.9149604589235E+02
 YYY      0.1355257840005E+03
 YYZ     -0.2550660801127E+02
 YZZ     -0.4452609700105E+02
 ZXX      0.7975042089938E+01
 ZXY      0.9168003365548E+02
 ZXZ     -0.3888976955734E+03
 ZYY     -0.3936506634430E+02
 ZYZ      0.1268757130828E+03
 ZZZ      0.3139002425437E+02

 roa end


 Electric Dipole Response Matrix (nonzero elements):

              1        2        3      
    1   10.8418   0.8938   0.1752
    2    0.8938  12.5274  -3.7791
    3    0.1752  -3.7791  16.5363
 
 Imaginary part:

              1        2        3      
    1    0.0232   0.0036  -0.0035
    2    0.0036   0.0338  -0.0167
    3   -0.0035  -0.0167   0.0456

 ------------------------------------------
 average:        13.30186 + I       0.03422


 DFT Linear Response polarizability / au 
 Frequency  =       0.0885580 / au
 Wavelength =     514.5029585 / nm
              X              Y              Z
 -----------------------------------------------
 X      10.8418268      0.8937991      0.1752229
 Y       0.8937991     12.5274473     -3.7790515
 Z       0.1752229     -3.7790515     16.5363014
 -----------------------------------------------
 Eigenvalues =      11.4445747      9.6391795     18.8218212
 Isotropic   =      13.3018585
 Anisotropic =       6.8800225
 -----------------------------------------------
 *************************

 DFT Linear Response IMAG polarizability / au 
 Frequency  =       0.0885580 / au
 Wavelength =     514.5029585 / nm
              X              Y              Z
 -----------------------------------------------
 X       0.0232443      0.0036061     -0.0035067
 Y       0.0036061      0.0337951     -0.0167381
 Z      -0.0035067     -0.0167381      0.0456238
 -----------------------------------------------
 Eigenvalues =       0.0232067      0.0212940      0.0581625
 Isotropic   =       0.0342211
 Anisotropic =       0.0293534
 -----------------------------------------------
 *************************

 Magnetic Dipole Response Matrix (nonzero elements):
 Optical rotation tensor Beta
 (Buckingham-Dunn version including dipole-quadrupole terms)

              1        2        3      
    1    0.1957   0.1614  -1.5958
    2    0.1614   1.2167   0.0349
    3   -1.5958   0.0349  -1.2858
 
 Imaginary part:

              1        2        3      
    1   -0.0115  -0.0818  -0.7174
    2   -0.4511  -1.2034  -1.6445
    3    0.7511   2.7837   1.2639

 ------------------------------------------
 average:         0.04219 + I       0.01633

 Principal components and PAS (Real part)
                 -2.30828
                  1.33469
                  1.10017
 ------------------------
 average:         0.04219

              1        2        3      
    1    0.5387   0.6003   0.5911
    2   -0.0330   0.7161  -0.6972
    3    0.8419  -0.3561  -0.4056

 Chiral response tensor (Real part):

              1        2        3      
    1   -0.0345  -0.0807   0.7979
    2   -0.0807  -0.5451  -0.0174
    3    0.7979  -0.0174   0.7062
 
 Principal components and PAS (Real part)
                  1.21743
                 -0.60405
                 -0.48680
 ------------------------
 average:         0.04219

              1        2        3      
    1    0.5387   0.6003   0.5911
    2   -0.0330   0.7161  -0.6972
    3    0.8419  -0.3561  -0.4056
 Exiting AOResponse driver routine

 Task  times  cpu:      371.8s     wall:      373.8s
 
 
                                NWChem Input Module
                                -------------------
 
 
 Summary of allocated global arrays
-----------------------------------
  No active global arrays



                         GA Statistics for process    0
                         ------------------------------

       create   destroy   get      put      acc     scatter   gather  read&inc
calls: 2546     2546     6.94e+06 5.85e+06 5.20e+05 2022        0     1953     
number of processes/call 1.00e+00 1.00e+00 1.00e+00 0.00e+00 0.00e+00
bytes total:             1.28e+09 1.82e+08 1.20e+09 5.92e+02 0.00e+00 1.56e+04
bytes remote:            0.00e+00 0.00e+00 0.00e+00 0.00e+00 0.00e+00 0.00e+00
Max memory consumed for GA by this process: 11498464 bytes
 
MA_summarize_allocated_blocks: starting scan ...
MA_summarize_allocated_blocks: scan completed: 0 heap blocks, 0 stack blocks
MA usage statistics:

	allocation statistics:
					      heap	     stack
					      ----	     -----
	current number of blocks	         0	         0
	maximum number of blocks	        24	        52
	current total bytes		         0	         0
	maximum total bytes		  20676928	  42215048
	maximum total K-bytes		     20677	     42216
	maximum total M-bytes		        21	        43
 
 
                                     CITATION
                                     --------
                Please cite the following reference when publishing
                           results obtained with NWChem:
 
                 M. Valiev, E.J. Bylaska, N. Govind, K. Kowalski,
              T.P. Straatsma, H.J.J. van Dam, D. Wang, J. Nieplocha,
                        E. Apra, T.L. Windus, W.A. de Jong
                 "NWChem: a comprehensive and scalable open-source
                  solution for large scale molecular simulations"
                      Comput. Phys. Commun. 181, 1477 (2010)
                           doi:10.1016/j.cpc.2010.04.018
 
                                      AUTHORS
                                      -------
          E. Apra, E. J. Bylaska, W. A. de Jong, N. Govind, K. Kowalski,
       T. P. Straatsma, M. Valiev, H. J. J. van Dam, D. Wang, T. L. Windus,
        J. Hammond, J. Autschbach, K. Bhaskaran-Nair, J. Brabec, K. Lopata,
    S. A. Fischer, S. Krishnamoorthy, M. Jacquelin, W. Ma, M. Klemm, O. Villa,
      Y. Chen, V. Anisimov, F. Aquino, S. Hirata, M. T. Hackler, V. Konjkov,
            D. Mejia-Rodriguez, T. Risthaus, M. Malagoli, A. Marenich,
   A. Otero-de-la-Roza, J. Mullin, P. Nichols, R. Peverati, J. Pittner, Y. Zhao,
        P.-D. Fan, A. Fonari, M. J. Williamson, R. J. Harrison, J. R. Rehr,
      M. Dupuis, D. Silverstein, D. M. A. Smith, J. Nieplocha, V. Tipparaju,
    M. Krishnan, B. E. Van Kuiken, A. Vazquez-Mayagoitia, L. Jensen, M. Swart,
      Q. Wu, T. Van Voorhis, A. A. Auer, M. Nooijen, L. D. Crosby, E. Brown,
      G. Cisneros, G. I. Fann, H. Fruchtl, J. Garza, K. Hirao, R. A. Kendall,
      J. A. Nichols, K. Tsemekhman, K. Wolinski, J. Anchell, D. E. Bernholdt,
      P. Borowski, T. Clark, D. Clerc, H. Dachsel, M. J. O. Deegan, K. Dyall,
    D. Elwood, E. Glendening, M. Gutowski, A. C. Hess, J. Jaffe, B. G. Johnson,
     J. Ju, R. Kobayashi, R. Kutteh, Z. Lin, R. Littlefield, X. Long, B. Meng,
      T. Nakajima, S. Niu, L. Pollack, M. Rosing, K. Glaesemann, G. Sandrone,
      M. Stave, H. Taylor, G. Thomas, J. H. van Lenthe, A. T. Wong, Z. Zhang.

 Total times  cpu:      406.5s     wall:      410.7s
