 argument  1 = h2o2_514.5_05.inp
 


============================== echo of input deck ==============================
echo
start h2o2_514.5_05.inp
title "h2o2 roa calculations at 514.5 nm, input generated by va with delta_type=2"
charge 0



geometry units angstrom nocenter noautoz noautosym nucleus point;symmetry c1
 O -8.054982  3.049475 -0.529281
 O -8.434171  2.111353  0.565983
 H -8.927252  3.228885 -0.889895
 H -8.121185  2.646939  1.352600
end

basis spherical
* library def2-TZVP
end

 set prop:newaoresp 1
 set aor:roadata T
 set cphf:maxsub 100
 set cphf:acc 1.0d-10
 set cphf:maxiter 100

property
    response 1   0.088558
    bdtensor
    convergence 1e-9
    damping 0.0037
    giao
end

dft
 direct
 mult 1
 xc becke88 lyp
 iterations 250
 tolerances tight
 grid xfine
 convergence nolevelshifting
 convergence energy 1e-8
 convergence gradient 1e-8


end

task dft gradient
task dft property
================================================================================


                                         
                                         
 
 
              Northwest Computational Chemistry Package (NWChem) 6.8
              ------------------------------------------------------
 
 
                    Environmental Molecular Sciences Laboratory
                       Pacific Northwest National Laboratory
                                Richland, WA 99352
 
                              Copyright (c) 1994-2017
                       Pacific Northwest National Laboratory
                            Battelle Memorial Institute
 
             NWChem is an open-source computational chemistry package
                        distributed under the terms of the
                      Educational Community License (ECL) 2.0
             A copy of the license is included with this distribution
                              in the LICENSE.TXT file
 
                                  ACKNOWLEDGMENT
                                  --------------

            This software and its documentation were developed at the
            EMSL at Pacific Northwest National Laboratory, a multiprogram
            national laboratory, operated for the U.S. Department of Energy
            by Battelle under Contract Number DE-AC05-76RL01830. Support
            for this work was provided by the Department of Energy Office
            of Biological and Environmental Research, Office of Basic
            Energy Sciences, and the Office of Advanced Scientific Computing.


           Job information
           ---------------

    hostname        = cpn-f11-17-02.cbls.ccr.buffalo.edu
    program         = /util/academic/nwchem/nwchem-6.8/bin/LINUX64/nwchem
    date            = Thu Feb 28 18:48:56 2019

    compiled        = Tue_Nov_06_14:59:08_2018
    source          = /util/academic/nwchem/nwchem-6.8
    nwchem branch   = 6.8
    nwchem revision = v6.8-47-gdf6c956
    ga revision     = ga-5.6.3
    use scalapack   = F
    input           = h2o2_514.5_05.inp
    prefix          = h2o2_514.5_05.inp.
    data base       = ./h2o2_514.5_05.inp.db
    status          = startup
    nproc           =        1
    time left       =     -1s



           Memory information
           ------------------

    heap     =   13107200 doubles =    100.0 Mbytes
    stack    =   13107197 doubles =    100.0 Mbytes
    global   =   26214400 doubles =    200.0 Mbytes (distinct from heap & stack)
    total    =   52428797 doubles =    400.0 Mbytes
    verify   = yes
    hardfail = no 


           Directory information
           ---------------------
 
  0 permanent = .
  0 scratch   = .
 
 
 
 
                                NWChem Input Module
                                -------------------
 
 
                         h2o2 roa calculations at 514.5 nm, input generated by va with delta_type=2
                         ---------------------------------

 Scaling coordinates for geometry "geometry" by  1.889725989
 (inverse scale =  0.529177249)

 
 
                             Geometry "geometry" -> ""
                             -------------------------
 
 Output coordinates in angstroms (scale by  1.889725989 to convert to a.u.)
 
  No.       Tag          Charge          X              Y              Z
 ---- ---------------- ---------- -------------- -------------- --------------
    1 O                    8.0000    -8.05498200     3.04947500    -0.52928100
    2 O                    8.0000    -8.43417100     2.11135300     0.56598300
    3 H                    1.0000    -8.92725200     3.22888500    -0.88989500
    4 H                    1.0000    -8.12118500     2.64693900     1.35260000
 
      Atomic Mass 
      ----------- 
 
      O                 15.994910
      H                  1.007825
 

 Effective nuclear repulsion energy (a.u.)      35.9865591532

            Nuclear Dipole moment (a.u.) 
            ----------------------------
        X                 Y               Z
 ---------------- ---------------- ----------------
  -281.4967220937    89.1241036707     1.4292394494
 
 
            XYZ format geometry
            -------------------
     4
 geometry
 O                    -8.05498200     3.04947500    -0.52928100
 O                    -8.43417100     2.11135300     0.56598300
 H                    -8.92725200     3.22888500    -0.88989500
 H                    -8.12118500     2.64693900     1.35260000
 
 ==============================================================================
                                internuclear distances
 ------------------------------------------------------------------------------
       center one      |      center two      | atomic units |  angstroms
 ------------------------------------------------------------------------------
    3 H                |   1 O                |     1.81560  |     0.96077
    4 H                |   2 O                |     1.89310  |     1.00179
 ------------------------------------------------------------------------------
                         number of included internuclear distances:          2
 ==============================================================================



  warning:::::::::::::: from_environment
  NWCHEM_BASIS_LIBRARY set to: <
 /util/academic/nwchem/nwchem-6.8/src/basis/libraries>
  but file does not exist !
  using .nwchemrc or compiled library


 Summary of "ao basis" -> "" (spherical)
 ------------------------------------------------------------------------------
       Tag                 Description            Shells   Functions and Types
 ---------------- ------------------------------  ------  ---------------------
 *                         def2-TZVP                  on all atoms 


 
                                 NWChem DFT Module
                                 -----------------
 
 
                         h2o2 roa calculations at 514.5 nm, input generated by va with delta_type=2
 
 
                      Basis "ao basis" -> "ao basis" (spherical)
                      -----
  O (Oxygen)
  ----------
            Exponent  Coefficients 
       -------------- ---------------------------------------------------------
  1 S  2.70323826E+04  0.000217
  1 S  4.05238714E+03  0.001684
  1 S  9.22327227E+02  0.008740
  1 S  2.61240710E+02  0.035240
  1 S  8.53546414E+01  0.111535
  1 S  3.10350352E+01  0.255890
 
  2 S  1.22608607E+01  0.397687
  2 S  4.99870760E+00  0.246278
 
  3 S  1.17031082E+00  1.000000
 
  4 S  4.64747410E-01  1.000000
 
  5 S  1.85045364E-01  1.000000
 
  6 P  6.32749548E+01  0.006069
  6 P  1.46270494E+01  0.041913
  6 P  4.45012235E+00  0.161538
  6 P  1.52757996E+00  0.357070
 
  7 P  5.29351179E-01  1.000000
 
  8 P  1.74784213E-01  1.000000
 
  9 D  2.31400000E+00  1.000000
 
 10 D  6.45000000E-01  1.000000
 
 11 F  1.42800000E+00  1.000000
 
  H (Hydrogen)
  ------------
            Exponent  Coefficients 
       -------------- ---------------------------------------------------------
  1 S  3.40613410E+01  0.006025
  1 S  5.12357460E+00  0.045021
  1 S  1.16466260E+00  0.201897
 
  2 S  3.27230410E-01  1.000000
 
  3 S  1.03072410E-01  1.000000
 
  4 P  8.00000000E-01  1.000000
 


 Summary of "ao basis" -> "ao basis" (spherical)
 ------------------------------------------------------------------------------
       Tag                 Description            Shells   Functions and Types
 ---------------- ------------------------------  ------  ---------------------
 O                         def2-TZVP                11       31   5s3p2d1f
 H                         def2-TZVP                 4        6   3s1p




 Summary of "ao basis" -> "ao basis" (spherical)
 ------------------------------------------------------------------------------
       Tag                 Description            Shells   Functions and Types
 ---------------- ------------------------------  ------  ---------------------
 O                         def2-TZVP                11       31   5s3p2d1f
 H                         def2-TZVP                 4        6   3s1p


  Caching 1-el integrals 
  itol2e modified to match energy
  convergence criterion.
  tol_rho modified to match energy
  convergence criterion.
 
            General Information
            -------------------
          SCF calculation type: DFT
          Wavefunction type:  closed shell.
          No. of atoms     :     4
          No. of electrons :    18
           Alpha electrons :     9
            Beta electrons :     9
          Charge           :     0
          Spin multiplicity:     1
          Use of symmetry is: off; symmetry adaption is: off
          Maximum number of iterations: 250
          This is a Direct SCF calculation.
          AO basis - number of functions:    74
                     number of shells:    30
          Convergence on energy requested:  1.00D-08
          Convergence on density requested:  1.00D-05
          Convergence on gradient requested:  1.00D-08
 
              XC Information
              --------------
                    Becke 1988 Exchange Functional  1.000          
              Lee-Yang-Parr Correlation Functional  1.000          
 
             Grid Information
             ----------------
          Grid used for XC integration:  xfine     
          Radial quadrature: Mura-Knowles        
          Angular quadrature: Lebedev. 
          Tag              B.-S. Rad. Rad. Pts. Rad. Cut. Ang. Pts.
          ---              ---------- --------- --------- ---------
          O                   0.60      100           8.0      1454
          H                   0.35      100           9.0      1202
          Grid pruning is: on 
          Number of quadrature shells:   400
          Spatial weights used:  Erf1
 
          Convergence Information
          -----------------------
          Convergence aids based upon iterative change in 
          total energy or number of iterations. 
          Levelshifting, if invoked, occurs when the 
          HOMO/LUMO gap drops below (HL_TOL):  1.00D-02
          DIIS, if invoked, will attempt to extrapolate 
          using up to (NFOCK): 10 stored Fock matrices.

                    Damping( 0%)  Levelshifting(0.0)       DIIS
                  --------------- ------------------- ---------------
          dE  on:    start             N/A                start   
          dE off:    2 iters           N/A              250 iters 

 
      Screening Tolerance Information
      -------------------------------
          Density screening/tol_rho:  1.00D-11
          AO Gaussian exp screening on grid/accAOfunc:  18
          CD Gaussian exp screening on grid/accCDfunc:  20
          XC Gaussian exp screening on grid/accXCfunc:  20
          Schwarz screening/accCoul:  1.00D-09

 
      Superposition of Atomic Density Guess
      -------------------------------------
 
 Sum of atomic energies:        -150.56823290
 
      Non-variational initial energy
      ------------------------------

 Total energy =    -150.652473
 1-e energy   =    -278.539734
 2-e energy   =      91.900702
 HOMO         =      -0.359110
 LUMO         =      -0.045156
 
   Time after variat. SCF:      1.2
   Time prior to 1st pass:      1.2

 Grid_pts file          = ./h2o2_514.5_05.inp.gridpts.0
 Record size in doubles =  12289        No. of grid_pts per rec  =   3070
 Max. records in memory =    210        Max. recs in file   =   1940396


           Memory utilization after 1st SCF pass: 
           Heap Space remaining (MW):       10.52            10522928
          Stack Space remaining (MW):       13.11            13106668

   convergence    iter        energy       DeltaE   RMS-Dens  Diis-err    time
 ---------------- ----- ----------------- --------- --------- ---------  ------
 d= 0,ls=0.0,diis     1   -151.5589693941 -1.88D+02  7.39D-03  6.80D-01     4.9
 d= 0,ls=0.0,diis     2   -151.5939965112 -3.50D-02  2.76D-03  6.33D-02     8.4
 d= 0,ls=0.0,diis     3   -151.5980333048 -4.04D-03  1.32D-03  2.73D-02    11.8
 d= 0,ls=0.0,diis     4   -151.5991390110 -1.11D-03  6.61D-04  1.51D-02    15.2
 d= 0,ls=0.0,diis     5   -151.6003152360 -1.18D-03  2.11D-04  1.69D-03    18.6
 d= 0,ls=0.0,diis     6   -151.6004563330 -1.41D-04  3.91D-05  4.00D-05    22.0
 d= 0,ls=0.0,diis     7   -151.6004602792 -3.95D-06  3.52D-06  3.21D-07    25.4
 d= 0,ls=0.0,diis     8   -151.6004603078 -2.86D-08  7.79D-07  5.89D-09    28.9
 d= 0,ls=0.0,diis     9   -151.6004603083 -5.17D-10  1.91D-07  3.97D-10    32.3


         Total DFT energy =     -151.600460308342
      One electron energy =     -279.835803034124
           Coulomb energy =      110.059311926473
    Exchange-Corr. energy =      -17.810528353916
 Nuclear repulsion energy =       35.986559153226

 Numeric. integr. density =       17.999999997600

     Total iterative time =     31.1s


 
                       DFT Final Molecular Orbital Analysis
                       ------------------------------------
 
 Vector    1  Occ=2.000000D+00  E=-1.883405D+01
              MO Center= -8.4D+00,  2.1D+00,  5.7D-01, r^2= 1.5D-02
   Bfn.  Coefficient  Atom+Function         Bfn.  Coefficient  Atom+Function  
  ----- ------------  ---------------      ----- ------------  ---------------
    33      0.638761  2 O  s                 32      0.435398  2 O  s          
    34      0.037138  2 O  s                 35     -0.025002  2 O  s          
 
 Vector    2  Occ=2.000000D+00  E=-1.882990D+01
              MO Center= -8.1D+00,  3.0D+00, -5.3D-01, r^2= 1.5D-02
   Bfn.  Coefficient  Atom+Function         Bfn.  Coefficient  Atom+Function  
  ----- ------------  ---------------      ----- ------------  ---------------
     2      0.638754  1 O  s                  1      0.435388  1 O  s          
     3      0.037160  1 O  s                  4     -0.025107  1 O  s          
 
 Vector    3  Occ=2.000000D+00  E=-1.007830D+00
              MO Center= -8.3D+00,  2.7D+00,  2.2D-02, r^2= 8.1D-01
   Bfn.  Coefficient  Atom+Function         Bfn.  Coefficient  Atom+Function  
  ----- ------------  ---------------      ----- ------------  ---------------
     4      0.317951  1 O  s                 35      0.307083  2 O  s          
     3      0.244573  1 O  s                 34      0.233894  2 O  s          
     2     -0.166513  1 O  s                 33     -0.159478  2 O  s          
     5      0.098554  1 O  s                 36      0.095135  2 O  s          
     1     -0.071532  1 O  s                 38      0.069881  2 O  py         
 
 Vector    4  Occ=2.000000D+00  E=-8.186300D-01
              MO Center= -8.3D+00,  2.7D+00,  8.6D-02, r^2= 1.3D+00
   Bfn.  Coefficient  Atom+Function         Bfn.  Coefficient  Atom+Function  
  ----- ------------  ---------------      ----- ------------  ---------------
    35     -0.337252  2 O  s                  4      0.316527  1 O  s          
    34     -0.260279  2 O  s                  3      0.247998  1 O  s          
    33      0.171558  2 O  s                  2     -0.162962  1 O  s          
    36     -0.145718  2 O  s                  5      0.136582  1 O  s          
    63      0.093565  3 H  s                 69     -0.087579  4 H  s          
 
 Vector    5  Occ=2.000000D+00  E=-4.732696D-01
              MO Center= -8.3D+00,  2.7D+00,  5.3D-02, r^2= 1.3D+00
   Bfn.  Coefficient  Atom+Function         Bfn.  Coefficient  Atom+Function  
  ----- ------------  ---------------      ----- ------------  ---------------
    39      0.303469  2 O  pz                42      0.238916  2 O  pz         
     7      0.206267  1 O  py                 8     -0.202693  1 O  pz         
    10      0.165717  1 O  py                11     -0.159608  1 O  pz         
    64      0.135441  3 H  s                  6     -0.132690  1 O  px         
    70      0.125735  4 H  s                 63      0.111072  3 H  s          
 
 Vector    6  Occ=2.000000D+00  E=-4.328828D-01
              MO Center= -8.3D+00,  2.6D+00,  6.1D-02, r^2= 1.3D+00
   Bfn.  Coefficient  Atom+Function         Bfn.  Coefficient  Atom+Function  
  ----- ------------  ---------------      ----- ------------  ---------------
     6      0.250043  1 O  px                 9      0.185213  1 O  px         
    37      0.173692  2 O  px                39      0.167392  2 O  pz         
     4      0.155970  1 O  s                  5      0.155988  1 O  s          
    35     -0.150396  2 O  s                 36     -0.150842  2 O  s          
    38      0.149718  2 O  py                70      0.140255  4 H  s          
 
 Vector    7  Occ=2.000000D+00  E=-3.653988D-01
              MO Center= -8.2D+00,  2.5D+00, -2.3D-02, r^2= 1.3D+00
   Bfn.  Coefficient  Atom+Function         Bfn.  Coefficient  Atom+Function  
  ----- ------------  ---------------      ----- ------------  ---------------
    38      0.318170  2 O  py                41      0.249123  2 O  py         
     6     -0.238865  1 O  px                 8      0.216376  1 O  pz         
     9     -0.182264  1 O  px                11      0.175368  1 O  pz         
    44      0.164931  2 O  py                 5     -0.131668  1 O  s          
    36     -0.131121  2 O  s                 14      0.120087  1 O  pz         
 
 Vector    8  Occ=2.000000D+00  E=-2.754626D-01
              MO Center= -8.3D+00,  2.6D+00,  5.6D-02, r^2= 1.3D+00
   Bfn.  Coefficient  Atom+Function         Bfn.  Coefficient  Atom+Function  
  ----- ------------  ---------------      ----- ------------  ---------------
    37      0.343614  2 O  px                 7     -0.270195  1 O  py         
    40      0.267726  2 O  px                10     -0.216761  1 O  py         
    43      0.213895  2 O  px                13     -0.172598  1 O  py         
     8     -0.159637  1 O  pz                 6     -0.148769  1 O  px         
     5     -0.121693  1 O  s                 36     -0.121564  2 O  s          
 
 Vector    9  Occ=2.000000D+00  E=-2.306591D-01
              MO Center= -8.2D+00,  2.6D+00,  1.2D-02, r^2= 1.2D+00
   Bfn.  Coefficient  Atom+Function         Bfn.  Coefficient  Atom+Function  
  ----- ------------  ---------------      ----- ------------  ---------------
    37      0.284294  2 O  px                 7      0.273051  1 O  py         
    40      0.224007  2 O  px                38     -0.216545  2 O  py         
    10      0.213058  1 O  py                43      0.206704  2 O  px         
     8      0.202830  1 O  pz                13      0.188534  1 O  py         
    41     -0.165932  2 O  py                11      0.160306  1 O  pz         
 
 Vector   10  Occ=0.000000D+00  E=-6.021505D-02
              MO Center= -8.3D+00,  2.6D+00,  7.0D-02, r^2= 1.8D+00
   Bfn.  Coefficient  Atom+Function         Bfn.  Coefficient  Atom+Function  
  ----- ------------  ---------------      ----- ------------  ---------------
    36     -0.506663  2 O  s                  5      0.492599  1 O  s          
    44     -0.330972  2 O  py                71      0.310246  4 H  s          
    14      0.300497  1 O  pz                13     -0.285321  1 O  py         
    65     -0.277428  3 H  s                 45      0.267291  2 O  pz         
     8      0.263678  1 O  pz                38     -0.260653  2 O  py         
 
 Vector   11  Occ=0.000000D+00  E=-4.917394D-03
              MO Center= -8.5D+00,  3.0D+00,  5.3D-01, r^2= 4.2D+00
   Bfn.  Coefficient  Atom+Function         Bfn.  Coefficient  Atom+Function  
  ----- ------------  ---------------      ----- ------------  ---------------
    71      1.077903  4 H  s                 65      0.893622  3 H  s          
    36     -0.652007  2 O  s                  5     -0.619156  1 O  s          
    45     -0.289575  2 O  pz                12      0.235176  1 O  px         
    39     -0.166058  2 O  pz                44     -0.145403  2 O  py         
    70      0.140162  4 H  s                 34     -0.121967  2 O  s          
 
 Vector   12  Occ=0.000000D+00  E= 3.963818D-02
              MO Center= -8.7D+00,  3.1D+00, -2.2D-02, r^2= 4.2D+00
   Bfn.  Coefficient  Atom+Function         Bfn.  Coefficient  Atom+Function  
  ----- ------------  ---------------      ----- ------------  ---------------
    65      1.324894  3 H  s                 71     -1.037470  4 H  s          
     5     -0.514677  1 O  s                 45      0.418564  2 O  pz         
    14      0.318555  1 O  pz                36      0.314674  2 O  s          
    12      0.283205  1 O  px                39      0.227485  2 O  pz         
    13     -0.217309  1 O  py                 8      0.175543  1 O  pz         
 
 Vector   13  Occ=0.000000D+00  E= 3.314408D-01
              MO Center= -8.2D+00,  2.5D+00,  1.1D+00, r^2= 2.7D+00
   Bfn.  Coefficient  Atom+Function         Bfn.  Coefficient  Atom+Function  
  ----- ------------  ---------------      ----- ------------  ---------------
    70      1.747105  4 H  s                 71     -1.114202  4 H  s          
    45     -0.584668  2 O  pz                35     -0.418681  2 O  s          
    14      0.394456  1 O  pz                41     -0.368849  2 O  py         
    36     -0.242702  2 O  s                 13     -0.211180  1 O  py         
    64      0.195497  3 H  s                 38     -0.172736  2 O  py         
 
 Vector   14  Occ=0.000000D+00  E= 3.475804D-01
              MO Center= -8.4D+00,  2.6D+00, -1.8D-01, r^2= 3.5D+00
   Bfn.  Coefficient  Atom+Function         Bfn.  Coefficient  Atom+Function  
  ----- ------------  ---------------      ----- ------------  ---------------
    64      1.688129  3 H  s                  5     -0.978231  1 O  s          
    44      0.899098  2 O  py                12      0.890592  1 O  px         
    65     -0.832669  3 H  s                 36      0.738892  2 O  s          
    70     -0.576256  4 H  s                 45     -0.504226  2 O  pz         
     4     -0.490052  1 O  s                 43      0.462405  2 O  px         
 
 Vector   15  Occ=0.000000D+00  E= 3.526430D-01
              MO Center= -8.3D+00,  3.1D+00, -5.5D-01, r^2= 3.3D+00
   Bfn.  Coefficient  Atom+Function         Bfn.  Coefficient  Atom+Function  
  ----- ------------  ---------------      ----- ------------  ---------------
    64      1.054759  3 H  s                 13     -0.897959  1 O  py         
    14      0.845429  1 O  pz                36     -0.587433  2 O  s          
    44     -0.571089  2 O  py                65     -0.557541  3 H  s          
    43     -0.501954  2 O  px                45      0.501739  2 O  pz         
     9      0.485063  1 O  px                 5      0.450971  1 O  s          
 
 Vector   16  Occ=0.000000D+00  E= 3.726188D-01
              MO Center= -8.0D+00,  2.3D+00, -1.3D-01, r^2= 2.6D+00
   Bfn.  Coefficient  Atom+Function         Bfn.  Coefficient  Atom+Function  
  ----- ------------  ---------------      ----- ------------  ---------------
    44     -0.599353  2 O  py                12      0.562062  1 O  px         
     4     -0.463587  1 O  s                 35     -0.465649  2 O  s          
    13     -0.427970  1 O  py                36      0.376055  2 O  s          
    64      0.339038  3 H  s                 41      0.318518  2 O  py         
     5      0.314383  1 O  s                 43      0.315752  2 O  px         
 
 Vector   17  Occ=0.000000D+00  E= 4.127551D-01
              MO Center= -8.3D+00,  2.6D+00,  2.8D-02, r^2= 3.0D+00
   Bfn.  Coefficient  Atom+Function         Bfn.  Coefficient  Atom+Function  
  ----- ------------  ---------------      ----- ------------  ---------------
    45     -0.912487  2 O  pz                14      0.842904  1 O  pz         
    43     -0.745730  2 O  px                12      0.727898  1 O  px         
    35     -0.392966  2 O  s                 11     -0.371890  1 O  pz         
    42      0.346339  2 O  pz                 4     -0.340767  1 O  s          
     9     -0.281997  1 O  px                40      0.273927  2 O  px         
 
 Vector   18  Occ=0.000000D+00  E= 4.425995D-01
              MO Center= -8.2D+00,  2.6D+00,  2.3D-02, r^2= 3.5D+00
   Bfn.  Coefficient  Atom+Function         Bfn.  Coefficient  Atom+Function  
  ----- ------------  ---------------      ----- ------------  ---------------
    44      1.226340  2 O  py                14     -1.019605  1 O  pz         
     5     -0.903066  1 O  s                 36      0.813271  2 O  s          
    12      0.785458  1 O  px                43     -0.631368  2 O  px         
    13     -0.517189  1 O  py                64      0.430781  3 H  s          
    70     -0.410666  4 H  s                 40      0.355058  2 O  px         
 
 Vector   19  Occ=0.000000D+00  E= 4.649879D-01
              MO Center= -8.3D+00,  2.7D+00,  1.4D-01, r^2= 4.0D+00
   Bfn.  Coefficient  Atom+Function         Bfn.  Coefficient  Atom+Function  
  ----- ------------  ---------------      ----- ------------  ---------------
    36      1.108990  2 O  s                 71     -0.855168  4 H  s          
     5      0.836274  1 O  s                 64      0.793293  3 H  s          
    65     -0.753058  3 H  s                 13      0.709341  1 O  py         
    43     -0.665008  2 O  px                35     -0.629391  2 O  s          
     4     -0.605871  1 O  s                 12      0.573578  1 O  px         
 
 Vector   20  Occ=0.000000D+00  E= 5.217638D-01
              MO Center= -8.4D+00,  2.7D+00, -8.4D-04, r^2= 4.0D+00
   Bfn.  Coefficient  Atom+Function         Bfn.  Coefficient  Atom+Function  
  ----- ------------  ---------------      ----- ------------  ---------------
    45      1.521462  2 O  pz                65      1.428971  3 H  s          
    71     -1.242581  4 H  s                  5     -1.115386  1 O  s          
    12      1.003476  1 O  px                14      0.945924  1 O  pz         
    36      0.933865  2 O  s                 13     -0.757575  1 O  py         
     4      0.586665  1 O  s                 35     -0.488314  2 O  s          
 
 Vector   21  Occ=0.000000D+00  E= 5.870843D-01
              MO Center= -8.4D+00,  2.8D+00,  1.1D-01, r^2= 3.0D+00
   Bfn.  Coefficient  Atom+Function         Bfn.  Coefficient  Atom+Function  
  ----- ------------  ---------------      ----- ------------  ---------------
     5      2.606438  1 O  s                 36      2.389629  2 O  s          
     4     -1.470681  1 O  s                 35     -1.445762  2 O  s          
    12     -1.392614  1 O  px                64     -1.085669  3 H  s          
    70     -1.003708  4 H  s                 44      0.895549  2 O  py         
    65     -0.899199  3 H  s                 45      0.827207  2 O  pz         
 
 Vector   22  Occ=0.000000D+00  E= 6.695174D-01
              MO Center= -8.2D+00,  2.5D+00, -3.2D-02, r^2= 3.0D+00
   Bfn.  Coefficient  Atom+Function         Bfn.  Coefficient  Atom+Function  
  ----- ------------  ---------------      ----- ------------  ---------------
     5      5.576223  1 O  s                 36     -5.579643  2 O  s          
    35      1.852997  2 O  s                  4     -1.799527  1 O  s          
    14      1.726503  1 O  pz                44     -1.725357  2 O  py         
    45      1.628101  2 O  pz                13     -1.548637  1 O  py         
    64     -0.907324  3 H  s                 12     -0.878425  1 O  px         
 
 Vector   23  Occ=0.000000D+00  E= 1.012389D+00
              MO Center= -8.3D+00,  2.7D+00,  1.0D-01, r^2= 1.5D+00
   Bfn.  Coefficient  Atom+Function         Bfn.  Coefficient  Atom+Function  
  ----- ------------  ---------------      ----- ------------  ---------------
    64     -0.334081  3 H  s                 22      0.319954  1 O  d  0       
    68     -0.315458  3 H  pz                53     -0.284716  2 O  d  0       
    70      0.271528  4 H  s                 74     -0.250273  4 H  pz         
    23     -0.248917  1 O  d  1              54      0.245998  2 O  d  1       
    73      0.235966  4 H  py                51      0.222401  2 O  d -2       
 
 Vector   24  Occ=0.000000D+00  E= 1.080295D+00
              MO Center= -8.3D+00,  2.6D+00,  9.2D-02, r^2= 1.5D+00
   Bfn.  Coefficient  Atom+Function         Bfn.  Coefficient  Atom+Function  
  ----- ------------  ---------------      ----- ------------  ---------------
    54      0.352305  2 O  d  1              67      0.331262  3 H  py         
    20     -0.299053  1 O  d -2              72     -0.289929  4 H  px         
    22     -0.281093  1 O  d  0              52      0.228428  2 O  d -1       
    64     -0.223310  3 H  s                 53      0.197342  2 O  d  0       
    74      0.193287  4 H  pz                24     -0.184953  1 O  d  2       
 
 Vector   25  Occ=0.000000D+00  E= 1.184072D+00
              MO Center= -8.3D+00,  2.6D+00,  1.0D-01, r^2= 1.5D+00
   Bfn.  Coefficient  Atom+Function         Bfn.  Coefficient  Atom+Function  
  ----- ------------  ---------------      ----- ------------  ---------------
    55      0.452674  2 O  d  2              23     -0.421530  1 O  d  1       
     5      0.391699  1 O  s                 36      0.313133  2 O  s          
    64     -0.256708  3 H  s                 24     -0.236779  1 O  d  2       
    12     -0.235081  1 O  px                51      0.232799  2 O  d -2       
    68     -0.227449  3 H  pz                44      0.223645  2 O  py         
 
 Vector   26  Occ=0.000000D+00  E= 1.224451D+00
              MO Center= -8.4D+00,  2.8D+00,  4.3D-02, r^2= 1.7D+00
   Bfn.  Coefficient  Atom+Function         Bfn.  Coefficient  Atom+Function  
  ----- ------------  ---------------      ----- ------------  ---------------
    36     -0.631142  2 O  s                  5      0.615945  1 O  s          
    20     -0.396827  1 O  d -2              72      0.395308  4 H  px         
    67      0.364897  3 H  py                43     -0.259040  2 O  px         
    68      0.245985  3 H  pz                13     -0.235951  1 O  py         
    51      0.234814  2 O  d -2              55      0.219747  2 O  d  2       
 
 Vector   27  Occ=0.000000D+00  E= 1.516111D+00
              MO Center= -8.5D+00,  3.1D+00, -5.4D-01, r^2= 1.9D+00
   Bfn.  Coefficient  Atom+Function         Bfn.  Coefficient  Atom+Function  
  ----- ------------  ---------------      ----- ------------  ---------------
    64      2.976202  3 H  s                  5     -1.036458  1 O  s          
    12      0.935480  1 O  px                 4     -0.850127  1 O  s          
    70      0.826412  4 H  s                 24     -0.765780  1 O  d  2       
     9      0.684306  1 O  px                23      0.563670  1 O  d  1       
    66      0.548239  3 H  px                63     -0.533435  3 H  s          
 
 Vector   28  Occ=0.000000D+00  E= 1.537384D+00
              MO Center= -8.3D+00,  2.5D+00,  7.6D-01, r^2= 1.9D+00
   Bfn.  Coefficient  Atom+Function         Bfn.  Coefficient  Atom+Function  
  ----- ------------  ---------------      ----- ------------  ---------------
    70      2.569010  4 H  s                 36     -1.307463  2 O  s          
    64     -1.131108  3 H  s                  5      0.996671  1 O  s          
    52     -0.701203  2 O  d -1              44     -0.655695  2 O  py         
    45     -0.599180  2 O  pz                71     -0.537499  4 H  s          
    69     -0.531536  4 H  s                 54      0.443218  2 O  d  1       
 
 Vector   29  Occ=0.000000D+00  E= 1.601361D+00
              MO Center= -8.3D+00,  2.7D+00,  1.3D-01, r^2= 1.7D+00
   Bfn.  Coefficient  Atom+Function         Bfn.  Coefficient  Atom+Function  
  ----- ------------  ---------------      ----- ------------  ---------------
    73      0.434498  4 H  py                21     -0.361150  1 O  d -1       
    68      0.362320  3 H  pz                51      0.359176  2 O  d -2       
    54      0.322853  2 O  d  1              22     -0.300941  1 O  d  0       
    12     -0.298687  1 O  px                45      0.284819  2 O  pz         
     5      0.280451  1 O  s                 74     -0.273901  4 H  pz         
 
 Vector   30  Occ=0.000000D+00  E= 1.645908D+00
              MO Center= -8.3D+00,  2.6D+00,  8.1D-02, r^2= 1.6D+00
   Bfn.  Coefficient  Atom+Function         Bfn.  Coefficient  Atom+Function  
  ----- ------------  ---------------      ----- ------------  ---------------
    64      0.730563  3 H  s                 70      0.560516  4 H  s          
    21      0.557370  1 O  d -1              36     -0.470314  2 O  s          
     5     -0.451616  1 O  s                 53     -0.453546  2 O  d  0       
    44     -0.366996  2 O  py                55      0.367697  2 O  d  2       
    35      0.364371  2 O  s                 24     -0.350441  1 O  d  2       
 
 Vector   31  Occ=0.000000D+00  E= 1.741937D+00
              MO Center= -8.4D+00,  2.7D+00,  7.4D-02, r^2= 1.8D+00
   Bfn.  Coefficient  Atom+Function         Bfn.  Coefficient  Atom+Function  
  ----- ------------  ---------------      ----- ------------  ---------------
     5      1.190156  1 O  s                 36     -1.127710  2 O  s          
    13     -0.619272  1 O  py                45      0.551597  2 O  pz         
    51     -0.480657  2 O  d -2              22     -0.462257  1 O  d  0       
    14      0.415799  1 O  pz                73      0.397694  4 H  py         
    54     -0.387050  2 O  d  1              43     -0.374441  2 O  px         
 
 Vector   32  Occ=0.000000D+00  E= 1.850773D+00
              MO Center= -8.3D+00,  2.7D+00,  9.4D-02, r^2= 2.2D+00
   Bfn.  Coefficient  Atom+Function         Bfn.  Coefficient  Atom+Function  
  ----- ------------  ---------------      ----- ------------  ---------------
     5      2.244728  1 O  s                 36     -2.199550  2 O  s          
     4     -1.232301  1 O  s                 35      1.045918  2 O  s          
    44     -0.993195  2 O  py                14      0.852032  1 O  pz         
    64      0.809617  3 H  s                 70     -0.698968  4 H  s          
     9      0.663276  1 O  px                12     -0.624781  1 O  px         
 
 Vector   33  Occ=0.000000D+00  E= 1.952530D+00
              MO Center= -8.4D+00,  2.7D+00,  3.6D-01, r^2= 1.9D+00
   Bfn.  Coefficient  Atom+Function         Bfn.  Coefficient  Atom+Function  
  ----- ------------  ---------------      ----- ------------  ---------------
    72      0.798310  4 H  px                64     -0.692806  3 H  s          
    70     -0.570018  4 H  s                 54      0.451792  2 O  d  1       
    68     -0.450071  3 H  pz                 5      0.428779  1 O  s          
    67     -0.416939  3 H  py                36     -0.383132  2 O  s          
    14      0.372105  1 O  pz                35      0.364607  2 O  s          
 
 Vector   34  Occ=0.000000D+00  E= 2.018929D+00
              MO Center= -8.3D+00,  2.8D+00, -1.3D-01, r^2= 1.9D+00
   Bfn.  Coefficient  Atom+Function         Bfn.  Coefficient  Atom+Function  
  ----- ------------  ---------------      ----- ------------  ---------------
     5      1.082030  1 O  s                 36     -1.067950  2 O  s          
    67      0.720104  3 H  py                20      0.705847  1 O  d -2       
    70      0.692669  4 H  s                 13     -0.526849  1 O  py         
    44     -0.472104  2 O  py                45      0.430063  2 O  pz         
    52      0.389053  2 O  d -1              54      0.383703  2 O  d  1       
 
 Vector   35  Occ=0.000000D+00  E= 2.066941D+00
              MO Center= -8.3D+00,  2.6D+00,  1.8D-01, r^2= 1.9D+00
   Bfn.  Coefficient  Atom+Function         Bfn.  Coefficient  Atom+Function  
  ----- ------------  ---------------      ----- ------------  ---------------
    64      0.883860  3 H  s                  4     -0.619540  1 O  s          
    53     -0.584241  2 O  d  0              55     -0.569246  2 O  d  2       
     9      0.523707  1 O  px                73     -0.510214  4 H  py         
    68      0.472741  3 H  pz                11      0.397476  1 O  pz         
    24     -0.390990  1 O  d  2              74      0.385702  4 H  pz         
 
 Vector   36  Occ=0.000000D+00  E= 2.099691D+00
              MO Center= -8.3D+00,  2.7D+00, -1.1D-01, r^2= 2.1D+00
   Bfn.  Coefficient  Atom+Function         Bfn.  Coefficient  Atom+Function  
  ----- ------------  ---------------      ----- ------------  ---------------
    70      0.892098  4 H  s                 64      0.755334  3 H  s          
     9      0.729956  1 O  px                66      0.614307  3 H  px         
    35     -0.608130  2 O  s                 42     -0.585564  2 O  pz         
     4     -0.542568  1 O  s                 22     -0.481492  1 O  d  0       
    69     -0.452977  4 H  s                 23      0.449392  1 O  d  1       
 
 Vector   37  Occ=0.000000D+00  E= 2.184423D+00
              MO Center= -8.4D+00,  2.9D+00,  3.4D-02, r^2= 2.3D+00
   Bfn.  Coefficient  Atom+Function         Bfn.  Coefficient  Atom+Function  
  ----- ------------  ---------------      ----- ------------  ---------------
    64      1.712484  3 H  s                  5     -1.300872  1 O  s          
    36      1.307159  2 O  s                 70     -1.292458  4 H  s          
     4     -1.041214  1 O  s                  9      0.839704  1 O  px         
    66      0.768338  3 H  px                14     -0.720099  1 O  pz         
    45     -0.721312  2 O  pz                13      0.683772  1 O  py         
 
 Vector   38  Occ=0.000000D+00  E= 2.230972D+00
              MO Center= -8.3D+00,  2.6D+00,  2.4D-01, r^2= 2.0D+00
   Bfn.  Coefficient  Atom+Function         Bfn.  Coefficient  Atom+Function  
  ----- ------------  ---------------      ----- ------------  ---------------
    70      1.533708  4 H  s                 64      1.083948  3 H  s          
    42     -0.876566  2 O  pz                35     -0.823637  2 O  s          
    74     -0.669621  4 H  pz                 4     -0.646499  1 O  s          
    69     -0.528634  4 H  s                 10     -0.510321  1 O  py         
     9      0.491871  1 O  px                43     -0.463540  2 O  px         
 
 Vector   39  Occ=0.000000D+00  E= 2.378699D+00
              MO Center= -8.3D+00,  2.5D+00,  3.7D-01, r^2= 1.8D+00
   Bfn.  Coefficient  Atom+Function         Bfn.  Coefficient  Atom+Function  
  ----- ------------  ---------------      ----- ------------  ---------------
    70      1.687636  4 H  s                 74     -0.996676  4 H  pz         
    35     -0.981811  2 O  s                 11      0.756608  1 O  pz         
    45     -0.629718  2 O  pz                38     -0.622601  2 O  py         
    44     -0.597937  2 O  py                64      0.578688  3 H  s          
    73     -0.522964  4 H  py                 4     -0.499591  1 O  s          
 
 Vector   40  Occ=0.000000D+00  E= 2.400205D+00
              MO Center= -8.2D+00,  2.6D+00,  1.1D-01, r^2= 1.7D+00
   Bfn.  Coefficient  Atom+Function         Bfn.  Coefficient  Atom+Function  
  ----- ------------  ---------------      ----- ------------  ---------------
    64      0.829908  3 H  s                  6      0.698952  1 O  px         
    45      0.662180  2 O  pz                40     -0.656820  2 O  px         
    12      0.628488  1 O  px                 4     -0.573297  1 O  s          
    41      0.569565  2 O  py                37      0.532121  2 O  px         
    66      0.520619  3 H  px                39      0.503109  2 O  pz         
 
 Vector   41  Occ=0.000000D+00  E= 2.434436D+00
              MO Center= -8.3D+00,  2.8D+00, -1.2D-01, r^2= 1.4D+00
   Bfn.  Coefficient  Atom+Function         Bfn.  Coefficient  Atom+Function  
  ----- ------------  ---------------      ----- ------------  ---------------
     4      1.382613  1 O  s                 64     -0.927542  3 H  s          
    35      0.797373  2 O  s                  3     -0.666393  1 O  s          
     8     -0.658309  1 O  pz                41      0.630767  2 O  py         
    11      0.575373  1 O  pz                66     -0.578208  3 H  px         
    40      0.563566  2 O  px                14     -0.529582  1 O  pz         
 
 Vector   42  Occ=0.000000D+00  E= 2.553273D+00
              MO Center= -8.3D+00,  2.7D+00,  2.6D-01, r^2= 1.6D+00
   Bfn.  Coefficient  Atom+Function         Bfn.  Coefficient  Atom+Function  
  ----- ------------  ---------------      ----- ------------  ---------------
    36      2.365612  2 O  s                 70     -1.626890  4 H  s          
    35     -1.244227  2 O  s                 34      1.149316  2 O  s          
    10      1.047827  1 O  py                74      0.725361  4 H  pz         
    73      0.706443  4 H  py                 7     -0.693138  1 O  py         
    44      0.663882  2 O  py                53      0.596907  2 O  d  0       
 
 Vector   43  Occ=0.000000D+00  E= 2.584854D+00
              MO Center= -8.5D+00,  2.9D+00, -2.2D-01, r^2= 1.5D+00
   Bfn.  Coefficient  Atom+Function         Bfn.  Coefficient  Atom+Function  
  ----- ------------  ---------------      ----- ------------  ---------------
     5      2.247851  1 O  s                 64     -1.877099  3 H  s          
    66     -1.227772  3 H  px                 3      1.038366  1 O  s          
    40     -0.920236  2 O  px                 4     -0.813344  1 O  s          
    12     -0.816861  1 O  px                37      0.674219  2 O  px         
    23     -0.548664  1 O  d  1               9     -0.511179  1 O  px         
 
 Vector   44  Occ=0.000000D+00  E= 2.675230D+00
              MO Center= -8.1D+00,  2.3D+00, -8.3D-02, r^2= 1.5D+00
   Bfn.  Coefficient  Atom+Function         Bfn.  Coefficient  Atom+Function  
  ----- ------------  ---------------      ----- ------------  ---------------
    36     -2.708147  2 O  s                  5      2.607836  1 O  s          
    35      2.259511  2 O  s                  4     -1.903389  1 O  s          
    34     -1.449664  2 O  s                  3      1.258213  1 O  s          
    41     -0.967260  2 O  py                 9     -0.717930  1 O  px         
    11      0.668978  1 O  pz                13     -0.600375  1 O  py         
 
 Vector   45  Occ=0.000000D+00  E= 2.717557D+00
              MO Center= -8.3D+00,  2.8D+00,  6.7D-03, r^2= 1.7D+00
   Bfn.  Coefficient  Atom+Function         Bfn.  Coefficient  Atom+Function  
  ----- ------------  ---------------      ----- ------------  ---------------
     4      2.590701  1 O  s                 35      2.229901  2 O  s          
     5     -1.741773  1 O  s                  3     -1.697260  1 O  s          
    34     -1.453806  2 O  s                 36     -1.263961  2 O  s          
    40     -0.697987  2 O  px                 9      0.574467  1 O  px         
    10      0.482866  1 O  py                37      0.450495  2 O  px         
 
 Vector   46  Occ=0.000000D+00  E= 3.552725D+00
              MO Center= -8.3D+00,  2.5D+00,  6.9D-01, r^2= 1.3D+00
   Bfn.  Coefficient  Atom+Function         Bfn.  Coefficient  Atom+Function  
  ----- ------------  ---------------      ----- ------------  ---------------
    35      3.568937  2 O  s                 42      1.811763  2 O  pz         
    70     -1.816634  4 H  s                 34     -1.775750  2 O  s          
     4     -1.642821  1 O  s                 41      1.342405  2 O  py         
    74      1.317221  4 H  pz                69     -0.895512  4 H  s          
    64      0.877865  3 H  s                 52      0.864543  2 O  d -1       
 
 Vector   47  Occ=0.000000D+00  E= 3.620416D+00
              MO Center= -8.5D+00,  3.0D+00, -4.3D-01, r^2= 1.3D+00
   Bfn.  Coefficient  Atom+Function         Bfn.  Coefficient  Atom+Function  
  ----- ------------  ---------------      ----- ------------  ---------------
     4      3.660581  1 O  s                  9     -2.297394  1 O  px         
    64     -1.892109  3 H  s                  3     -1.658951  1 O  s          
    66     -1.501466  3 H  px                63     -1.085598  3 H  s          
    35      0.992409  2 O  s                 11     -0.876135  1 O  pz         
    42      0.868849  2 O  pz                24      0.841327  1 O  d  2       
 
 Vector   48  Occ=0.000000D+00  E= 3.847717D+00
              MO Center= -8.3D+00,  2.6D+00,  7.7D-03, r^2= 9.4D-01
   Bfn.  Coefficient  Atom+Function         Bfn.  Coefficient  Atom+Function  
  ----- ------------  ---------------      ----- ------------  ---------------
    35     -1.616435  2 O  s                 42      1.523815  2 O  pz         
    11      1.492455  1 O  pz                 4      1.294315  1 O  s          
    10     -1.168385  1 O  py                34      1.157935  2 O  s          
     3     -1.040568  1 O  s                 41     -0.894186  2 O  py         
    52      0.747894  2 O  d -1              21     -0.583152  1 O  d -1       
 
 Vector   49  Occ=0.000000D+00  E= 4.659877D+00
              MO Center= -8.2D+00,  2.6D+00,  2.2D-02, r^2= 1.0D+00
   Bfn.  Coefficient  Atom+Function         Bfn.  Coefficient  Atom+Function  
  ----- ------------  ---------------      ----- ------------  ---------------
    28      0.337391  1 O  f  0              30      0.332456  1 O  f  2       
    26      0.325044  1 O  f -2              59      0.309774  2 O  f  0       
    57      0.295920  2 O  f -2              61      0.296193  2 O  f  2       
    60      0.288236  2 O  f  1              25     -0.272646  1 O  f -3       
     9      0.265166  1 O  px                56     -0.265965  2 O  f -3       
 
 Vector   50  Occ=0.000000D+00  E= 4.719923D+00
              MO Center= -8.2D+00,  2.6D+00,  2.1D-02, r^2= 9.6D-01
   Bfn.  Coefficient  Atom+Function         Bfn.  Coefficient  Atom+Function  
  ----- ------------  ---------------      ----- ------------  ---------------
    27      0.516870  1 O  f -1              57      0.374536  2 O  f -2       
    58     -0.365369  2 O  f -1              61     -0.321578  2 O  f  2       
    31      0.274275  1 O  f  3              30      0.261489  1 O  f  2       
     5     -0.240856  1 O  s                 36     -0.236974  2 O  s          
    62     -0.234760  2 O  f  3              35      0.203196  2 O  s          
 
 Vector   51  Occ=0.000000D+00  E= 4.743076D+00
              MO Center= -8.2D+00,  2.6D+00,  1.1D-02, r^2= 1.1D+00
   Bfn.  Coefficient  Atom+Function         Bfn.  Coefficient  Atom+Function  
  ----- ------------  ---------------      ----- ------------  ---------------
     4      0.546376  1 O  s                 26     -0.522346  1 O  f -2       
    35     -0.460571  2 O  s                  9     -0.421359  1 O  px         
    62      0.402606  2 O  f  3              59      0.379118  2 O  f  0       
    28      0.296078  1 O  f  0              27     -0.286398  1 O  f -1       
    58     -0.272112  2 O  f -1              42     -0.266796  2 O  pz         
 
 Vector   52  Occ=0.000000D+00  E= 4.841771D+00
              MO Center= -8.2D+00,  2.6D+00, -5.0D-03, r^2= 1.0D+00
   Bfn.  Coefficient  Atom+Function         Bfn.  Coefficient  Atom+Function  
  ----- ------------  ---------------      ----- ------------  ---------------
    29      0.517191  1 O  f  1              56     -0.434919  2 O  f -3       
    60     -0.408279  2 O  f  1              25      0.277968  1 O  f -3       
    28     -0.258838  1 O  f  0              62     -0.246943  2 O  f  3       
    31      0.243121  1 O  f  3              61      0.149733  2 O  f  2       
    27     -0.147827  1 O  f -1              73      0.123944  4 H  py         
 
 Vector   53  Occ=0.000000D+00  E= 4.944676D+00
              MO Center= -8.3D+00,  2.6D+00,  7.8D-02, r^2= 1.1D+00
   Bfn.  Coefficient  Atom+Function         Bfn.  Coefficient  Atom+Function  
  ----- ------------  ---------------      ----- ------------  ---------------
    31      0.512107  1 O  f  3              56      0.496996  2 O  f -3       
    59      0.394293  2 O  f  0              28     -0.307229  1 O  f  0       
    62     -0.266027  2 O  f  3              27     -0.233528  1 O  f -1       
    11      0.219422  1 O  pz                42      0.218177  2 O  pz         
    60      0.182293  2 O  f  1              58      0.165428  2 O  f -1       
 
 Vector   54  Occ=0.000000D+00  E= 5.185530D+00
              MO Center= -8.3D+00,  2.5D+00,  1.8D-01, r^2= 9.7D-01
   Bfn.  Coefficient  Atom+Function         Bfn.  Coefficient  Atom+Function  
  ----- ------------  ---------------      ----- ------------  ---------------
    25      0.515407  1 O  f -3              56      0.478592  2 O  f -3       
    61      0.363691  2 O  f  2              62      0.349697  2 O  f  3       
    59     -0.265460  2 O  f  0              30      0.247276  1 O  f  2       
    57      0.240941  2 O  f -2              72     -0.217364  4 H  px         
    67     -0.187396  3 H  py                29      0.183178  1 O  f  1       
 
 Vector   55  Occ=0.000000D+00  E= 5.241937D+00
              MO Center= -8.4D+00,  2.3D+00,  3.7D-01, r^2= 8.4D-01
   Bfn.  Coefficient  Atom+Function         Bfn.  Coefficient  Atom+Function  
  ----- ------------  ---------------      ----- ------------  ---------------
    60      0.577161  2 O  f  1              61     -0.436077  2 O  f  2       
    25      0.339450  1 O  f -3              56     -0.316228  2 O  f -3       
    62      0.274711  2 O  f  3              58      0.246401  2 O  f -1       
    72      0.213457  4 H  px                57     -0.204793  2 O  f -2       
    28     -0.198884  1 O  f  0              30      0.178438  1 O  f  2       
 
 Vector   56  Occ=0.000000D+00  E= 5.268000D+00
              MO Center= -8.2D+00,  2.9D+00, -4.2D-01, r^2= 7.2D-01
   Bfn.  Coefficient  Atom+Function         Bfn.  Coefficient  Atom+Function  
  ----- ------------  ---------------      ----- ------------  ---------------
    29      0.685660  1 O  f  1              30     -0.449966  1 O  f  2       
    27      0.310213  1 O  f -1              68      0.281133  3 H  pz         
    26     -0.274476  1 O  f -2              25     -0.271226  1 O  f -3       
    60      0.263093  2 O  f  1              67      0.183703  3 H  py         
    56      0.155517  2 O  f -3              62      0.140342  2 O  f  3       
 
 Vector   57  Occ=0.000000D+00  E= 5.282595D+00
              MO Center= -8.3D+00,  2.7D+00, -1.9D-02, r^2= 9.7D-01
   Bfn.  Coefficient  Atom+Function         Bfn.  Coefficient  Atom+Function  
  ----- ------------  ---------------      ----- ------------  ---------------
    62      0.513188  2 O  f  3              25     -0.418552  1 O  f -3       
    31      0.418470  1 O  f  3              28     -0.383645  1 O  f  0       
    59     -0.250898  2 O  f  0              58     -0.247574  2 O  f -1       
     9     -0.237989  1 O  px                60     -0.212962  2 O  f  1       
    67      0.197625  3 H  py                74      0.197453  4 H  pz         
 
 Vector   58  Occ=0.000000D+00  E= 5.563306D+00
              MO Center= -8.2D+00,  2.6D+00,  3.9D-02, r^2= 9.7D-01
   Bfn.  Coefficient  Atom+Function         Bfn.  Coefficient  Atom+Function  
  ----- ------------  ---------------      ----- ------------  ---------------
    35      0.639869  2 O  s                 59      0.620925  2 O  f  0       
    42      0.523856  2 O  pz                26      0.446138  1 O  f -2       
    70     -0.445215  4 H  s                  4      0.441230  1 O  s          
    27      0.371465  1 O  f -1               9     -0.364513  1 O  px         
    64     -0.325455  3 H  s                 41      0.319376  2 O  py         
 
 Vector   59  Occ=0.000000D+00  E= 5.592558D+00
              MO Center= -8.2D+00,  2.6D+00,  3.0D-02, r^2= 8.8D-01
   Bfn.  Coefficient  Atom+Function         Bfn.  Coefficient  Atom+Function  
  ----- ------------  ---------------      ----- ------------  ---------------
     9      0.443549  1 O  px                57      0.438348  2 O  f -2       
     4     -0.400077  1 O  s                 26     -0.363421  1 O  f -2       
    28     -0.349461  1 O  f  0              42      0.342096  2 O  pz         
    64      0.323529  3 H  s                 49     -0.307284  2 O  d  1       
    66      0.307676  3 H  px                29     -0.292358  1 O  f  1       
 
 Vector   60  Occ=0.000000D+00  E= 5.823373D+00
              MO Center= -8.3D+00,  2.4D+00,  4.3D-01, r^2= 8.2D-01
   Bfn.  Coefficient  Atom+Function         Bfn.  Coefficient  Atom+Function  
  ----- ------------  ---------------      ----- ------------  ---------------
    35      0.936716  2 O  s                 42      0.822949  2 O  pz         
    74      0.605664  4 H  pz                69     -0.583114  4 H  s          
    47      0.533133  2 O  d -1              70     -0.510421  4 H  s          
    57      0.436501  2 O  f -2              41      0.433995  2 O  py         
    34     -0.411800  2 O  s                 73      0.363062  4 H  py         
 
 Vector   61  Occ=0.000000D+00  E= 5.966930D+00
              MO Center= -8.3D+00,  2.8D+00, -2.2D-01, r^2= 9.0D-01
   Bfn.  Coefficient  Atom+Function         Bfn.  Coefficient  Atom+Function  
  ----- ------------  ---------------      ----- ------------  ---------------
     4      1.040381  1 O  s                  9     -0.895987  1 O  px         
    35      0.724285  2 O  s                 66     -0.662026  3 H  px         
    63     -0.625420  3 H  s                 64     -0.548203  3 H  s          
    19      0.506058  1 O  d  2              18     -0.494542  1 O  d  1       
    11     -0.439634  1 O  pz                 3     -0.401576  1 O  s          
 
 Vector   62  Occ=0.000000D+00  E= 6.100093D+00
              MO Center= -8.2D+00,  2.6D+00, -3.7D-02, r^2= 8.9D-01
   Bfn.  Coefficient  Atom+Function         Bfn.  Coefficient  Atom+Function  
  ----- ------------  ---------------      ----- ------------  ---------------
     5      1.274303  1 O  s                 36     -1.188586  2 O  s          
     4     -1.091682  1 O  s                 35      0.828600  2 O  s          
    16      0.720525  1 O  d -1              48      0.499042  2 O  d  0       
     3      0.475889  1 O  s                 50     -0.411504  2 O  d  2       
    44     -0.408839  2 O  py                21     -0.377737  1 O  d -1       
 
 Vector   63  Occ=0.000000D+00  E= 6.115870D+00
              MO Center= -8.2D+00,  2.6D+00,  1.0D-02, r^2= 8.9D-01
   Bfn.  Coefficient  Atom+Function         Bfn.  Coefficient  Atom+Function  
  ----- ------------  ---------------      ----- ------------  ---------------
    50      0.593743  2 O  d  2              19     -0.515045  1 O  d  2       
    18     -0.466137  1 O  d  1              17     -0.400825  1 O  d  0       
    48      0.351849  2 O  d  0              49      0.322168  2 O  d  1       
    55     -0.296736  2 O  d  2              23      0.271360  1 O  d  1       
    46      0.243748  2 O  d -2              24      0.219103  1 O  d  2       
 
 Vector   64  Occ=0.000000D+00  E= 6.170675D+00
              MO Center= -8.2D+00,  2.6D+00, -3.2D-02, r^2= 9.1D-01
   Bfn.  Coefficient  Atom+Function         Bfn.  Coefficient  Atom+Function  
  ----- ------------  ---------------      ----- ------------  ---------------
    15      0.655146  1 O  d -2              49     -0.502047  2 O  d  1       
     4     -0.427532  1 O  s                 20     -0.367414  1 O  d -2       
    47     -0.352253  2 O  d -1              54      0.345328  2 O  d  1       
    46      0.340547  2 O  d -2              17      0.336691  1 O  d  0       
     9      0.315330  1 O  px                64      0.297932  3 H  s          
 
 Vector   65  Occ=0.000000D+00  E= 6.195249D+00
              MO Center= -8.2D+00,  2.6D+00,  2.6D-02, r^2= 9.0D-01
   Bfn.  Coefficient  Atom+Function         Bfn.  Coefficient  Atom+Function  
  ----- ------------  ---------------      ----- ------------  ---------------
    46      0.602806  2 O  d -2              17      0.535619  1 O  d  0       
     5      0.463617  1 O  s                 36     -0.463341  2 O  s          
    15     -0.447652  1 O  d -2              49      0.420011  2 O  d  1       
    51     -0.347327  2 O  d -2              18     -0.321157  1 O  d  1       
    48     -0.312543  2 O  d  0              22     -0.298099  1 O  d  0       
 
 Vector   66  Occ=0.000000D+00  E= 6.251044D+00
              MO Center= -8.2D+00,  2.6D+00, -2.4D-03, r^2= 9.4D-01
   Bfn.  Coefficient  Atom+Function         Bfn.  Coefficient  Atom+Function  
  ----- ------------  ---------------      ----- ------------  ---------------
    15      0.614426  1 O  d -2              18     -0.523491  1 O  d  1       
    50     -0.480104  2 O  d  2              20     -0.447747  1 O  d -2       
    49      0.403280  2 O  d  1              46     -0.399980  2 O  d -2       
     4      0.363471  1 O  s                 55      0.332274  2 O  d  2       
    47      0.288505  2 O  d -1              23      0.282300  1 O  d  1       
 
 Vector   67  Occ=0.000000D+00  E= 6.514059D+00
              MO Center= -8.3D+00,  2.5D+00,  8.1D-02, r^2= 1.0D+00
   Bfn.  Coefficient  Atom+Function         Bfn.  Coefficient  Atom+Function  
  ----- ------------  ---------------      ----- ------------  ---------------
    70      0.849320  4 H  s                 64      0.738740  3 H  s          
    42     -0.648862  2 O  pz                46      0.640135  2 O  d -2       
     9      0.609369  1 O  px                16     -0.611184  1 O  d -1       
    51     -0.574390  2 O  d -2              36     -0.486771  2 O  s          
    50     -0.455461  2 O  d  2              74     -0.456969  4 H  pz         
 
 Vector   68  Occ=0.000000D+00  E= 6.615328D+00
              MO Center= -8.2D+00,  2.6D+00, -1.4D-02, r^2= 1.1D+00
   Bfn.  Coefficient  Atom+Function         Bfn.  Coefficient  Atom+Function  
  ----- ------------  ---------------      ----- ------------  ---------------
    64     -0.988489  3 H  s                 24      0.918144  1 O  d  2       
     4      0.909610  1 O  s                  9     -0.901918  1 O  px         
    70      0.773335  4 H  s                 19     -0.724740  1 O  d  2       
    35     -0.688717  2 O  s                  5      0.635548  1 O  s          
    54      0.609862  2 O  d  1              36     -0.575722  2 O  s          
 
 Vector   69  Occ=0.000000D+00  E= 6.753648D+00
              MO Center= -8.2D+00,  2.6D+00,  2.3D-02, r^2= 1.0D+00
   Bfn.  Coefficient  Atom+Function         Bfn.  Coefficient  Atom+Function  
  ----- ------------  ---------------      ----- ------------  ---------------
    17      0.637872  1 O  d  0              22     -0.623251  1 O  d  0       
    48      0.621466  2 O  d  0              53     -0.582134  2 O  d  0       
    47     -0.459216  2 O  d -1              16     -0.373428  1 O  d -1       
    52      0.328598  2 O  d -1              51      0.325707  2 O  d -2       
     9     -0.298098  1 O  px                46     -0.273343  2 O  d -2       
 
 Vector   70  Occ=0.000000D+00  E= 6.814504D+00
              MO Center= -8.3D+00,  2.5D+00,  5.3D-02, r^2= 1.2D+00
   Bfn.  Coefficient  Atom+Function         Bfn.  Coefficient  Atom+Function  
  ----- ------------  ---------------      ----- ------------  ---------------
     4      1.081282  1 O  s                 35     -1.066359  2 O  s          
    64     -0.919058  3 H  s                 70      0.917174  4 H  s          
     9     -0.823218  1 O  px                52     -0.726344  2 O  d -1       
    23     -0.701930  1 O  d  1              42     -0.687176  2 O  pz         
    66     -0.657688  3 H  px                63     -0.639899  3 H  s          
 
 Vector   71  Occ=0.000000D+00  E= 7.024916D+00
              MO Center= -8.2D+00,  2.7D+00, -7.7D-02, r^2= 1.1D+00
   Bfn.  Coefficient  Atom+Function         Bfn.  Coefficient  Atom+Function  
  ----- ------------  ---------------      ----- ------------  ---------------
     4      1.552778  1 O  s                 35      1.061275  2 O  s          
    64     -1.047493  3 H  s                  9     -1.028693  1 O  px         
    63     -0.842011  3 H  s                 23     -0.776115  1 O  d  1       
    66     -0.759807  3 H  px                24      0.702839  1 O  d  2       
    70     -0.679874  4 H  s                 52      0.646935  2 O  d -1       
 
 Vector   72  Occ=0.000000D+00  E= 7.714814D+00
              MO Center= -8.2D+00,  2.6D+00,  2.0D-02, r^2= 1.1D+00
   Bfn.  Coefficient  Atom+Function         Bfn.  Coefficient  Atom+Function  
  ----- ------------  ---------------      ----- ------------  ---------------
    42      1.616077  2 O  pz                35     -1.600981  2 O  s          
     4      1.588951  1 O  s                 11      1.532630  1 O  pz         
    52      1.383632  2 O  d -1              10     -1.283510  1 O  py         
    21     -1.233784  1 O  d -1              41     -1.130153  2 O  py         
     3     -1.083639  1 O  s                 34      1.082004  2 O  s          
 
 Vector   73  Occ=0.000000D+00  E= 4.266648D+01
              MO Center= -8.2D+00,  2.6D+00,  1.5D-02, r^2= 6.6D-01
   Bfn.  Coefficient  Atom+Function         Bfn.  Coefficient  Atom+Function  
  ----- ------------  ---------------      ----- ------------  ---------------
     2      1.199391  1 O  s                 33      1.191213  2 O  s          
     4      1.099635  1 O  s                 35      1.077601  2 O  s          
     3     -1.063500  1 O  s                 34     -1.054583  2 O  s          
     1     -0.985622  1 O  s                 32     -0.978831  2 O  s          
     5     -0.475505  1 O  s                 36     -0.461179  2 O  s          
 
 Vector   74  Occ=0.000000D+00  E= 4.314197D+01
              MO Center= -8.2D+00,  2.6D+00,  2.2D-02, r^2= 6.6D-01
   Bfn.  Coefficient  Atom+Function         Bfn.  Coefficient  Atom+Function  
  ----- ------------  ---------------      ----- ------------  ---------------
     4      1.431945  1 O  s                 35     -1.428683  2 O  s          
    34      1.258054  2 O  s                  3     -1.250059  1 O  s          
    33     -1.220354  2 O  s                  2      1.211804  1 O  s          
    32      0.988874  2 O  s                  1     -0.982032  1 O  s          
     5     -0.675915  1 O  s                 36      0.665548  2 O  s          
 

 center of mass
 --------------
 x = -15.61131378 y =   4.91631952 z =   0.05853712

 moments of inertia (a.u.)
 ------------------
          70.225721190847          -8.638250056657           9.011618924973
          -8.638250056657          49.421642046834          31.177310245181
           9.011618924973          31.177310245181          32.414342726330
 
     Multipole analysis of the density
     ---------------------------------
 
     L   x y z        total         alpha         beta         nuclear
     -   - - -        -----         -----         ----         -------
     0   0 0 0     -0.000000     -9.000000     -9.000000     18.000000
 
     1   1 0 0     -0.392387    140.552168    140.552168   -281.496722
     1   0 1 0      0.480253    -44.321925    -44.321925     89.124104
     1   0 0 1      0.282278     -0.573481     -0.573481      1.429239
 
     2   2 0 0      3.469118  -2201.243013  -2201.243013   4405.955143
     2   1 1 0    -10.195325    689.990685    689.990685  -1390.176695
     2   1 0 1     -2.794843     11.319827     11.319827    -25.434497
     2   0 2 0     -4.800049   -230.035481   -230.035481    455.270913
     2   0 1 1      1.363924      5.405468      5.405468     -9.447012
     2   0 0 2     -6.367896    -16.441954    -16.441954     26.516013
 
 
            General Information
            -------------------
          SCF calculation type: DFT
          Wavefunction type:  closed shell.
          No. of atoms     :     4
          No. of electrons :    18
           Alpha electrons :     9
            Beta electrons :     9
          Charge           :     0
          Spin multiplicity:     1
          Use of symmetry is: off; symmetry adaption is: off
          Maximum number of iterations: 250
          This is a Direct SCF calculation.
          AO basis - number of functions:    74
                     number of shells:    30
          Convergence on energy requested:  1.00D-08
          Convergence on density requested:  1.00D-05
          Convergence on gradient requested:  1.00D-08
 
              XC Information
              --------------
                    Becke 1988 Exchange Functional  1.000          
              Lee-Yang-Parr Correlation Functional  1.000          
 
             Grid Information
             ----------------
          Grid used for XC integration:  xfine     
          Radial quadrature: Mura-Knowles        
          Angular quadrature: Lebedev. 
          Tag              B.-S. Rad. Rad. Pts. Rad. Cut. Ang. Pts.
          ---              ---------- --------- --------- ---------
          O                   0.60      100           8.0      1454
          H                   0.35      100           9.0      1202
          Grid pruning is: on 
          Number of quadrature shells:   400
          Spatial weights used:  Erf1
 
          Convergence Information
          -----------------------
          Convergence aids based upon iterative change in 
          total energy or number of iterations. 
          Levelshifting, if invoked, occurs when the 
          HOMO/LUMO gap drops below (HL_TOL):  1.00D-02
          DIIS, if invoked, will attempt to extrapolate 
          using up to (NFOCK): 10 stored Fock matrices.

                    Damping( 0%)  Levelshifting(0.0)       DIIS
                  --------------- ------------------- ---------------
          dE  on:    start             N/A                start   
          dE off:    2 iters           N/A              250 iters 

 
      Screening Tolerance Information
      -------------------------------
          Density screening/tol_rho:  1.00D-11
          AO Gaussian exp screening on grid/accAOfunc:  18
          CD Gaussian exp screening on grid/accCDfunc:  20
          XC Gaussian exp screening on grid/accXCfunc:  20
          Schwarz screening/accCoul:  1.00D-09

 
 
                            NWChem DFT Gradient Module
                            --------------------------
 
 
                         h2o2 roa calculations at 514.5 nm, input generated by va with delta_type=2
 
 

  charge          =   0.00
  wavefunction    = closed shell



                         DFT ENERGY GRADIENTS

    atom               coordinates                        gradient
                 x          y          z           x          y          z
   1 O     -15.221709   5.762672  -1.000196   -0.015810   0.003229  -0.006256
   2 O     -15.938272   3.989879   1.069553   -0.005716  -0.010003  -0.014238
   3 H     -16.870060   6.101708  -1.681658    0.015754  -0.003128   0.006354
   4 H     -15.346814   5.001989   2.556043    0.005772   0.009901   0.014140
 
                 ----------------------------------------
                 |  Time  |  1-e(secs)   |  2-e(secs)   |
                 ----------------------------------------
                 |  CPU   |       0.01   |       2.25   |
                 ----------------------------------------
                 |  WALL  |       0.01   |       2.26   |
                 ----------------------------------------

 Task  times  cpu:       38.2s     wall:       39.0s
 
 
                                NWChem Input Module
                                -------------------
 
 
                              NWChem Property Module
                              ----------------------
 
 
                         h2o2 roa calculations at 514.5 nm, input generated by va with delta_type=2
 
 
                                 NWChem DFT Module
                                 -----------------
 
 
                         h2o2 roa calculations at 514.5 nm, input generated by va with delta_type=2
 
 


 Summary of "ao basis" -> "ao basis" (spherical)
 ------------------------------------------------------------------------------
       Tag                 Description            Shells   Functions and Types
 ---------------- ------------------------------  ------  ---------------------
 O                         def2-TZVP                11       31   5s3p2d1f
 H                         def2-TZVP                 4        6   3s1p


  Caching 1-el integrals 
 
            General Information
            -------------------
          SCF calculation type: DFT
          Wavefunction type:  closed shell.
          No. of atoms     :     4
          No. of electrons :    18
           Alpha electrons :     9
            Beta electrons :     9
          Charge           :     0
          Spin multiplicity:     1
          Use of symmetry is: off; symmetry adaption is: off
          Maximum number of iterations: 250
          This is a Direct SCF calculation.
          AO basis - number of functions:    74
                     number of shells:    30
          Convergence on energy requested:  1.00D-08
          Convergence on density requested:  1.00D-05
          Convergence on gradient requested:  1.00D-08
 
              XC Information
              --------------
                    Becke 1988 Exchange Functional  1.000          
              Lee-Yang-Parr Correlation Functional  1.000          
 
             Grid Information
             ----------------
          Grid used for XC integration:  xfine     
          Radial quadrature: Mura-Knowles        
          Angular quadrature: Lebedev. 
          Tag              B.-S. Rad. Rad. Pts. Rad. Cut. Ang. Pts.
          ---              ---------- --------- --------- ---------
          O                   0.60      100           8.0      1454
          H                   0.35      100           9.0      1202
          Grid pruning is: on 
          Number of quadrature shells:   400
          Spatial weights used:  Erf1
 
          Convergence Information
          -----------------------
          Convergence aids based upon iterative change in 
          total energy or number of iterations. 
          Levelshifting, if invoked, occurs when the 
          HOMO/LUMO gap drops below (HL_TOL):  1.00D-02
          DIIS, if invoked, will attempt to extrapolate 
          using up to (NFOCK): 10 stored Fock matrices.

                    Damping( 0%)  Levelshifting(0.0)       DIIS
                  --------------- ------------------- ---------------
          dE  on:    start             N/A                start   
          dE off:    2 iters           N/A              250 iters 

 
      Screening Tolerance Information
      -------------------------------
          Density screening/tol_rho:  1.00D-11
          AO Gaussian exp screening on grid/accAOfunc:  18
          CD Gaussian exp screening on grid/accCDfunc:  20
          XC Gaussian exp screening on grid/accXCfunc:  20
          Schwarz screening/accCoul:  1.00D-09


 Loading old vectors from job with title :

h2o2 roa calculations at 514.5 nm, input generated by va with delta_type=2

   Time after variat. SCF:     39.5
   Time prior to 1st pass:     39.5

 Grid_pts file          = ./h2o2_514.5_05.inp.gridpts.0
 Record size in doubles =  12289        No. of grid_pts per rec  =   3070
 Max. records in memory =    210        Max. recs in file   =   3880700


           Memory utilization after 1st SCF pass: 
           Heap Space remaining (MW):       10.52            10522928
          Stack Space remaining (MW):       13.11            13106668

   convergence    iter        energy       DeltaE   RMS-Dens  Diis-err    time
 ---------------- ----- ----------------- --------- --------- ---------  ------
 d= 0,ls=0.0,diis     1   -151.6004603084 -1.88D+02  2.09D-08  1.70D-12    43.2
 d= 0,ls=0.0,diis     2   -151.6004603084  8.53D-14  1.01D-08  1.55D-12    46.6


         Total DFT energy =     -151.600460308381
      One electron energy =     -279.835826786113
           Coulomb energy =      110.059338010173
    Exchange-Corr. energy =      -17.810530685668
 Nuclear repulsion energy =       35.986559153226

 Numeric. integr. density =       17.999999997600

     Total iterative time =      7.1s


 
                       DFT Final Molecular Orbital Analysis
                       ------------------------------------
 
 Vector    1  Occ=2.000000D+00  E=-1.883405D+01
              MO Center= -8.4D+00,  2.1D+00,  5.7D-01, r^2= 1.5D-02
   Bfn.  Coefficient  Atom+Function         Bfn.  Coefficient  Atom+Function  
  ----- ------------  ---------------      ----- ------------  ---------------
    33      0.638761  2 O  s                 32      0.435398  2 O  s          
    34      0.037138  2 O  s                 35     -0.025002  2 O  s          
 
 Vector    2  Occ=2.000000D+00  E=-1.882990D+01
              MO Center= -8.1D+00,  3.0D+00, -5.3D-01, r^2= 1.5D-02
   Bfn.  Coefficient  Atom+Function         Bfn.  Coefficient  Atom+Function  
  ----- ------------  ---------------      ----- ------------  ---------------
     2      0.638754  1 O  s                  1      0.435388  1 O  s          
     3      0.037160  1 O  s                  4     -0.025107  1 O  s          
 
 Vector    3  Occ=2.000000D+00  E=-1.007830D+00
              MO Center= -8.3D+00,  2.7D+00,  2.2D-02, r^2= 8.1D-01
   Bfn.  Coefficient  Atom+Function         Bfn.  Coefficient  Atom+Function  
  ----- ------------  ---------------      ----- ------------  ---------------
     4      0.317951  1 O  s                 35      0.307083  2 O  s          
     3      0.244573  1 O  s                 34      0.233894  2 O  s          
     2     -0.166513  1 O  s                 33     -0.159478  2 O  s          
     5      0.098554  1 O  s                 36      0.095135  2 O  s          
     1     -0.071532  1 O  s                 38      0.069881  2 O  py         
 
 Vector    4  Occ=2.000000D+00  E=-8.186302D-01
              MO Center= -8.3D+00,  2.7D+00,  8.6D-02, r^2= 1.3D+00
   Bfn.  Coefficient  Atom+Function         Bfn.  Coefficient  Atom+Function  
  ----- ------------  ---------------      ----- ------------  ---------------
    35     -0.337252  2 O  s                  4      0.316527  1 O  s          
    34     -0.260279  2 O  s                  3      0.247998  1 O  s          
    33      0.171558  2 O  s                  2     -0.162961  1 O  s          
    36     -0.145718  2 O  s                  5      0.136582  1 O  s          
    63      0.093565  3 H  s                 69     -0.087579  4 H  s          
 
 Vector    5  Occ=2.000000D+00  E=-4.732697D-01
              MO Center= -8.3D+00,  2.7D+00,  5.3D-02, r^2= 1.3D+00
   Bfn.  Coefficient  Atom+Function         Bfn.  Coefficient  Atom+Function  
  ----- ------------  ---------------      ----- ------------  ---------------
    39      0.303469  2 O  pz                42      0.238916  2 O  pz         
     7      0.206267  1 O  py                 8     -0.202693  1 O  pz         
    10      0.165717  1 O  py                11     -0.159608  1 O  pz         
    64      0.135441  3 H  s                  6     -0.132690  1 O  px         
    70      0.125735  4 H  s                 63      0.111072  3 H  s          
 
 Vector    6  Occ=2.000000D+00  E=-4.328830D-01
              MO Center= -8.3D+00,  2.6D+00,  6.1D-02, r^2= 1.3D+00
   Bfn.  Coefficient  Atom+Function         Bfn.  Coefficient  Atom+Function  
  ----- ------------  ---------------      ----- ------------  ---------------
     6      0.250043  1 O  px                 9      0.185213  1 O  px         
    37      0.173692  2 O  px                39      0.167392  2 O  pz         
     4      0.155971  1 O  s                  5      0.155988  1 O  s          
    35     -0.150397  2 O  s                 36     -0.150842  2 O  s          
    38      0.149718  2 O  py                70      0.140255  4 H  s          
 
 Vector    7  Occ=2.000000D+00  E=-3.653989D-01
              MO Center= -8.2D+00,  2.5D+00, -2.3D-02, r^2= 1.3D+00
   Bfn.  Coefficient  Atom+Function         Bfn.  Coefficient  Atom+Function  
  ----- ------------  ---------------      ----- ------------  ---------------
    38      0.318170  2 O  py                41      0.249123  2 O  py         
     6     -0.238865  1 O  px                 8      0.216376  1 O  pz         
     9     -0.182265  1 O  px                11      0.175367  1 O  pz         
    44      0.164931  2 O  py                 5     -0.131668  1 O  s          
    36     -0.131121  2 O  s                 14      0.120087  1 O  pz         
 
 Vector    8  Occ=2.000000D+00  E=-2.754627D-01
              MO Center= -8.3D+00,  2.6D+00,  5.6D-02, r^2= 1.3D+00
   Bfn.  Coefficient  Atom+Function         Bfn.  Coefficient  Atom+Function  
  ----- ------------  ---------------      ----- ------------  ---------------
    37      0.343614  2 O  px                 7     -0.270195  1 O  py         
    40      0.267726  2 O  px                10     -0.216761  1 O  py         
    43      0.213895  2 O  px                13     -0.172598  1 O  py         
     8     -0.159637  1 O  pz                 6     -0.148769  1 O  px         
     5     -0.121693  1 O  s                 36     -0.121564  2 O  s          
 
 Vector    9  Occ=2.000000D+00  E=-2.306592D-01
              MO Center= -8.2D+00,  2.6D+00,  1.2D-02, r^2= 1.2D+00
   Bfn.  Coefficient  Atom+Function         Bfn.  Coefficient  Atom+Function  
  ----- ------------  ---------------      ----- ------------  ---------------
    37      0.284294  2 O  px                 7      0.273051  1 O  py         
    40      0.224007  2 O  px                38     -0.216545  2 O  py         
    10      0.213058  1 O  py                43      0.206704  2 O  px         
     8      0.202830  1 O  pz                13      0.188534  1 O  py         
    41     -0.165932  2 O  py                11      0.160306  1 O  pz         
 
 Vector   10  Occ=0.000000D+00  E=-6.021517D-02
              MO Center= -8.3D+00,  2.6D+00,  7.0D-02, r^2= 1.8D+00
   Bfn.  Coefficient  Atom+Function         Bfn.  Coefficient  Atom+Function  
  ----- ------------  ---------------      ----- ------------  ---------------
    36     -0.506662  2 O  s                  5      0.492599  1 O  s          
    44     -0.330972  2 O  py                71      0.310246  4 H  s          
    14      0.300497  1 O  pz                13     -0.285321  1 O  py         
    65     -0.277428  3 H  s                 45      0.267290  2 O  pz         
     8      0.263678  1 O  pz                38     -0.260653  2 O  py         
 
 Vector   11  Occ=0.000000D+00  E=-4.917508D-03
              MO Center= -8.5D+00,  3.0D+00,  5.3D-01, r^2= 4.2D+00
[...]
    70      0.849320  4 H  s                 64      0.738740  3 H  s          
    42     -0.648862  2 O  pz                46      0.640135  2 O  d -2       
     9      0.609368  1 O  px                16     -0.611184  1 O  d -1       
    51     -0.574390  2 O  d -2              36     -0.486771  2 O  s          
    50     -0.455461  2 O  d  2              74     -0.456969  4 H  pz         
 
 Vector   68  Occ=0.000000D+00  E= 6.615328D+00
              MO Center= -8.2D+00,  2.6D+00, -1.4D-02, r^2= 1.1D+00
   Bfn.  Coefficient  Atom+Function         Bfn.  Coefficient  Atom+Function  
  ----- ------------  ---------------      ----- ------------  ---------------
    64     -0.988489  3 H  s                 24      0.918144  1 O  d  2       
     4      0.909610  1 O  s                  9     -0.901919  1 O  px         
    70      0.773335  4 H  s                 19     -0.724740  1 O  d  2       
    35     -0.688717  2 O  s                  5      0.635549  1 O  s          
    54      0.609862  2 O  d  1              36     -0.575722  2 O  s          
 
 Vector   69  Occ=0.000000D+00  E= 6.753648D+00
              MO Center= -8.2D+00,  2.6D+00,  2.3D-02, r^2= 1.0D+00
   Bfn.  Coefficient  Atom+Function         Bfn.  Coefficient  Atom+Function  
  ----- ------------  ---------------      ----- ------------  ---------------
    17      0.637872  1 O  d  0              22     -0.623251  1 O  d  0       
    48      0.621466  2 O  d  0              53     -0.582134  2 O  d  0       
    47     -0.459216  2 O  d -1              16     -0.373428  1 O  d -1       
    52      0.328598  2 O  d -1              51      0.325707  2 O  d -2       
     9     -0.298098  1 O  px                46     -0.273343  2 O  d -2       
 
 Vector   70  Occ=0.000000D+00  E= 6.814504D+00
              MO Center= -8.3D+00,  2.5D+00,  5.3D-02, r^2= 1.2D+00
   Bfn.  Coefficient  Atom+Function         Bfn.  Coefficient  Atom+Function  
  ----- ------------  ---------------      ----- ------------  ---------------
     4      1.081282  1 O  s                 35     -1.066359  2 O  s          
    64     -0.919057  3 H  s                 70      0.917174  4 H  s          
     9     -0.823217  1 O  px                52     -0.726344  2 O  d -1       
    23     -0.701930  1 O  d  1              42     -0.687176  2 O  pz         
    66     -0.657688  3 H  px                63     -0.639899  3 H  s          
 
 Vector   71  Occ=0.000000D+00  E= 7.024916D+00
              MO Center= -8.2D+00,  2.7D+00, -7.7D-02, r^2= 1.1D+00
   Bfn.  Coefficient  Atom+Function         Bfn.  Coefficient  Atom+Function  
  ----- ------------  ---------------      ----- ------------  ---------------
     4      1.552778  1 O  s                 35      1.061275  2 O  s          
    64     -1.047493  3 H  s                  9     -1.028693  1 O  px         
    63     -0.842011  3 H  s                 23     -0.776115  1 O  d  1       
    66     -0.759807  3 H  px                24      0.702839  1 O  d  2       
    70     -0.679874  4 H  s                 52      0.646935  2 O  d -1       
 
 Vector   72  Occ=0.000000D+00  E= 7.714814D+00
              MO Center= -8.2D+00,  2.6D+00,  2.0D-02, r^2= 1.1D+00
   Bfn.  Coefficient  Atom+Function         Bfn.  Coefficient  Atom+Function  
  ----- ------------  ---------------      ----- ------------  ---------------
    42      1.616077  2 O  pz                35     -1.600981  2 O  s          
     4      1.588951  1 O  s                 11      1.532630  1 O  pz         
    52      1.383632  2 O  d -1              10     -1.283510  1 O  py         
    21     -1.233784  1 O  d -1              41     -1.130153  2 O  py         
     3     -1.083639  1 O  s                 34      1.082004  2 O  s          
 
 Vector   73  Occ=0.000000D+00  E= 4.266648D+01
              MO Center= -8.2D+00,  2.6D+00,  1.5D-02, r^2= 6.6D-01
   Bfn.  Coefficient  Atom+Function         Bfn.  Coefficient  Atom+Function  
  ----- ------------  ---------------      ----- ------------  ---------------
     2      1.199390  1 O  s                 33      1.191213  2 O  s          
     4      1.099635  1 O  s                 35      1.077601  2 O  s          
     3     -1.063500  1 O  s                 34     -1.054583  2 O  s          
     1     -0.985621  1 O  s                 32     -0.978831  2 O  s          
     5     -0.475505  1 O  s                 36     -0.461179  2 O  s          
 
 Vector   74  Occ=0.000000D+00  E= 4.314197D+01
              MO Center= -8.2D+00,  2.6D+00,  2.2D-02, r^2= 6.6D-01
   Bfn.  Coefficient  Atom+Function         Bfn.  Coefficient  Atom+Function  
  ----- ------------  ---------------      ----- ------------  ---------------
     4      1.431945  1 O  s                 35     -1.428683  2 O  s          
    34      1.258054  2 O  s                  3     -1.250060  1 O  s          
    33     -1.220354  2 O  s                  2      1.211804  1 O  s          
    32      0.988874  2 O  s                  1     -0.982033  1 O  s          
     5     -0.675915  1 O  s                 36      0.665548  2 O  s          
 

 center of mass
 --------------
 x = -15.61131378 y =   4.91631952 z =   0.05853712

 moments of inertia (a.u.)
 ------------------
          70.225721190847          -8.638250056657           9.011618924973
          -8.638250056657          49.421642046834          31.177310245181
           9.011618924973          31.177310245181          32.414342726330
 
     Multipole analysis of the density
     ---------------------------------
 
     L   x y z        total         alpha         beta         nuclear
     -   - - -        -----         -----         ----         -------
     0   0 0 0     -0.000000     -9.000000     -9.000000     18.000000
 
     1   1 0 0     -0.392385    140.552168    140.552168   -281.496722
     1   0 1 0      0.480252    -44.321926    -44.321926     89.124104
     1   0 0 1      0.282278     -0.573481     -0.573481      1.429239
 
     2   2 0 0      3.469084  -2201.243029  -2201.243029   4405.955143
     2   1 1 0    -10.195309    689.990693    689.990693  -1390.176695
     2   1 0 1     -2.794841     11.319828     11.319828    -25.434497
     2   0 2 0     -4.800055   -230.035484   -230.035484    455.270913
     2   0 1 1      1.363923      5.405467      5.405467     -9.447012
     2   0 0 2     -6.367895    -16.441954    -16.441954     26.516013
 
 *** CALLING NEW AORESP DRIVER FOR CLOSED AND OPEN SHELLS ***
 Entering AOResponse driver routine


--------------------------------------------------------------------------------

          ****************
          *** RESPONSE ***
          ****************

 Response module for NWChem and dynamic CPKS solver
 developed by J. Autschbach and coworkers, SUNY Buffalo
 The methodology used in this program is described in 
 ChemPhysChem 12 (2011), 3224-3235 (main reference)
 J. Chem. Phys. 123 (2005), 114103
 J. Chem. Phys. 122 (2005), 224115
 J. Chem. Phys. 122 (2005), 074105
 Comp. Lett. 3 (2007), 131-150 (contact JA for a copy)
 Please cite this work in publications based on results
 obtained with this code. Thank you!

 For extension of response module to open shell
 calculations please acknowledge:
 F. Aquino, Northwestern University, Schatz Rsrch Group
 The update to the methodology is described in
 J. Phys. Chem. A 118 (2014) 517-525



          -----------------------------------------------
          Solving response equations for perturbing field
          -----------------------------------------------

 number of frequencies:     1
 frequency in a.u.:  0.8855800E-01
 Perturbing field: electric
 Using GIAO formalism for OptRot
 Adding quadrupole terms to OptRot
 to create an origin in dependent tensor.
 Using El. Dipole Length Gauge
 
 Applying DAMPING constant of  0.003700 a.u.
 
 Setting up CPKS
 with frequency omega =      0.08855800 a.u.
 and a damping of            0.00370000 a.u.

 
                            NWChem Dynamic CPHF Module
                            --------------------------
 
 
    scftype = RHF 
    nclosed =    9
      nopen =    0
  variables =     2340
  num. vecs =        3
  tolerance =   1.0D-09
  max. iter =  100

 SCF residual:   1.050416081360103E-006


Iterative solution of linear equations
  No. of variables     1170
  No. of equations        3
  Maximum subspace       99
       Convergence  1.0D-09
        Start time     50.2


   iter   nsub   residual    time 
   ----  ------  --------  --------- 
 dft_CPHF2_read: failed to open./h2o2_514.5_05.inp.aoresp_fiao_f1
     1      3    5.11D+00      77.6
     2      6    2.14D+00     105.3
     3      9    1.66D-01     132.9
     4     12    8.55D-03     160.5
     5     15    2.05D-03     188.1
     6     18    2.10D-04     215.8
     7     21    5.93D-06     243.4
     8     24    2.23D-07     271.1
     9     27    2.35D-08     298.8
    10     30    3.13D-09     326.5
    11     33    3.19D-10     354.3

 Calculating some arrays needed for GIAO optical rotation

    0 giaofock schwarz done =      98.67%
    0 giaofock schwarz done =      98.67%
 aor_r1_tensor_giao: roadata output requested
 dip-quad polarizability Re:

              1        2        3        4        5        6      
    1 -331.3083  41.4442  -7.1641   7.3542   3.8425   0.6604
    2  -25.9356-186.3380  52.3670 119.4187 -14.3101   3.8856
    3  -11.9682  53.1144-254.5012 -33.7376  83.4473   9.7199
 traceless dip-quad polarizability:

              1        2        3      
    1 -335.3156  62.1663 -10.7461
    2   62.1663 172.6781   5.7638
    3  -10.7461   5.7638 162.6375

              1        2        3      
    1  -87.5877-279.5070  78.5505
    2 -279.5070 130.4437 -21.4652
    3   78.5505 -21.4652 -42.8560

              1        2        3      
    1    0.0407  79.6716-381.7518
    2   79.6716 -32.6135 125.1710
    3 -381.7518 125.1710  32.5728

 roa begin

 alpha real:
 XX       0.1051881136234E+02
 XY       0.8409635109704E+00
 XZ       0.3288016425419E+00
 YX       0.8409635108230E+00
 YY       0.1211244850076E+02
 YZ      -0.3227960007966E+01
 ZX       0.3288016426558E+00
 ZY      -0.3227960008116E+01
 ZZ       0.1625785585608E+02

 alpha im:
 XX       0.2165814185605E-01
 XY       0.2992657265891E-02
 XZ      -0.2230490325716E-02
 YX       0.2992657410714E-02
 YY       0.3018453975686E-01
 YZ      -0.1232751602109E-01
 ZX      -0.2230490302608E-02
 ZY      -0.1232751585103E-01
 ZZ       0.4342344236071E-01

 beta real:
 XX      -0.4728388788216E-01
 XY      -0.1753644471200E+00
 XZ       0.2993234944625E+01
 YX       0.7628870189793E+00
 YY       0.2085078329729E+01
 YZ       0.8468860701503E+01
 ZX      -0.3196938270757E+01
 ZY      -0.1120723482726E+02
 ZZ      -0.2042624442603E+01

 G-prime = -omega beta(real):
 XX      -0.4728388788216E-01
 XY      -0.1753644471200E+00
 XZ       0.2993234944625E+01
 YX       0.7628870189793E+00
 YY       0.2085078329729E+01
 YZ       0.8468860701503E+01
 ZX      -0.3196938270757E+01
 ZY      -0.1120723482726E+02
 ZZ      -0.2042624442603E+01

 beta im:
 XX      -0.2562397097462E-03
 XY       0.5261059209985E-03
 XZ       0.5855094353371E-01
 YX       0.3405430204537E-01
 YY       0.9136789626095E-01
 YZ       0.1330145440066E+00
 ZX      -0.6114580577264E-01
 ZY      -0.2389787967376E+00
 ZZ      -0.9352678122265E-01

 G-prime = -omega beta(imag):
 XX      -0.2562397097462E-03
 XY       0.5261059209985E-03
 XZ       0.5855094353371E-01
 YX       0.3405430204537E-01
 YY       0.9136789626095E-01
 YZ       0.1330145440066E+00
 ZX      -0.6114580577264E-01
 ZY      -0.2389787967376E+00
 ZZ      -0.9352678122265E-01

 dipole-quadrupole real (Cartesian):
 XXX     -0.3313082859190E+03
 XXY      0.4144423189387E+02
 XXZ     -0.7164089148128E+01
 XYY      0.7354208692966E+01
 XYZ      0.3842503170887E+01
 XZZ      0.6604120333005E+00
 YXX     -0.2593556882191E+02
 YXY     -0.1863379718483E+03
 YXZ      0.5236701748700E+02
 YYY      0.1194187045960E+03
 YYZ     -0.1431010749400E+02
 YZZ      0.3885562609344E+01
 ZXX     -0.1196817077311E+02
 ZXY      0.5311438132892E+02
 ZXZ     -0.2545012088357E+03
 ZYY     -0.3373760023988E+02
 ZYZ      0.8344732920452E+02
 ZZZ      0.9719905605810E+01

 dipole-quadrupole imag (Cartesian):
 XXX     -0.6862600212611E+00
 XXY      0.6843879085527E-01
 XXZ      0.3137233031954E-01
 XYY      0.2750861428506E-01
 XYZ     -0.7413895114184E-02
 XZZ     -0.5439824744679E-03
 YXX     -0.9156458752529E-01
 YXY     -0.4648962693311E+00
 YXZ      0.2011750443927E+00
 YYY      0.3048914828476E+00
 YYZ     -0.5776223123196E-01
 YZZ      0.8225106091067E-02
 ZXX      0.6620343217223E-01
 ZXY      0.1851203808817E+00
 ZXZ     -0.6843304519647E+00
 ZYY     -0.1355572792986E+00
 ZYZ      0.2301806579238E+00
 ZZZ      0.4222560167471E-01

 dipole-quadrupole (traceless):
 XXX     -0.3353155962822E+03
 XXY      0.6216634784081E+02
 XXZ     -0.1074613372219E+02
 XYY      0.1726781456358E+03
 XYZ      0.5763754756330E+01
 XZZ      0.1626374506463E+03
 YXX     -0.8758770242459E+02
 YXY     -0.2795069577724E+03
 YXZ      0.7855052623050E+02
 YYY      0.1304437077023E+03
 YYZ     -0.2146516124100E+02
 YZZ     -0.4285600527771E+02
 ZXX      0.4067654392190E-01
 ZXY      0.7967157199338E+02
 ZXZ     -0.3817518132535E+03
 ZYY     -0.3261346765623E+02
 ZYZ      0.1251709938068E+03
 ZZZ      0.3257279111231E+02

 roa end


 Electric Dipole Response Matrix (nonzero elements):

              1        2        3      
    1   10.5188   0.8410   0.3288
    2    0.8410  12.1124  -3.2280
    3    0.3288  -3.2280  16.2579
 
 Imaginary part:

              1        2        3      
    1    0.0217   0.0030  -0.0022
    2    0.0030   0.0302  -0.0123
    3   -0.0022  -0.0123   0.0434

 ------------------------------------------
 average:        12.96304 + I       0.03176


 DFT Linear Response polarizability / au 
 Frequency  =       0.0885580 / au
 Wavelength =     514.5029585 / nm
              X              Y              Z
 -----------------------------------------------
 X      10.5188114      0.8409635      0.3288016
 Y       0.8409635     12.1124485     -3.2279600
 Z       0.3288016     -3.2279600     16.2578559
 -----------------------------------------------
 Eigenvalues =      11.3325123      9.5335544     18.0230490
 Isotropic   =      12.9630386
 Anisotropic =       6.3264273
 -----------------------------------------------
 *************************

 DFT Linear Response IMAG polarizability / au 
 Frequency  =       0.0885580 / au
 Wavelength =     514.5029585 / nm
              X              Y              Z
 -----------------------------------------------
 X       0.0216581      0.0029927     -0.0022305
 Y       0.0029927      0.0301845     -0.0123275
 Z      -0.0022305     -0.0123275      0.0434234
 -----------------------------------------------
 Eigenvalues =       0.0204193      0.0236466      0.0512003
 Isotropic   =       0.0317554
 Anisotropic =       0.0239241
 -----------------------------------------------
 *************************

 Magnetic Dipole Response Matrix (nonzero elements):
 Optical rotation tensor Beta
 (Buckingham-Dunn version including dipole-quadrupole terms)

              1        2        3      
    1    0.1602   0.3387  -1.8954
    2    0.3387   1.0912   0.0935
    3   -1.8954   0.0935  -1.1969
 
 Imaginary part:

              1        2        3      
    1    0.0029  -0.0059  -0.6612
    2   -0.3845  -1.0317  -1.5020
    3    0.6905   2.6986   1.0561

 ------------------------------------------
 average:         0.01818 + I       0.00909

 Principal components and PAS (Real part)
                 -2.55179
                  1.59687
                  1.00947
 ------------------------
 average:         0.01818

              1        2        3      
    1    0.5775   0.7591  -0.3006
    2   -0.0746   0.4157   0.9064
    3    0.8130  -0.5011   0.2966

 Chiral response tensor (Real part):

              1        2        3      
    1   -0.0529  -0.1693   0.9477
    2   -0.1693  -0.5183  -0.0468
    3    0.9477  -0.0468   0.6257
 
 Principal components and PAS (Real part)
                  1.30317
                 -0.77116
                 -0.47746
 ------------------------
 average:         0.01818

              1        2        3      
    1    0.5775   0.7591  -0.3006
    2   -0.0746   0.4157   0.9064
    3    0.8130  -0.5011   0.2966
 Exiting AOResponse driver routine

 Task  times  cpu:      342.8s     wall:      344.3s
 
 
                                NWChem Input Module
                                -------------------
 
 
 Summary of allocated global arrays
-----------------------------------
  No active global arrays



                         GA Statistics for process    0
                         ------------------------------

       create   destroy   get      put      acc     scatter   gather  read&inc
calls: 2444     2444     6.44e+06 5.32e+06 4.84e+05 1938        0     1953     
number of processes/call 1.00e+00 1.00e+00 1.00e+00 0.00e+00 0.00e+00
bytes total:             1.20e+09 1.67e+08 1.12e+09 5.92e+02 0.00e+00 1.56e+04
bytes remote:            0.00e+00 0.00e+00 0.00e+00 0.00e+00 0.00e+00 0.00e+00
Max memory consumed for GA by this process: 11498464 bytes
 
MA_summarize_allocated_blocks: starting scan ...
MA_summarize_allocated_blocks: scan completed: 0 heap blocks, 0 stack blocks
MA usage statistics:

	allocation statistics:
					      heap	     stack
					      ----	     -----
	current number of blocks	         0	         0
	maximum number of blocks	        24	        52
	current total bytes		         0	         0
	maximum total bytes		  20676928	  42215048
	maximum total K-bytes		     20677	     42216
	maximum total M-bytes		        21	        43
 
 
                                     CITATION
                                     --------
                Please cite the following reference when publishing
                           results obtained with NWChem:
 
                 M. Valiev, E.J. Bylaska, N. Govind, K. Kowalski,
              T.P. Straatsma, H.J.J. van Dam, D. Wang, J. Nieplocha,
                        E. Apra, T.L. Windus, W.A. de Jong
                 "NWChem: a comprehensive and scalable open-source
                  solution for large scale molecular simulations"
                      Comput. Phys. Commun. 181, 1477 (2010)
                           doi:10.1016/j.cpc.2010.04.018
 
                                      AUTHORS
                                      -------
          E. Apra, E. J. Bylaska, W. A. de Jong, N. Govind, K. Kowalski,
       T. P. Straatsma, M. Valiev, H. J. J. van Dam, D. Wang, T. L. Windus,
        J. Hammond, J. Autschbach, K. Bhaskaran-Nair, J. Brabec, K. Lopata,
    S. A. Fischer, S. Krishnamoorthy, M. Jacquelin, W. Ma, M. Klemm, O. Villa,
      Y. Chen, V. Anisimov, F. Aquino, S. Hirata, M. T. Hackler, V. Konjkov,
            D. Mejia-Rodriguez, T. Risthaus, M. Malagoli, A. Marenich,
   A. Otero-de-la-Roza, J. Mullin, P. Nichols, R. Peverati, J. Pittner, Y. Zhao,
        P.-D. Fan, A. Fonari, M. J. Williamson, R. J. Harrison, J. R. Rehr,
      M. Dupuis, D. Silverstein, D. M. A. Smith, J. Nieplocha, V. Tipparaju,
    M. Krishnan, B. E. Van Kuiken, A. Vazquez-Mayagoitia, L. Jensen, M. Swart,
      Q. Wu, T. Van Voorhis, A. A. Auer, M. Nooijen, L. D. Crosby, E. Brown,
      G. Cisneros, G. I. Fann, H. Fruchtl, J. Garza, K. Hirao, R. A. Kendall,
      J. A. Nichols, K. Tsemekhman, K. Wolinski, J. Anchell, D. E. Bernholdt,
      P. Borowski, T. Clark, D. Clerc, H. Dachsel, M. J. O. Deegan, K. Dyall,
    D. Elwood, E. Glendening, M. Gutowski, A. C. Hess, J. Jaffe, B. G. Johnson,
     J. Ju, R. Kobayashi, R. Kutteh, Z. Lin, R. Littlefield, X. Long, B. Meng,
      T. Nakajima, S. Niu, L. Pollack, M. Rosing, K. Glaesemann, G. Sandrone,
      M. Stave, H. Taylor, G. Thomas, J. H. van Lenthe, A. T. Wong, Z. Zhang.

 Total times  cpu:      381.1s     wall:      383.7s
