 argument  1 = h2o2_514.5_04.inp
 


============================== echo of input deck ==============================
echo
start h2o2_514.5_04.inp
title "h2o2 roa calculations at 514.5 nm, input generated by va with delta_type=2"
charge 0



geometry units angstrom nocenter noautoz noautosym nucleus point;symmetry c1
 O -8.052742  3.049633 -0.528076
 O -8.434824  2.111525  0.566105
 H -8.950219  3.220185 -0.880239
 H -8.123395  2.650404  1.321880
end

basis spherical
* library def2-TZVP
end

 set prop:newaoresp 1
 set aor:roadata T
 set cphf:maxsub 100
 set cphf:acc 1.0d-10
 set cphf:maxiter 100

property
    response 1   0.088558
    bdtensor
    convergence 1e-9
    damping 0.0037
    giao
end

dft
 direct
 mult 1
 xc becke88 lyp
 iterations 250
 tolerances tight
 grid xfine
 convergence nolevelshifting
 convergence energy 1e-8
 convergence gradient 1e-8


end

task dft gradient
task dft property
================================================================================


                                         
                                         
 
 
              Northwest Computational Chemistry Package (NWChem) 6.8
              ------------------------------------------------------
 
 
                    Environmental Molecular Sciences Laboratory
                       Pacific Northwest National Laboratory
                                Richland, WA 99352
 
                              Copyright (c) 1994-2017
                       Pacific Northwest National Laboratory
                            Battelle Memorial Institute
 
             NWChem is an open-source computational chemistry package
                        distributed under the terms of the
                      Educational Community License (ECL) 2.0
             A copy of the license is included with this distribution
                              in the LICENSE.TXT file
 
                                  ACKNOWLEDGMENT
                                  --------------

            This software and its documentation were developed at the
            EMSL at Pacific Northwest National Laboratory, a multiprogram
            national laboratory, operated for the U.S. Department of Energy
            by Battelle under Contract Number DE-AC05-76RL01830. Support
            for this work was provided by the Department of Energy Office
            of Biological and Environmental Research, Office of Basic
            Energy Sciences, and the Office of Advanced Scientific Computing.


           Job information
           ---------------

    hostname        = cpn-f11-17-02.cbls.ccr.buffalo.edu
    program         = /util/academic/nwchem/nwchem-6.8/bin/LINUX64/nwchem
    date            = Thu Feb 28 18:48:56 2019

    compiled        = Tue_Nov_06_14:59:08_2018
    source          = /util/academic/nwchem/nwchem-6.8
    nwchem branch   = 6.8
    nwchem revision = v6.8-47-gdf6c956
    ga revision     = ga-5.6.3
    use scalapack   = F
    input           = h2o2_514.5_04.inp
    prefix          = h2o2_514.5_04.inp.
    data base       = ./h2o2_514.5_04.inp.db
    status          = startup
    nproc           =        1
    time left       =     -1s



           Memory information
           ------------------

    heap     =   13107200 doubles =    100.0 Mbytes
    stack    =   13107197 doubles =    100.0 Mbytes
    global   =   26214400 doubles =    200.0 Mbytes (distinct from heap & stack)
    total    =   52428797 doubles =    400.0 Mbytes
    verify   = yes
    hardfail = no 


           Directory information
           ---------------------
 
  0 permanent = .
  0 scratch   = .
 
 
 
 
                                NWChem Input Module
                                -------------------
 
 
                         h2o2 roa calculations at 514.5 nm, input generated by va with delta_type=2
                         ---------------------------------

 Scaling coordinates for geometry "geometry" by  1.889725989
 (inverse scale =  0.529177249)

 
 
                             Geometry "geometry" -> ""
                             -------------------------
 
 Output coordinates in angstroms (scale by  1.889725989 to convert to a.u.)
 
  No.       Tag          Charge          X              Y              Z
 ---- ---------------- ---------- -------------- -------------- --------------
    1 O                    8.0000    -8.05274200     3.04963300    -0.52807600
    2 O                    8.0000    -8.43482400     2.11152500     0.56610500
    3 H                    1.0000    -8.95021900     3.22018500    -0.88023900
    4 H                    1.0000    -8.12339500     2.65040400     1.32188000
 
      Atomic Mass 
      ----------- 
 
      O                 15.994910
      H                  1.007825
 

 Effective nuclear repulsion energy (a.u.)      36.0507636347

            Nuclear Dipole moment (a.u.) 
            ----------------------------
        X                 Y               Z
 ---------------- ---------------- ----------------
  -281.5203077638    89.1191998317     1.4094955923
 
 
            XYZ format geometry
            -------------------
     4
 geometry
 O                    -8.05274200     3.04963300    -0.52807600
 O                    -8.43482400     2.11152500     0.56610500
 H                    -8.95021900     3.22018500    -0.88023900
 H                    -8.12339500     2.65040400     1.32188000
 
 ==============================================================================
                                internuclear distances
 ------------------------------------------------------------------------------
       center one      |      center two      | atomic units |  angstroms
 ------------------------------------------------------------------------------
    3 H                |   1 O                |     1.85017  |     0.97907
    4 H                |   2 O                |     1.85017  |     0.97907
 ------------------------------------------------------------------------------
                         number of included internuclear distances:          2
 ==============================================================================



  warning:::::::::::::: from_environment
  NWCHEM_BASIS_LIBRARY set to: <
 /util/academic/nwchem/nwchem-6.8/src/basis/libraries>
  but file does not exist !
  using .nwchemrc or compiled library


 Summary of "ao basis" -> "" (spherical)
 ------------------------------------------------------------------------------
       Tag                 Description            Shells   Functions and Types
 ---------------- ------------------------------  ------  ---------------------
 *                         def2-TZVP                  on all atoms 


 
                                 NWChem DFT Module
                                 -----------------
 
 
                         h2o2 roa calculations at 514.5 nm, input generated by va with delta_type=2
 
 
                      Basis "ao basis" -> "ao basis" (spherical)
                      -----
  O (Oxygen)
  ----------
            Exponent  Coefficients 
       -------------- ---------------------------------------------------------
  1 S  2.70323826E+04  0.000217
  1 S  4.05238714E+03  0.001684
  1 S  9.22327227E+02  0.008740
  1 S  2.61240710E+02  0.035240
  1 S  8.53546414E+01  0.111535
  1 S  3.10350352E+01  0.255890
 
  2 S  1.22608607E+01  0.397687
  2 S  4.99870760E+00  0.246278
 
  3 S  1.17031082E+00  1.000000
 
  4 S  4.64747410E-01  1.000000
 
  5 S  1.85045364E-01  1.000000
 
  6 P  6.32749548E+01  0.006069
  6 P  1.46270494E+01  0.041913
  6 P  4.45012235E+00  0.161538
  6 P  1.52757996E+00  0.357070
 
  7 P  5.29351179E-01  1.000000
 
  8 P  1.74784213E-01  1.000000
 
  9 D  2.31400000E+00  1.000000
 
 10 D  6.45000000E-01  1.000000
 
 11 F  1.42800000E+00  1.000000
 
  H (Hydrogen)
  ------------
            Exponent  Coefficients 
       -------------- ---------------------------------------------------------
  1 S  3.40613410E+01  0.006025
  1 S  5.12357460E+00  0.045021
  1 S  1.16466260E+00  0.201897
 
  2 S  3.27230410E-01  1.000000
 
  3 S  1.03072410E-01  1.000000
 
  4 P  8.00000000E-01  1.000000
 


 Summary of "ao basis" -> "ao basis" (spherical)
 ------------------------------------------------------------------------------
       Tag                 Description            Shells   Functions and Types
 ---------------- ------------------------------  ------  ---------------------
 O                         def2-TZVP                11       31   5s3p2d1f
 H                         def2-TZVP                 4        6   3s1p




 Summary of "ao basis" -> "ao basis" (spherical)
 ------------------------------------------------------------------------------
       Tag                 Description            Shells   Functions and Types
 ---------------- ------------------------------  ------  ---------------------
 O                         def2-TZVP                11       31   5s3p2d1f
 H                         def2-TZVP                 4        6   3s1p


  Caching 1-el integrals 
  itol2e modified to match energy
  convergence criterion.
  tol_rho modified to match energy
  convergence criterion.
 
            General Information
            -------------------
          SCF calculation type: DFT
          Wavefunction type:  closed shell.
          No. of atoms     :     4
          No. of electrons :    18
           Alpha electrons :     9
            Beta electrons :     9
          Charge           :     0
          Spin multiplicity:     1
          Use of symmetry is: off; symmetry adaption is: off
          Maximum number of iterations: 250
          This is a Direct SCF calculation.
          AO basis - number of functions:    74
                     number of shells:    30
          Convergence on energy requested:  1.00D-08
          Convergence on density requested:  1.00D-05
          Convergence on gradient requested:  1.00D-08
 
              XC Information
              --------------
                    Becke 1988 Exchange Functional  1.000          
              Lee-Yang-Parr Correlation Functional  1.000          
 
             Grid Information
             ----------------
          Grid used for XC integration:  xfine     
          Radial quadrature: Mura-Knowles        
          Angular quadrature: Lebedev. 
          Tag              B.-S. Rad. Rad. Pts. Rad. Cut. Ang. Pts.
          ---              ---------- --------- --------- ---------
          O                   0.60      100           8.0      1454
          H                   0.35      100           9.0      1202
          Grid pruning is: on 
          Number of quadrature shells:   400
          Spatial weights used:  Erf1
 
          Convergence Information
          -----------------------
          Convergence aids based upon iterative change in 
          total energy or number of iterations. 
          Levelshifting, if invoked, occurs when the 
          HOMO/LUMO gap drops below (HL_TOL):  1.00D-02
          DIIS, if invoked, will attempt to extrapolate 
          using up to (NFOCK): 10 stored Fock matrices.

                    Damping( 0%)  Levelshifting(0.0)       DIIS
                  --------------- ------------------- ---------------
          dE  on:    start             N/A                start   
          dE off:    2 iters           N/A              250 iters 

 
      Screening Tolerance Information
      -------------------------------
          Density screening/tol_rho:  1.00D-11
          AO Gaussian exp screening on grid/accAOfunc:  18
          CD Gaussian exp screening on grid/accCDfunc:  20
          XC Gaussian exp screening on grid/accXCfunc:  20
          Schwarz screening/accCoul:  1.00D-09

 
      Superposition of Atomic Density Guess
      -------------------------------------
 
 Sum of atomic energies:        -150.56823290
 
      Non-variational initial energy
      ------------------------------

 Total energy =    -150.661068
 1-e energy   =    -278.662483
 2-e energy   =      91.950651
 HOMO         =      -0.359287
 LUMO         =      -0.044717
 
   Time after variat. SCF:      1.2
   Time prior to 1st pass:      1.2

 Grid_pts file          = ./h2o2_514.5_04.inp.gridpts.0
 Record size in doubles =  12289        No. of grid_pts per rec  =   3070
 Max. records in memory =    210        Max. recs in file   =   1940396


           Memory utilization after 1st SCF pass: 
           Heap Space remaining (MW):       10.52            10522928
          Stack Space remaining (MW):       13.11            13106668

   convergence    iter        energy       DeltaE   RMS-Dens  Diis-err    time
 ---------------- ----- ----------------- --------- --------- ---------  ------
 d= 0,ls=0.0,diis     1   -151.5596926315 -1.88D+02  7.36D-03  6.79D-01     4.9
 d= 0,ls=0.0,diis     2   -151.5947387708 -3.50D-02  2.67D-03  6.20D-02     8.6
 d= 0,ls=0.0,diis     3   -151.5995318069 -4.79D-03  1.03D-03  1.68D-02    12.0
 d= 0,ls=0.0,diis     4   -151.6007052001 -1.17D-03  3.59D-04  3.79D-03    15.4
 d= 0,ls=0.0,diis     5   -151.6010221897 -3.17D-04  5.12D-05  6.73D-05    19.0
 d= 0,ls=0.0,diis     6   -151.6010289370 -6.75D-06  5.31D-06  7.41D-07    22.4
 d= 0,ls=0.0,diis     7   -151.6010290032 -6.62D-08  1.23D-06  1.33D-08    25.9
 d= 0,ls=0.0,diis     8   -151.6010290041 -8.75D-10  5.05D-07  3.95D-09    29.3


         Total DFT energy =     -151.601029004069
      One electron energy =     -279.954795651411
           Coulomb energy =      110.116328287563
    Exchange-Corr. energy =      -17.813325274947
 Nuclear repulsion energy =       36.050763634727

 Numeric. integr. density =       17.999999998869

     Total iterative time =     28.1s


 
                       DFT Final Molecular Orbital Analysis
                       ------------------------------------
 
 Vector    1  Occ=2.000000D+00  E=-1.883200D+01
              MO Center= -8.2D+00,  2.8D+00, -2.1D-01, r^2= 4.8D-01
   Bfn.  Coefficient  Atom+Function         Bfn.  Coefficient  Atom+Function  
  ----- ------------  ---------------      ----- ------------  ---------------
     2      0.537129  1 O  s                  1      0.366174  1 O  s          
    33     -0.345490  2 O  s                 32     -0.235578  2 O  s          
     3      0.032012  1 O  s          
 
 Vector    2  Occ=2.000000D+00  E=-1.883197D+01
              MO Center= -8.3D+00,  2.4D+00,  2.5D-01, r^2= 4.8D-01
   Bfn.  Coefficient  Atom+Function         Bfn.  Coefficient  Atom+Function  
  ----- ------------  ---------------      ----- ------------  ---------------
    33      0.537261  2 O  s                 32      0.366158  2 O  s          
     2      0.345695  1 O  s                  1      0.235552  1 O  s          
    34      0.030516  2 O  s          
 
 Vector    3  Occ=2.000000D+00  E=-1.009526D+00
              MO Center= -8.3D+00,  2.6D+00,  5.3D-02, r^2= 8.1D-01
   Bfn.  Coefficient  Atom+Function         Bfn.  Coefficient  Atom+Function  
  ----- ------------  ---------------      ----- ------------  ---------------
     4      0.312145  1 O  s                 35      0.312135  2 O  s          
     3      0.238802  1 O  s                 34      0.238794  2 O  s          
     2     -0.162775  1 O  s                 33     -0.162770  2 O  s          
     5      0.096472  1 O  s                 36      0.096468  2 O  s          
    38      0.072176  2 O  py                 1     -0.069938  1 O  s          
 
 Vector    4  Occ=2.000000D+00  E=-8.184450D-01
              MO Center= -8.3D+00,  2.7D+00,  7.2D-02, r^2= 1.3D+00
   Bfn.  Coefficient  Atom+Function         Bfn.  Coefficient  Atom+Function  
  ----- ------------  ---------------      ----- ------------  ---------------
     4      0.327306  1 O  s                 35     -0.327314  2 O  s          
     3      0.254412  1 O  s                 34     -0.254417  2 O  s          
     2     -0.167448  1 O  s                 33      0.167452  2 O  s          
     5      0.142005  1 O  s                 36     -0.142009  2 O  s          
    63      0.090752  3 H  s                 69     -0.090754  4 H  s          
 
 Vector    5  Occ=2.000000D+00  E=-4.706748D-01
              MO Center= -8.3D+00,  2.7D+00,  5.9D-02, r^2= 1.3D+00
   Bfn.  Coefficient  Atom+Function         Bfn.  Coefficient  Atom+Function  
  ----- ------------  ---------------      ----- ------------  ---------------
    39      0.310746  2 O  pz                42      0.243459  2 O  pz         
     7      0.209985  1 O  py                 8     -0.196962  1 O  pz         
    10      0.169143  1 O  py                11     -0.155949  1 O  pz         
    64      0.129872  3 H  s                 70      0.129868  4 H  s          
     6     -0.124320  1 O  px                45      0.112415  2 O  pz         
 
 Vector    6  Occ=2.000000D+00  E=-4.354238D-01
              MO Center= -8.3D+00,  2.6D+00,  3.7D-02, r^2= 1.3D+00
   Bfn.  Coefficient  Atom+Function         Bfn.  Coefficient  Atom+Function  
  ----- ------------  ---------------      ----- ------------  ---------------
     6      0.253716  1 O  px                 9      0.189003  1 O  px         
    37      0.176794  2 O  px                 5      0.155373  1 O  s          
    36     -0.155365  2 O  s                  4      0.153483  1 O  s          
    35     -0.153477  2 O  s                 39      0.153716  2 O  pz         
    38      0.151979  2 O  py                40      0.136666  2 O  px         
 
 Vector    7  Occ=2.000000D+00  E=-3.673180D-01
              MO Center= -8.2D+00,  2.5D+00, -2.0D-02, r^2= 1.3D+00
   Bfn.  Coefficient  Atom+Function         Bfn.  Coefficient  Atom+Function  
  ----- ------------  ---------------      ----- ------------  ---------------
    38      0.318364  2 O  py                41      0.248904  2 O  py         
     6     -0.237608  1 O  px                 8      0.216327  1 O  pz         
     9     -0.181705  1 O  px                11      0.175012  1 O  pz         
    44      0.164358  2 O  py                 5     -0.133221  1 O  s          
    36     -0.133231  2 O  s                 14      0.119155  1 O  pz         
 
 Vector    8  Occ=2.000000D+00  E=-2.762099D-01
              MO Center= -8.3D+00,  2.6D+00,  5.4D-02, r^2= 1.3D+00
   Bfn.  Coefficient  Atom+Function         Bfn.  Coefficient  Atom+Function  
  ----- ------------  ---------------      ----- ------------  ---------------
    37      0.344528  2 O  px                 7     -0.268343  1 O  py         
    40      0.268121  2 O  px                10     -0.214865  1 O  py         
    43      0.214724  2 O  px                13     -0.171006  1 O  py         
     8     -0.163351  1 O  pz                 6     -0.147056  1 O  px         
    11     -0.122435  1 O  pz                 5     -0.119999  1 O  s          
 
 Vector    9  Occ=2.000000D+00  E=-2.308669D-01
              MO Center= -8.2D+00,  2.6D+00,  7.1D-03, r^2= 1.2D+00
   Bfn.  Coefficient  Atom+Function         Bfn.  Coefficient  Atom+Function  
  ----- ------------  ---------------      ----- ------------  ---------------
    37      0.281765  2 O  px                 7      0.273947  1 O  py         
    40      0.222472  2 O  px                38     -0.218089  2 O  py         
    10      0.213929  1 O  py                 8      0.204866  1 O  pz         
    43      0.205186  2 O  px                13      0.188939  1 O  py         
    41     -0.166911  2 O  py                11      0.161607  1 O  pz         
 
 Vector   10  Occ=0.000000D+00  E=-5.940434D-02
              MO Center= -8.3D+00,  2.6D+00,  4.8D-02, r^2= 1.7D+00
   Bfn.  Coefficient  Atom+Function         Bfn.  Coefficient  Atom+Function  
  ----- ------------  ---------------      ----- ------------  ---------------
     5      0.488780  1 O  s                 36     -0.488786  2 O  s          
    44     -0.322641  2 O  py                14      0.300566  1 O  pz         
    13     -0.289553  1 O  py                65     -0.283593  3 H  s          
    71      0.283602  4 H  s                 45      0.281742  2 O  pz         
     8      0.264052  1 O  pz                38     -0.254483  2 O  py         
 
 Vector   11  Occ=0.000000D+00  E=-4.358866D-03
              MO Center= -8.6D+00,  3.0D+00,  2.8D-01, r^2= 4.2D+00
   Bfn.  Coefficient  Atom+Function         Bfn.  Coefficient  Atom+Function  
  ----- ------------  ---------------      ----- ------------  ---------------
    65      0.995243  3 H  s                 71      0.995211  4 H  s          
     5     -0.644672  1 O  s                 36     -0.644657  2 O  s          
    12      0.262461  1 O  px                45     -0.234292  2 O  pz         
    44     -0.151274  2 O  py                39     -0.129163  2 O  pz         
     6      0.126983  1 O  px                 3     -0.122702  1 O  s          
 
 Vector   12  Occ=0.000000D+00  E= 3.973969D-02
              MO Center= -8.6D+00,  3.0D+00,  2.7D-01, r^2= 4.3D+00
   Bfn.  Coefficient  Atom+Function         Bfn.  Coefficient  Atom+Function  
  ----- ------------  ---------------      ----- ------------  ---------------
    65      1.198353  3 H  s                 71     -1.198381  4 H  s          
    45      0.440838  2 O  pz                 5     -0.425895  1 O  s          
    36      0.425911  2 O  s                 14      0.300819  1 O  pz         
    12      0.263373  1 O  px                39      0.235209  2 O  pz         
    13     -0.200416  1 O  py                 8      0.168453  1 O  pz         
 
 Vector   13  Occ=0.000000D+00  E= 3.358460D-01
              MO Center= -8.4D+00,  2.8D+00,  1.4D-01, r^2= 3.7D+00
   Bfn.  Coefficient  Atom+Function         Bfn.  Coefficient  Atom+Function  
  ----- ------------  ---------------      ----- ------------  ---------------
    64      1.181414  3 H  s                 70      1.181211  4 H  s          
    65     -0.671602  3 H  s                 71     -0.671482  4 H  s          
    45     -0.615407  2 O  pz                14      0.541174  1 O  pz         
     9      0.351960  1 O  px                 4     -0.330356  1 O  s          
    35     -0.330322  2 O  s                 41     -0.327386  2 O  py         
 
 Vector   14  Occ=0.000000D+00  E= 3.430610D-01
              MO Center= -8.3D+00,  2.6D+00,  5.4D-02, r^2= 3.6D+00
   Bfn.  Coefficient  Atom+Function         Bfn.  Coefficient  Atom+Function  
  ----- ------------  ---------------      ----- ------------  ---------------
    64      1.473567  3 H  s                 70     -1.473675  4 H  s          
     5     -0.820686  1 O  s                 36      0.820713  2 O  s          
    65     -0.803249  3 H  s                 71      0.803314  4 H  s          
    12      0.769143  1 O  px                44      0.763601  2 O  py         
    43      0.432492  2 O  px                 4     -0.367136  1 O  s          
 
 Vector   15  Occ=0.000000D+00  E= 3.516802D-01
              MO Center= -8.3D+00,  2.7D+00,  7.7D-02, r^2= 3.8D+00
   Bfn.  Coefficient  Atom+Function         Bfn.  Coefficient  Atom+Function  
  ----- ------------  ---------------      ----- ------------  ---------------
    13      0.895765  1 O  py                45     -0.767730  2 O  pz         
    44      0.763517  2 O  py                14     -0.692432  1 O  pz         
     5     -0.666469  1 O  s                 36      0.666487  2 O  s          
    43      0.556162  2 O  px                64     -0.484875  3 H  s          
    70      0.485013  4 H  s                 12      0.446942  1 O  px         
 
 Vector   16  Occ=0.000000D+00  E= 3.716999D-01
              MO Center= -8.0D+00,  2.3D+00, -1.4D-01, r^2= 2.6D+00
   Bfn.  Coefficient  Atom+Function         Bfn.  Coefficient  Atom+Function  
  ----- ------------  ---------------      ----- ------------  ---------------
    44      0.622135  2 O  py                12     -0.560620  1 O  px         
     4      0.462648  1 O  s                 35      0.462654  2 O  s          
    13      0.413185  1 O  py                 5     -0.341960  1 O  s          
    36     -0.341956  2 O  s                 41     -0.318593  2 O  py         
    64     -0.309869  3 H  s                 70     -0.309858  4 H  s          
 
 Vector   17  Occ=0.000000D+00  E= 4.138357D-01
              MO Center= -8.3D+00,  2.6D+00,  4.1D-02, r^2= 3.0D+00
   Bfn.  Coefficient  Atom+Function         Bfn.  Coefficient  Atom+Function  
  ----- ------------  ---------------      ----- ------------  ---------------
    14      0.856350  1 O  pz                45     -0.860584  2 O  pz         
    12      0.774148  1 O  px                43     -0.767949  2 O  px         
    11     -0.366498  1 O  pz                42      0.350692  2 O  pz         
     4     -0.341903  1 O  s                 35     -0.341926  2 O  s          
    40      0.291985  2 O  px                 9     -0.269063  1 O  px         
 
 Vector   18  Occ=0.000000D+00  E= 4.420039D-01
              MO Center= -8.2D+00,  2.6D+00,  2.1D-02, r^2= 3.5D+00
   Bfn.  Coefficient  Atom+Function         Bfn.  Coefficient  Atom+Function  
  ----- ------------  ---------------      ----- ------------  ---------------
    44      1.231557  2 O  py                14     -1.027375  1 O  pz         
     5     -0.893009  1 O  s                 36      0.892998  2 O  s          
    12      0.789639  1 O  px                43     -0.637597  2 O  px         
    13     -0.496146  1 O  py                64      0.400214  3 H  s          
    70     -0.400213  4 H  s                 40      0.362263  2 O  px         
 
 Vector   19  Occ=0.000000D+00  E= 4.653620D-01
              MO Center= -8.3D+00,  2.7D+00,  8.6D-02, r^2= 4.0D+00
   Bfn.  Coefficient  Atom+Function         Bfn.  Coefficient  Atom+Function  
  ----- ------------  ---------------      ----- ------------  ---------------
     5      0.979977  1 O  s                 36      0.979945  2 O  s          
    65     -0.817373  3 H  s                 71     -0.817356  4 H  s          
    13      0.769845  1 O  py                64      0.671298  3 H  s          
    70      0.671306  4 H  s                 43     -0.658210  2 O  px         
     4     -0.610678  1 O  s                 35     -0.610673  2 O  s          
 
 Vector   20  Occ=0.000000D+00  E= 5.207429D-01
              MO Center= -8.3D+00,  2.7D+00,  9.0D-02, r^2= 4.0D+00
   Bfn.  Coefficient  Atom+Function         Bfn.  Coefficient  Atom+Function  
  ----- ------------  ---------------      ----- ------------  ---------------
    45      1.505229  2 O  pz                65      1.355179  3 H  s          
    71     -1.355180  4 H  s                  5     -1.080460  1 O  s          
    36      1.080433  2 O  s                 12      1.067397  1 O  px         
    14      0.923366  1 O  pz                13     -0.669389  1 O  py         
     4      0.549213  1 O  s                 35     -0.549191  2 O  s          
 
 Vector   21  Occ=0.000000D+00  E= 5.880758D-01
              MO Center= -8.4D+00,  2.8D+00,  1.4D-01, r^2= 3.0D+00
   Bfn.  Coefficient  Atom+Function         Bfn.  Coefficient  Atom+Function  
  ----- ------------  ---------------      ----- ------------  ---------------
     5      2.508676  1 O  s                 36      2.508570  2 O  s          
     4     -1.470897  1 O  s                 35     -1.470878  2 O  s          
    12     -1.355795  1 O  px                64     -1.059379  3 H  s          
    70     -1.059358  4 H  s                 44      0.923653  2 O  py         
    65     -0.834347  3 H  s                 71     -0.834359  4 H  s          
 
 Vector   22  Occ=0.000000D+00  E= 6.669156D-01
              MO Center= -8.2D+00,  2.5D+00, -4.4D-02, r^2= 3.0D+00
   Bfn.  Coefficient  Atom+Function         Bfn.  Coefficient  Atom+Function  
  ----- ------------  ---------------      ----- ------------  ---------------
     5      5.569229  1 O  s                 36     -5.569275  2 O  s          
     4     -1.816314  1 O  s                 35      1.816340  2 O  s          
    14      1.730127  1 O  pz                44     -1.712173  2 O  py         
    45      1.651587  2 O  pz                13     -1.574148  1 O  py         
    64     -0.887853  3 H  s                 70      0.887873  4 H  s          
 
 Vector   23  Occ=0.000000D+00  E= 1.008301D+00
              MO Center= -8.4D+00,  2.7D+00,  9.5D-02, r^2= 1.5D+00
   Bfn.  Coefficient  Atom+Function         Bfn.  Coefficient  Atom+Function  
  ----- ------------  ---------------      ----- ------------  ---------------
    22      0.322072  1 O  d  0              68     -0.312252  3 H  pz         
    53     -0.287921  2 O  d  0              64     -0.264222  3 H  s          
    70      0.264225  4 H  s                 74     -0.263140  4 H  pz         
    54      0.247425  2 O  d  1              23     -0.245339  1 O  d  1       
     4      0.234881  1 O  s                 35     -0.234874  2 O  s          
 
 Vector   24  Occ=0.000000D+00  E= 1.079943D+00
              MO Center= -8.3D+00,  2.7D+00,  6.4D-02, r^2= 1.5D+00
   Bfn.  Coefficient  Atom+Function         Bfn.  Coefficient  Atom+Function  
  ----- ------------  ---------------      ----- ------------  ---------------
    54      0.343216  2 O  d  1              67      0.340577  3 H  py         
    20     -0.302299  1 O  d -2              22     -0.286309  1 O  d  0       
    72     -0.270453  4 H  px                52      0.239983  2 O  d -1       
    74      0.207802  4 H  pz                64     -0.200926  3 H  s          
    70     -0.200940  4 H  s                 53      0.194365  2 O  d  0       
 
 Vector   25  Occ=0.000000D+00  E= 1.178541D+00
              MO Center= -8.3D+00,  2.6D+00,  5.5D-02, r^2= 1.5D+00
   Bfn.  Coefficient  Atom+Function         Bfn.  Coefficient  Atom+Function  
  ----- ------------  ---------------      ----- ------------  ---------------
    55     -0.438719  2 O  d  2              23      0.426015  1 O  d  1       
     5     -0.358902  1 O  s                 36     -0.358973  2 O  s          
    68      0.238949  3 H  pz                24      0.231424  1 O  d  2       
    44     -0.231326  2 O  py                64      0.228049  3 H  s          
    70      0.228077  4 H  s                 12      0.223672  1 O  px         
 
 Vector   26  Occ=0.000000D+00  E= 1.223073D+00
              MO Center= -8.4D+00,  2.7D+00,  1.1D-01, r^2= 1.7D+00
   Bfn.  Coefficient  Atom+Function         Bfn.  Coefficient  Atom+Function  
  ----- ------------  ---------------      ----- ------------  ---------------
     5      0.624138  1 O  s                 36     -0.624116  2 O  s          
    72      0.407867  4 H  px                20     -0.377763  1 O  d -2       
    67      0.351681  3 H  py                43     -0.255624  2 O  px         
    51      0.246309  2 O  d -2              68      0.245046  3 H  pz         
    55      0.241381  2 O  d  2              13     -0.231553  1 O  py         
 
 Vector   27  Occ=0.000000D+00  E= 1.519807D+00
              MO Center= -8.4D+00,  2.8D+00,  1.3D-01, r^2= 2.4D+00
   Bfn.  Coefficient  Atom+Function         Bfn.  Coefficient  Atom+Function  
  ----- ------------  ---------------      ----- ------------  ---------------
    64      2.048535  3 H  s                 70      2.048338  4 H  s          
    45     -0.658619  2 O  pz                12      0.651616  1 O  px         
    52     -0.635560  2 O  d -1               4     -0.618056  1 O  s          
    35     -0.618016  2 O  s                 24     -0.545012  1 O  d  2       
     5     -0.497651  1 O  s                 36     -0.497537  2 O  s          
 
 Vector   28  Occ=0.000000D+00  E= 1.537492D+00
              MO Center= -8.4D+00,  2.7D+00,  1.1D-01, r^2= 2.5D+00
   Bfn.  Coefficient  Atom+Function         Bfn.  Coefficient  Atom+Function  
  ----- ------------  ---------------      ----- ------------  ---------------
    64      2.166308  3 H  s                 70     -2.166456  4 H  s          
     5     -1.316571  1 O  s                 36      1.316603  2 O  s          
    12      0.740564  1 O  px                44      0.642896  2 O  py         
    24     -0.639619  1 O  d  2              52      0.533433  2 O  d -1       
    65     -0.433217  3 H  s                 71      0.433246  4 H  s          
 
 Vector   29  Occ=0.000000D+00  E= 1.605885D+00
              MO Center= -8.3D+00,  2.7D+00,  9.2D-02, r^2= 1.7D+00
   Bfn.  Coefficient  Atom+Function         Bfn.  Coefficient  Atom+Function  
  ----- ------------  ---------------      ----- ------------  ---------------
    51     -0.427086  2 O  d -2              73     -0.415223  4 H  py         
    21      0.401936  1 O  d -1              68     -0.359835  3 H  pz         
    12      0.338925  1 O  px                54     -0.294953  2 O  d  1       
    43     -0.291638  2 O  px                45     -0.284526  2 O  pz         
    22      0.274434  1 O  d  0              64      0.263309  3 H  s          
 
 Vector   30  Occ=0.000000D+00  E= 1.651314D+00
              MO Center= -8.3D+00,  2.7D+00,  5.9D-02, r^2= 1.6D+00
   Bfn.  Coefficient  Atom+Function         Bfn.  Coefficient  Atom+Function  
  ----- ------------  ---------------      ----- ------------  ---------------
    64      0.580471  3 H  s                 70      0.580531  4 H  s          
    21      0.529448  1 O  d -1              53     -0.449642  2 O  d  0       
     5     -0.440802  1 O  s                 36     -0.440839  2 O  s          
    55      0.370921  2 O  d  2              44     -0.352325  2 O  py         
    24     -0.342074  1 O  d  2               4      0.329247  1 O  s          
 
 Vector   31  Occ=0.000000D+00  E= 1.747849D+00
              MO Center= -8.3D+00,  2.7D+00,  9.1D-02, r^2= 1.8D+00
   Bfn.  Coefficient  Atom+Function         Bfn.  Coefficient  Atom+Function  
  ----- ------------  ---------------      ----- ------------  ---------------
     5      1.176490  1 O  s                 36     -1.176476  2 O  s          
    13     -0.628013  1 O  py                45      0.564470  2 O  pz         
    22     -0.476620  1 O  d  0              51     -0.466676  2 O  d -2       
    73      0.432363  4 H  py                14      0.409513  1 O  pz         
    54     -0.380691  2 O  d  1              21     -0.372906  1 O  d -1       
 
 Vector   32  Occ=0.000000D+00  E= 1.853566D+00
              MO Center= -8.3D+00,  2.7D+00,  6.9D-02, r^2= 2.2D+00
   Bfn.  Coefficient  Atom+Function         Bfn.  Coefficient  Atom+Function  
  ----- ------------  ---------------      ----- ------------  ---------------
     5      2.208046  1 O  s                 36     -2.208052  2 O  s          
     4     -1.142983  1 O  s                 35      1.142991  2 O  s          
    44     -0.993273  2 O  py                14      0.878044  1 O  pz         
    64      0.756194  3 H  s                 70     -0.756188  4 H  s          
     9      0.597571  1 O  px                12     -0.599670  1 O  px         
 
 Vector   33  Occ=0.000000D+00  E= 1.961777D+00
              MO Center= -8.4D+00,  2.8D+00,  1.5D-01, r^2= 1.9D+00
   Bfn.  Coefficient  Atom+Function         Bfn.  Coefficient  Atom+Function  
  ----- ------------  ---------------      ----- ------------  ---------------
    72     -0.728807  4 H  px                64      0.670253  3 H  s          
    70      0.670244  4 H  s                 67      0.521866  3 H  py         
    68      0.517488  3 H  pz                20      0.457799  1 O  d -2       
    54     -0.363329  2 O  d  1              55      0.356210  2 O  d  2       
     4     -0.339618  1 O  s                  9      0.339848  1 O  px         
 
 Vector   34  Occ=0.000000D+00  E= 2.009248D+00
              MO Center= -8.3D+00,  2.7D+00,  5.9D-02, r^2= 1.9D+00
   Bfn.  Coefficient  Atom+Function         Bfn.  Coefficient  Atom+Function  
  ----- ------------  ---------------      ----- ------------  ---------------
     5      1.120473  1 O  s                 36     -1.120462  2 O  s          
    20      0.623195  1 O  d -2              67      0.618339  3 H  py         
    64     -0.550332  3 H  s                 70      0.550318  4 H  s          
    72      0.549962  4 H  px                13     -0.495478  1 O  py         
    44     -0.491138  2 O  py                54      0.466434  2 O  d  1       
 
 Vector   35  Occ=0.000000D+00  E= 2.069650D+00
              MO Center= -8.3D+00,  2.7D+00,  7.3D-02, r^2= 1.8D+00
   Bfn.  Coefficient  Atom+Function         Bfn.  Coefficient  Atom+Function  
  ----- ------------  ---------------      ----- ------------  ---------------
    68     -0.584317  3 H  pz                23      0.535536  1 O  d  1       
    64     -0.535258  3 H  s                 70      0.535371  4 H  s          
    55      0.523612  2 O  d  2              53      0.495163  2 O  d  0       
    24      0.455449  1 O  d  2              74     -0.434818  4 H  pz         
     4      0.389924  1 O  s                 35     -0.390022  2 O  s          
 
 Vector   36  Occ=0.000000D+00  E= 2.096660D+00
              MO Center= -8.3D+00,  2.6D+00,  3.5D-02, r^2= 2.1D+00
   Bfn.  Coefficient  Atom+Function         Bfn.  Coefficient  Atom+Function  
  ----- ------------  ---------------      ----- ------------  ---------------
    64      0.846677  3 H  s                 70      0.846612  4 H  s          
     9      0.784144  1 O  px                42     -0.608081  2 O  pz         
     4     -0.604987  1 O  s                 35     -0.604945  2 O  s          
    73     -0.576090  4 H  py                66      0.528148  3 H  px         
    22     -0.480810  1 O  d  0              41     -0.457862  2 O  py         
 
 Vector   37  Occ=0.000000D+00  E= 2.185316D+00
              MO Center= -8.4D+00,  2.8D+00,  1.4D-01, r^2= 2.3D+00
   Bfn.  Coefficient  Atom+Function         Bfn.  Coefficient  Atom+Function  
  ----- ------------  ---------------      ----- ------------  ---------------
    64      1.541205  3 H  s                 70     -1.541131  4 H  s          
     5     -1.330292  1 O  s                 36      1.330294  2 O  s          
     4     -0.898322  1 O  s                 35      0.898287  2 O  s          
    42      0.821766  2 O  pz                 9      0.758858  1 O  px         
    45     -0.757680  2 O  pz                66      0.743149  3 H  px         
 
 Vector   38  Occ=0.000000D+00  E= 2.224025D+00
              MO Center= -8.3D+00,  2.7D+00,  8.3D-02, r^2= 2.0D+00
   Bfn.  Coefficient  Atom+Function         Bfn.  Coefficient  Atom+Function  
  ----- ------------  ---------------      ----- ------------  ---------------
    64      1.357794  3 H  s                 70      1.357912  4 H  s          
    42     -0.810022  2 O  pz                 4     -0.725685  1 O  s          
    35     -0.725733  2 O  s                 74     -0.677455  4 H  pz         
     9      0.615497  1 O  px                10     -0.590343  1 O  py         
    68      0.473572  3 H  pz                20     -0.440256  1 O  d -2       
 
 Vector   39  Occ=0.000000D+00  E= 2.382455D+00
              MO Center= -8.3D+00,  2.6D+00,  4.1D-02, r^2= 1.8D+00
   Bfn.  Coefficient  Atom+Function         Bfn.  Coefficient  Atom+Function  
  ----- ------------  ---------------      ----- ------------  ---------------
    64      1.034986  3 H  s                 70      1.034937  4 H  s          
    11      0.870375  1 O  pz                 4     -0.696235  1 O  s          
    35     -0.696176  2 O  s                 40     -0.667778  2 O  px         
    38     -0.653291  2 O  py                41      0.609000  2 O  py         
    44     -0.551047  2 O  py                66      0.540599  3 H  px         
 
 Vector   40  Occ=0.000000D+00  E= 2.400748D+00
              MO Center= -8.3D+00,  2.6D+00,  4.5D-02, r^2= 1.9D+00
   Bfn.  Coefficient  Atom+Function         Bfn.  Coefficient  Atom+Function  
  ----- ------------  ---------------      ----- ------------  ---------------
    64      0.824004  3 H  s                 70     -0.824095  4 H  s          
    45      0.751070  2 O  pz                74      0.656676  4 H  pz         
    66      0.611093  3 H  px                 6      0.584079  1 O  px         
     4     -0.568340  1 O  s                 12      0.569507  1 O  px         
    35      0.568426  2 O  s                 14      0.555219  1 O  pz         
 
 Vector   41  Occ=0.000000D+00  E= 2.438194D+00
              MO Center= -8.3D+00,  2.6D+00,  5.5D-02, r^2= 1.3D+00
   Bfn.  Coefficient  Atom+Function         Bfn.  Coefficient  Atom+Function  
  ----- ------------  ---------------      ----- ------------  ---------------
     4      1.106974  1 O  s                 35      1.106943  2 O  s          
    64     -0.733059  3 H  s                 70     -0.733048  4 H  s          
    41      0.692493  2 O  py                39      0.663357  2 O  pz         
     3     -0.603061  1 O  s                 34     -0.603048  2 O  s          
     8     -0.590457  1 O  pz                10     -0.546391  1 O  py         
 
 Vector   42  Occ=0.000000D+00  E= 2.565782D+00
              MO Center= -8.3D+00,  2.7D+00,  6.2D-02, r^2= 1.8D+00
   Bfn.  Coefficient  Atom+Function         Bfn.  Coefficient  Atom+Function  
  ----- ------------  ---------------      ----- ------------  ---------------
    64      1.505265  3 H  s                 70      1.505370  4 H  s          
     5     -1.360161  1 O  s                 36     -1.360347  2 O  s          
    66      0.981049  3 H  px                 3     -0.808733  1 O  s          
    34     -0.808800  2 O  s                 74     -0.702910  4 H  pz         
     4      0.623651  1 O  s                 35      0.623725  2 O  s          
 
 Vector   43  Occ=0.000000D+00  E= 2.570285D+00
              MO Center= -8.5D+00,  2.8D+00,  1.7D-01, r^2= 1.5D+00
   Bfn.  Coefficient  Atom+Function         Bfn.  Coefficient  Atom+Function  
  ----- ------------  ---------------      ----- ------------  ---------------
     5      1.940953  1 O  s                 36     -1.940783  2 O  s          
    64     -1.089144  3 H  s                 70      1.088957  4 H  s          
    40     -1.027728  2 O  px                10     -0.791303  1 O  py         
     4     -0.755253  1 O  s                 35      0.755164  2 O  s          
     3      0.714355  1 O  s                 34     -0.714250  2 O  s          
 
 Vector   44  Occ=0.000000D+00  E= 2.673943D+00
              MO Center= -8.1D+00,  2.4D+00, -1.0D-01, r^2= 1.5D+00
   Bfn.  Coefficient  Atom+Function         Bfn.  Coefficient  Atom+Function  
  ----- ------------  ---------------      ----- ------------  ---------------
     5      2.643601  1 O  s                 36     -2.643459  2 O  s          
     4     -2.110483  1 O  s                 35      2.110235  2 O  s          
     3      1.364716  1 O  s                 34     -1.364563  2 O  s          
    41     -0.966762  2 O  py                 9     -0.725837  1 O  px         
    11      0.651814  1 O  pz                13     -0.591611  1 O  py         
 
 Vector   45  Occ=0.000000D+00  E= 2.715560D+00
              MO Center= -8.3D+00,  2.7D+00,  7.8D-02, r^2= 1.7D+00
   Bfn.  Coefficient  Atom+Function         Bfn.  Coefficient  Atom+Function  
  ----- ------------  ---------------      ----- ------------  ---------------
     4      2.474512  1 O  s                 35      2.474708  2 O  s          
     3     -1.601033  1 O  s                 34     -1.601170  2 O  s          
     5     -1.522264  1 O  s                 36     -1.522556  2 O  s          
    40     -0.682400  2 O  px                 9      0.491290  1 O  px         
    10      0.491559  1 O  py                37      0.440006  2 O  px         
 
 Vector   46  Occ=0.000000D+00  E= 3.568576D+00
              MO Center= -8.4D+00,  2.8D+00,  1.2D-01, r^2= 1.7D+00
   Bfn.  Coefficient  Atom+Function         Bfn.  Coefficient  Atom+Function  
  ----- ------------  ---------------      ----- ------------  ---------------
     4      2.852017  1 O  s                 35     -2.851961  2 O  s          
     9     -1.692942  1 O  px                64     -1.512467  3 H  s          
    70      1.512427  4 H  s                 42     -1.376904  2 O  pz         
     3     -1.366022  1 O  s                 34      1.365998  2 O  s          
    66     -1.190122  3 H  px                41     -1.088537  2 O  py         
 
 Vector   47  Occ=0.000000D+00  E= 3.611804D+00
              MO Center= -8.4D+00,  2.7D+00,  1.1D-01, r^2= 1.6D+00
   Bfn.  Coefficient  Atom+Function         Bfn.  Coefficient  Atom+Function  
  ----- ------------  ---------------      ----- ------------  ---------------
     4      2.519796  1 O  s                 35      2.519912  2 O  s          
     9     -1.722924  1 O  px                42      1.460960  2 O  pz         
    64     -1.306172  3 H  s                 70     -1.306204  4 H  s          
     3     -1.149057  1 O  s                 34     -1.149130  2 O  s          
    66     -1.120601  3 H  px                41      0.981338  2 O  py         
 
 Vector   48  Occ=0.000000D+00  E= 3.843053D+00
              MO Center= -8.2D+00,  2.6D+00,  2.3D-02, r^2= 9.2D-01
   Bfn.  Coefficient  Atom+Function         Bfn.  Coefficient  Atom+Function  
  ----- ------------  ---------------      ----- ------------  ---------------
     4      1.588373  1 O  s                 35     -1.588321  2 O  s          
    42      1.565268  2 O  pz                11      1.421956  1 O  pz         
     3     -1.164424  1 O  s                 34      1.164399  2 O  s          
    10     -1.133937  1 O  py                41     -0.882071  2 O  py         
    52      0.766742  2 O  d -1              21     -0.601284  1 O  d -1       
 
 Vector   49  Occ=0.000000D+00  E= 4.660286D+00
              MO Center= -8.2D+00,  2.6D+00,  2.2D-02, r^2= 1.0D+00
   Bfn.  Coefficient  Atom+Function         Bfn.  Coefficient  Atom+Function  
  ----- ------------  ---------------      ----- ------------  ---------------
    30      0.337484  1 O  f  2              26      0.332559  1 O  f -2       
    28      0.329887  1 O  f  0              57      0.309761  2 O  f -2       
    59      0.300954  2 O  f  0              60      0.289649  2 O  f  1       
    61      0.286127  2 O  f  2               9      0.276096  1 O  px         
    56     -0.273543  2 O  f -3              25     -0.270102  1 O  f -3       
 
 Vector   50  Occ=0.000000D+00  E= 4.721323D+00
              MO Center= -8.3D+00,  2.6D+00,  2.4D-02, r^2= 9.6D-01
   Bfn.  Coefficient  Atom+Function         Bfn.  Coefficient  Atom+Function  
  ----- ------------  ---------------      ----- ------------  ---------------
    27      0.474559  1 O  f -1              58     -0.396347  2 O  f -1       
    57      0.346495  2 O  f -2              61     -0.339480  2 O  f  2       
    31      0.275587  1 O  f  3              30      0.262469  1 O  f  2       
     5     -0.243882  1 O  s                 26     -0.244057  1 O  f -2       
    36     -0.243881  2 O  s                 62     -0.211403  2 O  f  3       
 
 Vector   51  Occ=0.000000D+00  E= 4.743573D+00
              MO Center= -8.2D+00,  2.6D+00,  2.2D-02, r^2= 1.1D+00
   Bfn.  Coefficient  Atom+Function         Bfn.  Coefficient  Atom+Function  
  ----- ------------  ---------------      ----- ------------  ---------------
     4      0.528155  1 O  s                 35     -0.528139  2 O  s          
    26     -0.490202  1 O  f -2              62      0.446817  2 O  f  3       
     9     -0.425454  1 O  px                59      0.380356  2 O  f  0       
    27     -0.343647  1 O  f -1              28      0.293925  1 O  f  0       
    41     -0.282209  2 O  py                42     -0.282794  2 O  pz         
 
 Vector   52  Occ=0.000000D+00  E= 4.841068D+00
              MO Center= -8.2D+00,  2.6D+00,  1.4D-02, r^2= 1.0D+00
   Bfn.  Coefficient  Atom+Function         Bfn.  Coefficient  Atom+Function  
  ----- ------------  ---------------      ----- ------------  ---------------
    29      0.527163  1 O  f  1              56     -0.458709  2 O  f -3       
    60     -0.430611  2 O  f  1              25      0.280922  1 O  f -3       
    28     -0.235404  1 O  f  0              31      0.215132  1 O  f  3       
    62     -0.199713  2 O  f  3              61      0.153443  2 O  f  2       
    27     -0.139713  1 O  f -1              57     -0.116748  2 O  f -2       
 
 Vector   53  Occ=0.000000D+00  E= 4.944394D+00
              MO Center= -8.3D+00,  2.6D+00,  3.5D-02, r^2= 1.1D+00
   Bfn.  Coefficient  Atom+Function         Bfn.  Coefficient  Atom+Function  
  ----- ------------  ---------------      ----- ------------  ---------------
    31      0.518763  1 O  f  3              56      0.450689  2 O  f -3       
    59      0.398111  2 O  f  0              28     -0.347240  1 O  f  0       
    62     -0.264591  2 O  f  3              27     -0.256562  1 O  f -1       
    42      0.211800  2 O  pz                11      0.208744  1 O  pz         
    58      0.177225  2 O  f -1              60      0.161908  2 O  f  1       
 
 Vector   54  Occ=0.000000D+00  E= 5.194603D+00
              MO Center= -8.3D+00,  2.6D+00,  3.3D-02, r^2= 1.0D+00
   Bfn.  Coefficient  Atom+Function         Bfn.  Coefficient  Atom+Function  
  ----- ------------  ---------------      ----- ------------  ---------------
    25      0.604803  1 O  f -3              56      0.442957  2 O  f -3       
    62      0.322323  2 O  f  3              30      0.301825  1 O  f  2       
    61      0.297592  2 O  f  2              59     -0.256399  2 O  f  0       
    67     -0.213468  3 H  py                72     -0.196645  4 H  px         
    57      0.191122  2 O  f -2              15     -0.164736  1 O  d -2       
 
 Vector   55  Occ=0.000000D+00  E= 5.252803D+00
              MO Center= -8.3D+00,  2.6D+00,  3.6D-02, r^2= 1.1D+00
   Bfn.  Coefficient  Atom+Function         Bfn.  Coefficient  Atom+Function  
  ----- ------------  ---------------      ----- ------------  ---------------
    25      0.408782  1 O  f -3              61     -0.408930  2 O  f  2       
    56     -0.405472  2 O  f -3              30      0.386429  1 O  f  2       
    29     -0.355687  1 O  f  1              60      0.313904  2 O  f  1       
    57     -0.229031  2 O  f -2              27     -0.211304  1 O  f -1       
    72      0.211649  4 H  px                68     -0.191655  3 H  pz         
 
 Vector   56  Occ=0.000000D+00  E= 5.254005D+00
              MO Center= -8.2D+00,  2.6D+00,  2.5D-02, r^2= 1.0D+00
   Bfn.  Coefficient  Atom+Function         Bfn.  Coefficient  Atom+Function  
  ----- ------------  ---------------      ----- ------------  ---------------
    29      0.580544  1 O  f  1              60      0.569716  2 O  f  1       
    30     -0.259481  1 O  f  2              62      0.255980  2 O  f  3       
    61     -0.248409  2 O  f  2              27      0.235787  1 O  f -1       
    58      0.229542  2 O  f -1              26     -0.204624  1 O  f -2       
    68      0.174185  3 H  pz                72      0.144911  4 H  px         
 
 Vector   57  Occ=0.000000D+00  E= 5.291558D+00
              MO Center= -8.3D+00,  2.6D+00,  3.8D-02, r^2= 9.7D-01
   Bfn.  Coefficient  Atom+Function         Bfn.  Coefficient  Atom+Function  
  ----- ------------  ---------------      ----- ------------  ---------------
    62      0.540604  2 O  f  3              31      0.412754  1 O  f  3       
    28     -0.406152  1 O  f  0              25     -0.331006  1 O  f -3       
    59     -0.314786  2 O  f  0              58     -0.253048  2 O  f -1       
     9     -0.219846  1 O  px                74      0.208179  4 H  pz         
    29     -0.197904  1 O  f  1              67      0.152853  3 H  py         
 
 Vector   58  Occ=0.000000D+00  E= 5.549903D+00
              MO Center= -8.2D+00,  2.6D+00,  1.4D-02, r^2= 9.7D-01
   Bfn.  Coefficient  Atom+Function         Bfn.  Coefficient  Atom+Function  
  ----- ------------  ---------------      ----- ------------  ---------------
     4      0.558859  1 O  s                 35      0.558800  2 O  s          
    59      0.560014  2 O  f  0              26      0.515873  1 O  f -2       
     9     -0.496414  1 O  px                42      0.433775  2 O  pz         
    64     -0.401368  3 H  s                 70     -0.401331  4 H  s          
    27      0.384322  1 O  f -1              66     -0.347848  3 H  px         
 
 Vector   59  Occ=0.000000D+00  E= 5.588461D+00
              MO Center= -8.2D+00,  2.6D+00,  2.3D-02, r^2= 8.8D-01
   Bfn.  Coefficient  Atom+Function         Bfn.  Coefficient  Atom+Function  
  ----- ------------  ---------------      ----- ------------  ---------------
    42      0.405229  2 O  pz                57      0.403709  2 O  f -2       
    28     -0.397042  1 O  f  0               9      0.384633  1 O  px         
     4     -0.327427  1 O  s                 35      0.327489  2 O  s          
    59      0.317908  2 O  f  0              19     -0.285972  1 O  d  2       
    49     -0.270086  2 O  d  1              26     -0.266631  1 O  f -2       
 
 Vector   60  Occ=0.000000D+00  E= 5.858515D+00
              MO Center= -8.3D+00,  2.6D+00,  5.2D-02, r^2= 1.0D+00
   Bfn.  Coefficient  Atom+Function         Bfn.  Coefficient  Atom+Function  
  ----- ------------  ---------------      ----- ------------  ---------------
     4      0.696807  1 O  s                 35     -0.696826  2 O  s          
     9     -0.656207  1 O  px                42     -0.653590  2 O  pz         
    47     -0.541249  2 O  d -1              66     -0.501685  3 H  px         
    63     -0.472258  3 H  s                 69      0.472267  4 H  s          
    74     -0.443693  4 H  pz                17     -0.370977  1 O  d  0       
 
 Vector   61  Occ=0.000000D+00  E= 5.951033D+00
              MO Center= -8.3D+00,  2.7D+00,  6.9D-02, r^2= 1.0D+00
   Bfn.  Coefficient  Atom+Function         Bfn.  Coefficient  Atom+Function  
  ----- ------------  ---------------      ----- ------------  ---------------
     4      0.964414  1 O  s                 35      0.964367  2 O  s          
     9     -0.733119  1 O  px                42      0.623484  2 O  pz         
    66     -0.541764  3 H  px                63     -0.490268  3 H  s          
    69     -0.490254  4 H  s                 74      0.489256  4 H  pz         
    64     -0.442468  3 H  s                 70     -0.442463  4 H  s          
 
 Vector   62  Occ=0.000000D+00  E= 6.095100D+00
              MO Center= -8.2D+00,  2.6D+00,  2.2D-02, r^2= 8.9D-01
   Bfn.  Coefficient  Atom+Function         Bfn.  Coefficient  Atom+Function  
  ----- ------------  ---------------      ----- ------------  ---------------
     5      1.253347  1 O  s                 36     -1.253346  2 O  s          
     4     -0.980791  1 O  s                 35      0.980802  2 O  s          
    16      0.698141  1 O  d -1              48      0.566048  2 O  d  0       
     3      0.441077  1 O  s                 34     -0.441083  2 O  s          
    44     -0.430119  2 O  py                14      0.391821  1 O  pz         
 
 Vector   63  Occ=0.000000D+00  E= 6.116097D+00
              MO Center= -8.2D+00,  2.6D+00,  2.0D-02, r^2= 8.9D-01
   Bfn.  Coefficient  Atom+Function         Bfn.  Coefficient  Atom+Function  
  ----- ------------  ---------------      ----- ------------  ---------------
    50      0.605956  2 O  d  2              18     -0.498417  1 O  d  1       
    19     -0.486916  1 O  d  2              17     -0.377091  1 O  d  0       
    49      0.320054  2 O  d  1              48      0.314299  2 O  d  0       
    55     -0.305025  2 O  d  2              23      0.273604  1 O  d  1       
    46      0.272930  2 O  d -2              24      0.220721  1 O  d  2       
 
 Vector   64  Occ=0.000000D+00  E= 6.171862D+00
              MO Center= -8.2D+00,  2.6D+00,  4.5D-03, r^2= 9.1D-01
   Bfn.  Coefficient  Atom+Function         Bfn.  Coefficient  Atom+Function  
  ----- ------------  ---------------      ----- ------------  ---------------
    15      0.658749  1 O  d -2              49     -0.511168  2 O  d  1       
    20     -0.378723  1 O  d -2              54      0.368384  2 O  d  1       
    47     -0.365529  2 O  d -1              50      0.328505  2 O  d  2       
    17      0.322419  1 O  d  0              64      0.296031  3 H  s          
    70      0.296067  4 H  s                  4     -0.283859  1 O  s          
 
 Vector   65  Occ=0.000000D+00  E= 6.201109D+00
              MO Center= -8.2D+00,  2.6D+00,  1.5D-02, r^2= 9.0D-01
   Bfn.  Coefficient  Atom+Function         Bfn.  Coefficient  Atom+Function  
  ----- ------------  ---------------      ----- ------------  ---------------
    46      0.601242  2 O  d -2              17      0.559184  1 O  d  0       
     5      0.449375  1 O  s                 15     -0.448602  1 O  d -2       
    36     -0.449358  2 O  s                 49      0.394731  2 O  d  1       
    51     -0.353164  2 O  d -2              48     -0.343619  2 O  d  0       
    18     -0.303329  1 O  d  1              22     -0.302576  1 O  d  0       
 
 Vector   66  Occ=0.000000D+00  E= 6.252457D+00
              MO Center= -8.2D+00,  2.6D+00,  2.0D-02, r^2= 9.4D-01
   Bfn.  Coefficient  Atom+Function         Bfn.  Coefficient  Atom+Function  
  ----- ------------  ---------------      ----- ------------  ---------------
    15      0.596748  1 O  d -2              18     -0.510588  1 O  d  1       
    50     -0.477885  2 O  d  2              49      0.441786  2 O  d  1       
    20     -0.427467  1 O  d -2              46     -0.398923  2 O  d -2       
    55      0.340749  2 O  d  2               4      0.313883  1 O  s          
    35     -0.313867  2 O  s                 23      0.282690  1 O  d  1       
 
 Vector   67  Occ=0.000000D+00  E= 6.519157D+00
              MO Center= -8.3D+00,  2.6D+00,  2.5D-02, r^2= 1.0D+00
   Bfn.  Coefficient  Atom+Function         Bfn.  Coefficient  Atom+Function  
  ----- ------------  ---------------      ----- ------------  ---------------
    64      0.804554  3 H  s                 70      0.804547  4 H  s          
     9      0.652543  1 O  px                16     -0.645024  1 O  d -1       
    42     -0.640181  2 O  pz                46      0.594274  2 O  d -2       
    51     -0.544124  2 O  d -2              24     -0.486308  1 O  d  2       
    74     -0.432749  4 H  pz                21      0.430366  1 O  d -1       
 
 Vector   68  Occ=0.000000D+00  E= 6.619705D+00
              MO Center= -8.2D+00,  2.6D+00,  2.1D-02, r^2= 1.1D+00
   Bfn.  Coefficient  Atom+Function         Bfn.  Coefficient  Atom+Function  
  ----- ------------  ---------------      ----- ------------  ---------------
    64     -0.896064  3 H  s                 70      0.896055  4 H  s          
    24      0.885353  1 O  d  2               4      0.841649  1 O  s          
    35     -0.841637  2 O  s                  9     -0.820278  1 O  px         
    19     -0.725979  1 O  d  2               5      0.625415  1 O  s          
    36     -0.625411  2 O  s                 41     -0.599636  2 O  py         
 
 Vector   69  Occ=0.000000D+00  E= 6.752593D+00
              MO Center= -8.2D+00,  2.6D+00,  1.5D-02, r^2= 1.0D+00
   Bfn.  Coefficient  Atom+Function         Bfn.  Coefficient  Atom+Function  
  ----- ------------  ---------------      ----- ------------  ---------------
    17      0.604451  1 O  d  0              22     -0.582815  1 O  d  0       
    48      0.574371  2 O  d  0              53     -0.528742  2 O  d  0       
    47     -0.480345  2 O  d -1              16     -0.381966  1 O  d -1       
    51      0.380222  2 O  d -2              52      0.381933  2 O  d -1       
    46     -0.318129  2 O  d -2              20      0.295502  1 O  d -2       
 
 Vector   70  Occ=0.000000D+00  E= 6.804478D+00
              MO Center= -8.2D+00,  2.6D+00,  2.1D-02, r^2= 1.2D+00
   Bfn.  Coefficient  Atom+Function         Bfn.  Coefficient  Atom+Function  
  ----- ------------  ---------------      ----- ------------  ---------------
     4      1.112743  1 O  s                 35     -1.112691  2 O  s          
    64     -0.929863  3 H  s                 70      0.929822  4 H  s          
     9     -0.837577  1 O  px                23     -0.717657  1 O  d  1       
    42     -0.692301  2 O  pz                66     -0.666589  3 H  px         
    52     -0.638183  2 O  d -1              63     -0.618714  3 H  s          
 
 Vector   71  Occ=0.000000D+00  E= 7.023304D+00
              MO Center= -8.2D+00,  2.6D+00,  2.1D-02, r^2= 1.1D+00
   Bfn.  Coefficient  Atom+Function         Bfn.  Coefficient  Atom+Function  
  ----- ------------  ---------------      ----- ------------  ---------------
     4      1.308322  1 O  s                 35      1.308335  2 O  s          
    64     -0.860137  3 H  s                 70     -0.860163  4 H  s          
     9     -0.854374  1 O  px                52      0.776278  2 O  d -1       
    42      0.678517  2 O  pz                63     -0.679888  3 H  s          
    69     -0.679904  4 H  s                 23     -0.657313  1 O  d  1       
 
 Vector   72  Occ=0.000000D+00  E= 7.719924D+00
              MO Center= -8.2D+00,  2.6D+00,  1.9D-02, r^2= 1.1D+00
   Bfn.  Coefficient  Atom+Function         Bfn.  Coefficient  Atom+Function  
  ----- ------------  ---------------      ----- ------------  ---------------
    42      1.639519  2 O  pz                 4      1.558545  1 O  s          
    35     -1.558565  2 O  s                 11      1.538538  1 O  pz         
    52      1.396375  2 O  d -1              10     -1.286834  1 O  py         
    21     -1.230839  1 O  d -1              41     -1.109323  2 O  py         
     3     -1.067773  1 O  s                 34      1.067781  2 O  s          
 
 Vector   73  Occ=0.000000D+00  E= 4.266921D+01
              MO Center= -8.2D+00,  2.6D+00,  2.0D-02, r^2= 6.6D-01
   Bfn.  Coefficient  Atom+Function         Bfn.  Coefficient  Atom+Function  
  ----- ------------  ---------------      ----- ------------  ---------------
     2      1.195441  1 O  s                 33      1.195412  2 O  s          
     4      1.092959  1 O  s                 35      1.092923  2 O  s          
     3     -1.060389  1 O  s                 34     -1.060359  2 O  s          
     1     -0.982265  1 O  s                 32     -0.982241  2 O  s          
     5     -0.470685  1 O  s                 36     -0.470666  2 O  s          
 
 Vector   74  Occ=0.000000D+00  E= 4.314436D+01
              MO Center= -8.2D+00,  2.6D+00,  1.9D-02, r^2= 6.6D-01
   Bfn.  Coefficient  Atom+Function         Bfn.  Coefficient  Atom+Function  
  ----- ------------  ---------------      ----- ------------  ---------------
     4      1.433523  1 O  s                 35     -1.433550  2 O  s          
     3     -1.255273  1 O  s                 34      1.255298  2 O  s          
     2      1.216177  1 O  s                 33     -1.216205  2 O  s          
     1     -0.985464  1 O  s                 32      0.985488  2 O  s          
     5     -0.673232  1 O  s                 36      0.673244  2 O  s          
 

 center of mass
 --------------
 x = -15.61131323 y =   4.91631965 z =   0.05853692

 moments of inertia (a.u.)
 ------------------
          69.764243003620          -8.685096666377           9.063693757991
          -8.685096666377          49.175327516430          31.088271710366
           9.063693757991          31.088271710366          32.550743133976
 
     Multipole analysis of the density
     ---------------------------------
 
     L   x y z        total         alpha         beta         nuclear
     -   - - -        -----         -----         ----         -------
     0   0 0 0     -0.000000     -9.000000     -9.000000     18.000000
 
     1   1 0 0     -0.397771    140.561269    140.561269   -281.520308
     1   0 1 0      0.481472    -44.318864    -44.318864     89.119200
     1   0 0 1      0.273956     -0.567770     -0.567770      1.409496
 
     2   2 0 0      3.695394  -2201.569054  -2201.569054   4406.833502
     2   1 1 0    -10.241024    689.982934    689.982934  -1390.206893
     2   1 0 1     -2.667701     11.236495     11.236495    -25.140691
     2   0 2 0     -4.807891   -229.996135   -229.996135    455.184380
     2   0 1 1      1.356485      5.413048      5.413048     -9.469611
     2   0 0 2     -6.482315    -16.305719    -16.305719     26.129122
 
 
            General Information
            -------------------
          SCF calculation type: DFT
          Wavefunction type:  closed shell.
          No. of atoms     :     4
          No. of electrons :    18
           Alpha electrons :     9
            Beta electrons :     9
          Charge           :     0
          Spin multiplicity:     1
          Use of symmetry is: off; symmetry adaption is: off
          Maximum number of iterations: 250
          This is a Direct SCF calculation.
          AO basis - number of functions:    74
                     number of shells:    30
          Convergence on energy requested:  1.00D-08
          Convergence on density requested:  1.00D-05
          Convergence on gradient requested:  1.00D-08
 
              XC Information
              --------------
                    Becke 1988 Exchange Functional  1.000          
              Lee-Yang-Parr Correlation Functional  1.000          
 
             Grid Information
             ----------------
          Grid used for XC integration:  xfine     
          Radial quadrature: Mura-Knowles        
          Angular quadrature: Lebedev. 
          Tag              B.-S. Rad. Rad. Pts. Rad. Cut. Ang. Pts.
          ---              ---------- --------- --------- ---------
          O                   0.60      100           8.0      1454
          H                   0.35      100           9.0      1202
          Grid pruning is: on 
          Number of quadrature shells:   400
          Spatial weights used:  Erf1
 
          Convergence Information
          -----------------------
          Convergence aids based upon iterative change in 
          total energy or number of iterations. 
          Levelshifting, if invoked, occurs when the 
          HOMO/LUMO gap drops below (HL_TOL):  1.00D-02
          DIIS, if invoked, will attempt to extrapolate 
          using up to (NFOCK): 10 stored Fock matrices.

                    Damping( 0%)  Levelshifting(0.0)       DIIS
                  --------------- ------------------- ---------------
          dE  on:    start             N/A                start   
          dE off:    2 iters           N/A              250 iters 

 
      Screening Tolerance Information
      -------------------------------
          Density screening/tol_rho:  1.00D-11
          AO Gaussian exp screening on grid/accAOfunc:  18
          CD Gaussian exp screening on grid/accCDfunc:  20
          XC Gaussian exp screening on grid/accXCfunc:  20
          Schwarz screening/accCoul:  1.00D-09

 
 
                            NWChem DFT Gradient Module
                            --------------------------
 
 
                         h2o2 roa calculations at 514.5 nm, input generated by va with delta_type=2
 
 

  charge          =   0.00
  wavefunction    = closed shell



                         DFT ENERGY GRADIENTS

    atom               coordinates                        gradient
                 x          y          z           x          y          z
   1 O     -15.217476   5.762971  -0.997919    0.002762   0.000705   0.001880
   2 O     -15.939506   3.990204   1.069783   -0.002345  -0.001209  -0.002170
   3 H     -16.913461   6.085267  -1.663411   -0.001082  -0.001601   0.002131
   4 H     -15.350991   5.008537   2.497991    0.000666   0.002104  -0.001841
 
                 ----------------------------------------
                 |  Time  |  1-e(secs)   |  2-e(secs)   |
                 ----------------------------------------
                 |  CPU   |       0.01   |       2.26   |
                 ----------------------------------------
                 |  WALL  |       0.01   |       2.29   |
                 ----------------------------------------

 Task  times  cpu:       35.1s     wall:       36.3s
 
 
                                NWChem Input Module
                                -------------------
 
 
                              NWChem Property Module
                              ----------------------
 
 
                         h2o2 roa calculations at 514.5 nm, input generated by va with delta_type=2
 
 
                                 NWChem DFT Module
                                 -----------------
 
 
                         h2o2 roa calculations at 514.5 nm, input generated by va with delta_type=2
 
 


 Summary of "ao basis" -> "ao basis" (spherical)
 ------------------------------------------------------------------------------
       Tag                 Description            Shells   Functions and Types
 ---------------- ------------------------------  ------  ---------------------
 O                         def2-TZVP                11       31   5s3p2d1f
 H                         def2-TZVP                 4        6   3s1p


  Caching 1-el integrals 
 
            General Information
            -------------------
          SCF calculation type: DFT
          Wavefunction type:  closed shell.
          No. of atoms     :     4
          No. of electrons :    18
           Alpha electrons :     9
            Beta electrons :     9
          Charge           :     0
          Spin multiplicity:     1
          Use of symmetry is: off; symmetry adaption is: off
          Maximum number of iterations: 250
          This is a Direct SCF calculation.
          AO basis - number of functions:    74
                     number of shells:    30
          Convergence on energy requested:  1.00D-08
          Convergence on density requested:  1.00D-05
          Convergence on gradient requested:  1.00D-08
 
              XC Information
              --------------
                    Becke 1988 Exchange Functional  1.000          
              Lee-Yang-Parr Correlation Functional  1.000          
 
             Grid Information
             ----------------
          Grid used for XC integration:  xfine     
          Radial quadrature: Mura-Knowles        
          Angular quadrature: Lebedev. 
          Tag              B.-S. Rad. Rad. Pts. Rad. Cut. Ang. Pts.
          ---              ---------- --------- --------- ---------
          O                   0.60      100           8.0      1454
          H                   0.35      100           9.0      1202
          Grid pruning is: on 
          Number of quadrature shells:   400
          Spatial weights used:  Erf1
 
          Convergence Information
          -----------------------
          Convergence aids based upon iterative change in 
          total energy or number of iterations. 
          Levelshifting, if invoked, occurs when the 
          HOMO/LUMO gap drops below (HL_TOL):  1.00D-02
          DIIS, if invoked, will attempt to extrapolate 
          using up to (NFOCK): 10 stored Fock matrices.

                    Damping( 0%)  Levelshifting(0.0)       DIIS
                  --------------- ------------------- ---------------
          dE  on:    start             N/A                start   
          dE off:    2 iters           N/A              250 iters 

 
      Screening Tolerance Information
      -------------------------------
          Density screening/tol_rho:  1.00D-11
          AO Gaussian exp screening on grid/accAOfunc:  18
          CD Gaussian exp screening on grid/accCDfunc:  20
          XC Gaussian exp screening on grid/accXCfunc:  20
          Schwarz screening/accCoul:  1.00D-09


 Loading old vectors from job with title :

h2o2 roa calculations at 514.5 nm, input generated by va with delta_type=2

   Time after variat. SCF:     36.8
   Time prior to 1st pass:     36.8

 Grid_pts file          = ./h2o2_514.5_04.inp.gridpts.0
 Record size in doubles =  12289        No. of grid_pts per rec  =   3070
 Max. records in memory =    210        Max. recs in file   =   3880619


           Memory utilization after 1st SCF pass: 
           Heap Space remaining (MW):       10.52            10522928
          Stack Space remaining (MW):       13.11            13106668

   convergence    iter        energy       DeltaE   RMS-Dens  Diis-err    time
 ---------------- ----- ----------------- --------- --------- ---------  ------
 d= 0,ls=0.0,diis     1   -151.6010290042 -1.88D+02  9.74D-07  3.03D-09    40.4
 d= 0,ls=0.0,diis     2   -151.6010290019  2.24D-09  7.34D-07  2.86D-08    43.7
 d= 0,ls=0.0,diis     3   -151.6010290044 -2.50D-09  3.82D-08  1.93D-11    47.2


         Total DFT energy =     -151.601029004417
      One electron energy =     -279.954834075893
           Coulomb energy =      110.116370384038
    Exchange-Corr. energy =      -17.813328947289
 Nuclear repulsion energy =       36.050763634727

 Numeric. integr. density =       17.999999998869

     Total iterative time =     10.4s


 
                       DFT Final Molecular Orbital Analysis
                       ------------------------------------
 
 Vector    1  Occ=2.000000D+00  E=-1.883200D+01
              MO Center= -8.2D+00,  2.6D+00,  1.7D-02, r^2= 5.7D-01
   Bfn.  Coefficient  Atom+Function         Bfn.  Coefficient  Atom+Function  
  ----- ------------  ---------------      ----- ------------  ---------------
     2      0.452343  1 O  s                 33     -0.450824  2 O  s          
     1      0.308398  1 O  s                 32     -0.307363  2 O  s          
     3      0.027306  1 O  s                 34     -0.027221  2 O  s          
 
 Vector    2  Occ=2.000000D+00  E=-1.883197D+01
              MO Center= -8.2D+00,  2.6D+00,  2.1D-02, r^2= 5.7D-01
   Bfn.  Coefficient  Atom+Function         Bfn.  Coefficient  Atom+Function  
  ----- ------------  ---------------      ----- ------------  ---------------
     2      0.450997  1 O  s                 33      0.452515  2 O  s          
     1      0.307341  1 O  s                 32      0.308376  2 O  s          
     3      0.025264  1 O  s                 34      0.025355  2 O  s          
 
 Vector    3  Occ=2.000000D+00  E=-1.009527D+00
              MO Center= -8.3D+00,  2.6D+00,  5.3D-02, r^2= 8.1D-01
   Bfn.  Coefficient  Atom+Function         Bfn.  Coefficient  Atom+Function  
  ----- ------------  ---------------      ----- ------------  ---------------
     4      0.312140  1 O  s                 35      0.312140  2 O  s          
     3      0.238798  1 O  s                 34      0.238798  2 O  s          
     2     -0.162773  1 O  s                 33     -0.162773  2 O  s          
     5      0.096470  1 O  s                 36      0.096470  2 O  s          
    38      0.072177  2 O  py                 1     -0.069937  1 O  s          
 
 Vector    4  Occ=2.000000D+00  E=-8.184454D-01
              MO Center= -8.3D+00,  2.7D+00,  7.2D-02, r^2= 1.3D+00
   Bfn.  Coefficient  Atom+Function         Bfn.  Coefficient  Atom+Function  
  ----- ------------  ---------------      ----- ------------  ---------------
     4      0.327309  1 O  s                 35     -0.327310  2 O  s          
     3      0.254414  1 O  s                 34     -0.254415  2 O  s          
     2     -0.167450  1 O  s                 33      0.167450  2 O  s          
     5      0.142007  1 O  s                 36     -0.142007  2 O  s          
    63      0.090753  3 H  s                 69     -0.090753  4 H  s          
 
 Vector    5  Occ=2.000000D+00  E=-4.706753D-01
              MO Center= -8.3D+00,  2.7D+00,  5.9D-02, r^2= 1.3D+00
   Bfn.  Coefficient  Atom+Function         Bfn.  Coefficient  Atom+Function  
  ----- ------------  ---------------      ----- ------------  ---------------
    39      0.310752  2 O  pz                42      0.243463  2 O  pz         
     7      0.209984  1 O  py                 8     -0.196958  1 O  pz         
    10      0.169143  1 O  py                11     -0.155946  1 O  pz         
    64      0.129869  3 H  s                 70      0.129871  4 H  s          
     6     -0.124313  1 O  px                45      0.112417  2 O  pz         
 
 Vector    6  Occ=2.000000D+00  E=-4.354241D-01
              MO Center= -8.3D+00,  2.6D+00,  3.7D-02, r^2= 1.3D+00
   Bfn.  Coefficient  Atom+Function         Bfn.  Coefficient  Atom+Function  
  ----- ------------  ---------------      ----- ------------  ---------------
     6      0.253713  1 O  px                 9      0.189000  1 O  px         
    37      0.176799  2 O  px                 5      0.155370  1 O  s          
    36     -0.155367  2 O  s                  4      0.153482  1 O  s          
    35     -0.153479  2 O  s                 39      0.153708  2 O  pz         
    38      0.151986  2 O  py                40      0.136670  2 O  px         
 
 Vector    7  Occ=2.000000D+00  E=-3.673184D-01
              MO Center= -8.2D+00,  2.5D+00, -2.0D-02, r^2= 1.3D+00
   Bfn.  Coefficient  Atom+Function         Bfn.  Coefficient  Atom+Function  
  ----- ------------  ---------------      ----- ------------  ---------------
    38      0.318366  2 O  py                41      0.248905  2 O  py         
     6     -0.237609  1 O  px                 8      0.216321  1 O  pz         
     9     -0.181706  1 O  px                11      0.175008  1 O  pz         
    44      0.164359  2 O  py                 5     -0.133225  1 O  s          
    36     -0.133226  2 O  s                 14      0.119152  1 O  pz         
 
 Vector    8  Occ=2.000000D+00  E=-2.762101D-01
              MO Center= -8.3D+00,  2.6D+00,  5.4D-02, r^2= 1.3D+00
   Bfn.  Coefficient  Atom+Function         Bfn.  Coefficient  Atom+Function  
  ----- ------------  ---------------      ----- ------------  ---------------
    37      0.344538  2 O  px                 7     -0.268332  1 O  py         
    40      0.268129  2 O  px                10     -0.214856  1 O  py         
    43      0.214731  2 O  px                13     -0.170999  1 O  py         
     8     -0.163344  1 O  pz                 6     -0.147063  1 O  px         
    11     -0.122430  1 O  pz                 5     -0.120004  1 O  s          
 
 Vector    9  Occ=2.000000D+00  E=-2.308674D-01
              MO Center= -8.2D+00,  2.6D+00,  7.1D-03, r^2= 1.2D+00
   Bfn.  Coefficient  Atom+Function         Bfn.  Coefficient  Atom+Function  
  ----- ------------  ---------------      ----- ------------  ---------------
    37      0.281752  2 O  px                 7      0.273958  1 O  py         
    40      0.222462  2 O  px                38     -0.218087  2 O  py         
    10      0.213938  1 O  py                 8      0.204873  1 O  pz         
    43      0.205177  2 O  px                13      0.188947  1 O  py         
    41     -0.166908  2 O  py                11      0.161613  1 O  pz         
 
 Vector   10  Occ=0.000000D+00  E=-5.940477D-02
              MO Center= -8.3D+00,  2.6D+00,  4.8D-02, r^2= 1.7D+00
   Bfn.  Coefficient  Atom+Function         Bfn.  Coefficient  Atom+Function  
  ----- ------------  ---------------      ----- ------------  ---------------
     5      0.488777  1 O  s                 36     -0.488785  2 O  s          
    44     -0.322640  2 O  py                14      0.300567  1 O  pz         
    13     -0.289554  1 O  py                65     -0.283592  3 H  s          
    71      0.283601  4 H  s                 45      0.281740  2 O  pz         
[...]
    64      0.804540  3 H  s                 70      0.804562  4 H  s          
     9      0.652528  1 O  px                16     -0.645026  1 O  d -1       
    42     -0.640190  2 O  pz                46      0.594273  2 O  d -2       
    51     -0.544127  2 O  d -2              24     -0.486296  1 O  d  2       
    74     -0.432757  4 H  pz                21      0.430365  1 O  d -1       
 
 Vector   68  Occ=0.000000D+00  E= 6.619705D+00
              MO Center= -8.2D+00,  2.6D+00,  2.1D-02, r^2= 1.1D+00
   Bfn.  Coefficient  Atom+Function         Bfn.  Coefficient  Atom+Function  
  ----- ------------  ---------------      ----- ------------  ---------------
    64     -0.896073  3 H  s                 70      0.896048  4 H  s          
    24      0.885358  1 O  d  2               4      0.841651  1 O  s          
    35     -0.841637  2 O  s                  9     -0.820283  1 O  px         
    19     -0.725984  1 O  d  2               5      0.625420  1 O  s          
    36     -0.625406  2 O  s                 41     -0.599634  2 O  py         
 
 Vector   69  Occ=0.000000D+00  E= 6.752592D+00
              MO Center= -8.2D+00,  2.6D+00,  1.5D-02, r^2= 1.0D+00
   Bfn.  Coefficient  Atom+Function         Bfn.  Coefficient  Atom+Function  
  ----- ------------  ---------------      ----- ------------  ---------------
    17      0.604454  1 O  d  0              22     -0.582817  1 O  d  0       
    48      0.574369  2 O  d  0              53     -0.528743  2 O  d  0       
    47     -0.480342  2 O  d -1              16     -0.381966  1 O  d -1       
    51      0.380219  2 O  d -2              52      0.381931  2 O  d -1       
    46     -0.318126  2 O  d -2              20      0.295502  1 O  d -2       
 
 Vector   70  Occ=0.000000D+00  E= 6.804477D+00
              MO Center= -8.2D+00,  2.6D+00,  2.1D-02, r^2= 1.2D+00
   Bfn.  Coefficient  Atom+Function         Bfn.  Coefficient  Atom+Function  
  ----- ------------  ---------------      ----- ------------  ---------------
     4      1.112734  1 O  s                 35     -1.112700  2 O  s          
    64     -0.929858  3 H  s                 70      0.929825  4 H  s          
     9     -0.837572  1 O  px                23     -0.717653  1 O  d  1       
    42     -0.692304  2 O  pz                66     -0.666586  3 H  px         
    52     -0.638188  2 O  d -1              63     -0.618710  3 H  s          
 
 Vector   71  Occ=0.000000D+00  E= 7.023304D+00
              MO Center= -8.2D+00,  2.6D+00,  2.1D-02, r^2= 1.1D+00
   Bfn.  Coefficient  Atom+Function         Bfn.  Coefficient  Atom+Function  
  ----- ------------  ---------------      ----- ------------  ---------------
     4      1.308335  1 O  s                 35      1.308321  2 O  s          
    64     -0.860145  3 H  s                 70     -0.860154  4 H  s          
     9     -0.854382  1 O  px                52      0.776275  2 O  d -1       
    42      0.678514  2 O  pz                63     -0.679893  3 H  s          
    69     -0.679898  4 H  s                 23     -0.657318  1 O  d  1       
 
 Vector   72  Occ=0.000000D+00  E= 7.719923D+00
              MO Center= -8.2D+00,  2.6D+00,  1.9D-02, r^2= 1.1D+00
   Bfn.  Coefficient  Atom+Function         Bfn.  Coefficient  Atom+Function  
  ----- ------------  ---------------      ----- ------------  ---------------
    42      1.639519  2 O  pz                 4      1.558543  1 O  s          
    35     -1.558566  2 O  s                 11      1.538538  1 O  pz         
    52      1.396374  2 O  d -1              10     -1.286834  1 O  py         
    21     -1.230840  1 O  d -1              41     -1.109324  2 O  py         
     3     -1.067772  1 O  s                 34      1.067781  2 O  s          
 
 Vector   73  Occ=0.000000D+00  E= 4.266921D+01
              MO Center= -8.2D+00,  2.6D+00,  2.0D-02, r^2= 6.6D-01
   Bfn.  Coefficient  Atom+Function         Bfn.  Coefficient  Atom+Function  
  ----- ------------  ---------------      ----- ------------  ---------------
     2      1.195427  1 O  s                 33      1.195426  2 O  s          
     4      1.092942  1 O  s                 35      1.092939  2 O  s          
     3     -1.060375  1 O  s                 34     -1.060374  2 O  s          
     1     -0.982253  1 O  s                 32     -0.982253  2 O  s          
     5     -0.470677  1 O  s                 36     -0.470674  2 O  s          
 
 Vector   74  Occ=0.000000D+00  E= 4.314436D+01
              MO Center= -8.2D+00,  2.6D+00,  1.9D-02, r^2= 6.6D-01
   Bfn.  Coefficient  Atom+Function         Bfn.  Coefficient  Atom+Function  
  ----- ------------  ---------------      ----- ------------  ---------------
     4      1.433536  1 O  s                 35     -1.433537  2 O  s          
     3     -1.255285  1 O  s                 34      1.255286  2 O  s          
     2      1.216191  1 O  s                 33     -1.216191  2 O  s          
     1     -0.985476  1 O  s                 32      0.985476  2 O  s          
     5     -0.673238  1 O  s                 36      0.673239  2 O  s          
 

 center of mass
 --------------
 x = -15.61131323 y =   4.91631965 z =   0.05853692

 moments of inertia (a.u.)
 ------------------
          69.764243003620          -8.685096666377           9.063693757991
          -8.685096666377          49.175327516430          31.088271710366
           9.063693757991          31.088271710366          32.550743133976
 
     Multipole analysis of the density
     ---------------------------------
 
     L   x y z        total         alpha         beta         nuclear
     -   - - -        -----         -----         ----         -------
     0   0 0 0     -0.000000     -9.000000     -9.000000     18.000000
 
     1   1 0 0     -0.397756    140.561276    140.561276   -281.520308
     1   0 1 0      0.481501    -44.318849    -44.318849     89.119200
     1   0 0 1      0.273934     -0.567781     -0.567781      1.409496
 
     2   2 0 0      3.694955  -2201.569274  -2201.569274   4406.833502
     2   1 1 0    -10.241409    689.982742    689.982742  -1390.206893
     2   1 0 1     -2.667359     11.236666     11.236666    -25.140691
     2   0 2 0     -4.807600   -229.995990   -229.995990    455.184380
     2   0 1 1      1.356378      5.412994      5.412994     -9.469611
     2   0 0 2     -6.482301    -16.305712    -16.305712     26.129122
 
 *** CALLING NEW AORESP DRIVER FOR CLOSED AND OPEN SHELLS ***
 Entering AOResponse driver routine


--------------------------------------------------------------------------------

          ****************
          *** RESPONSE ***
          ****************

 Response module for NWChem and dynamic CPKS solver
 developed by J. Autschbach and coworkers, SUNY Buffalo
 The methodology used in this program is described in 
 ChemPhysChem 12 (2011), 3224-3235 (main reference)
 J. Chem. Phys. 123 (2005), 114103
 J. Chem. Phys. 122 (2005), 224115
 J. Chem. Phys. 122 (2005), 074105
 Comp. Lett. 3 (2007), 131-150 (contact JA for a copy)
 Please cite this work in publications based on results
 obtained with this code. Thank you!

 For extension of response module to open shell
 calculations please acknowledge:
 F. Aquino, Northwestern University, Schatz Rsrch Group
 The update to the methodology is described in
 J. Phys. Chem. A 118 (2014) 517-525



          -----------------------------------------------
          Solving response equations for perturbing field
          -----------------------------------------------

 number of frequencies:     1
 frequency in a.u.:  0.8855800E-01
 Perturbing field: electric
 Using GIAO formalism for OptRot
 Adding quadrupole terms to OptRot
 to create an origin in dependent tensor.
 Using El. Dipole Length Gauge
 
 Applying DAMPING constant of  0.003700 a.u.
 
 Setting up CPKS
 with frequency omega =      0.08855800 a.u.
 and a damping of            0.00370000 a.u.

 
                            NWChem Dynamic CPHF Module
                            --------------------------
 
 
    scftype = RHF 
    nclosed =    9
      nopen =    0
  variables =     2340
  num. vecs =        3
  tolerance =   1.0D-09
  max. iter =  100

 SCF residual:   1.889672020006031E-006


Iterative solution of linear equations
  No. of variables     1170
  No. of equations        3
  Maximum subspace       99
       Convergence  1.0D-09
        Start time     50.7


   iter   nsub   residual    time 
   ----  ------  --------  --------- 
 dft_CPHF2_read: failed to open./h2o2_514.5_04.inp.aoresp_fiao_f1
     1      3    5.14D+00      78.1
     2      6    2.18D+00     105.7
     3      9    1.66D-01     133.4
     4     12    8.11D-03     161.1
     5     15    2.01D-03     188.7
     6     18    3.06D-04     216.3
     7     21    2.78D-05     244.0
     8     24    8.49D-07     271.8
     9     27    5.50D-08     299.5
    10     30    4.80D-09     327.3
    11     33    3.37D-10     355.0

 Calculating some arrays needed for GIAO optical rotation

    0 giaofock schwarz done =      98.67%
    0 giaofock schwarz done =      98.67%
 aor_r1_tensor_giao: roadata output requested
 dip-quad polarizability Re:

              1        2        3        4        5        6      
    1 -337.8164  43.6030  -7.5859   6.8457   3.8338   0.2587
    2  -24.0165-186.2647  54.0467 119.2260 -14.8798   3.4647
    3  -12.0872  54.9367-249.0324 -34.5529  81.3451   8.1134
 traceless dip-quad polarizability:

              1        2        3      
    1 -341.3686  65.4044 -11.3788
    2   65.4044 175.6246   5.7507
    3  -11.3788   5.7507 165.7440

              1        2        3      
    1  -85.3618-279.3971  81.0700
    2 -279.3971 129.5019 -22.3197
    3   81.0700 -22.3197 -44.1401

              1        2        3      
    1    1.1325  82.4050-373.5486
    2   82.4050 -32.5660 122.0176
    3 -373.5486 122.0176  31.4335

 roa begin

 alpha real:
 XX       0.1071660121399E+02
 XY       0.7825694814766E+00
 XZ       0.3281886313807E+00
 YX       0.7825694814933E+00
 YY       0.1208669248100E+02
 YZ      -0.3334510856195E+01
 ZX       0.3281886314231E+00
 ZY      -0.3334510856275E+01
 ZZ       0.1588113141543E+02

 alpha im:
 XX       0.2209385049909E-01
 XY       0.2378755454280E-02
 XZ      -0.1787786539063E-02
 YX       0.2378755571551E-02
 YY       0.2985917897146E-01
 YZ      -0.1309291442420E-01
 ZX      -0.1787786412489E-02
 ZY      -0.1309291421780E-01
 ZZ       0.4086426083479E-01

 beta real:
 XX      -0.5524070704947E-01
 XY      -0.1440599844761E+00
 XZ       0.3004737345443E+01
 YX       0.7725892275900E+00
 YY       0.2154333781528E+01
 YZ       0.8438952195064E+01
 ZX      -0.3167324902379E+01
 ZY      -0.1092585001636E+02
 ZZ      -0.2101797213636E+01

 G-prime = -omega beta(real):
 XX      -0.5524070704947E-01
 XY      -0.1440599844761E+00
 XZ       0.3004737345443E+01
 YX       0.7725892275900E+00
 YY       0.2154333781528E+01
 YZ       0.8438952195064E+01
 ZX      -0.3167324902379E+01
 ZY      -0.1092585001636E+02
 ZZ      -0.2101797213636E+01

 beta im:
 XX      -0.5384295711604E-03
 XY       0.1522218903145E-02
 XZ       0.5847203275311E-01
 YX       0.3417958620290E-01
 YY       0.9358075713833E-01
 YZ       0.1318168943783E+00
 ZX      -0.6035931450590E-01
 ZY      -0.2281384544216E+00
 ZZ      -0.9524057260142E-01

 G-prime = -omega beta(imag):
 XX      -0.5384295711604E-03
 XY       0.1522218903145E-02
 XZ       0.5847203275311E-01
 YX       0.3417958620290E-01
 YY       0.9358075713833E-01
 YZ       0.1318168943783E+00
 ZX      -0.6035931450590E-01
 ZY      -0.2281384544216E+00
 ZZ      -0.9524057260142E-01

 dipole-quadrupole real (Cartesian):
 XXX     -0.3378163771345E+03
 XXY      0.4360295067025E+02
 XXZ     -0.7585872149475E+01
 XYY      0.6845734922347E+01
 XYZ      0.3833780859450E+01
 XZZ      0.2586619334583E+00
 YXX     -0.2401650543998E+02
 YXY     -0.1862647325417E+03
 YXZ      0.5404668725194E+02
 YYY      0.1192259785333E+03
 YYZ     -0.1487977136878E+02
 YZZ      0.3464654905938E+01
 ZXX     -0.1208719624536E+02
 ZXY      0.5493669742904E+02
 ZXZ     -0.2490324223980E+03
 ZYY     -0.3455290185791E+02
 ZYZ      0.8134507485412E+02
 ZZZ      0.8113438789086E+01

 dipole-quadrupole imag (Cartesian):
 XXX     -0.7006474956036E+00
 XXY      0.8177096424520E-01
 XXZ      0.2231533527149E-01
 XYY      0.2148773401830E-01
 XYZ     -0.4882517536360E-02
 XZZ     -0.2476664077402E-02
 YXX     -0.7180142139686E-01
 YXY     -0.4633340624713E+00
 YXZ      0.2138606960216E+00
 YYY      0.3028414384273E+00
 YYZ     -0.6196976069475E-01
 YZZ      0.4895709799393E-02
 ZXX      0.5167334966915E-01
 ZXY      0.2008562574488E+00
 ZXZ     -0.6470703289916E+00
 ZYY     -0.1402908888693E+00
 ZYZ      0.2153791274969E+00
 ZZZ      0.3080674710663E-01

 dipole-quadrupole (traceless):
 XXX     -0.3413685755624E+03
 XXY      0.6540442600537E+02
 XXZ     -0.1137880822421E+02
 XYY      0.1756245925229E+03
 XYZ      0.5750671289175E+01
 XZZ      0.1657439830395E+03
 YXX     -0.8536182215962E+02
 YXY     -0.2793970988125E+03
 YXZ      0.8107003087792E+02
 YYY      0.1295019038004E+03
 YYZ     -0.2231965705317E+02
 YZZ     -0.4414008164075E+02
 ZXX      0.1132535289052E+01
 ZXY      0.8240504614355E+02
 ZXZ     -0.3735486335970E+03
 ZYY     -0.3256602312978E+02
 ZYZ      0.1220176122812E+03
 ZZZ      0.3143348784072E+02

 roa end


 Electric Dipole Response Matrix (nonzero elements):

              1        2        3      
    1   10.7166   0.7826   0.3282
    2    0.7826  12.0867  -3.3345
    3    0.3282  -3.3345  15.8811
 
 Imaginary part:

              1        2        3      
    1    0.0221   0.0024  -0.0018
    2    0.0024   0.0299  -0.0131
    3   -0.0018  -0.0131   0.0409

 ------------------------------------------
 average:        12.89481 + I       0.03094


 DFT Linear Response polarizability / au 
 Frequency  =       0.0885580 / au
 Wavelength =     514.5029585 / nm
              X              Y              Z
 -----------------------------------------------
 X      10.7166012      0.7825695      0.3281886
 Y       0.7825695     12.0866925     -3.3345109
 Z       0.3281886     -3.3345109     15.8811314
 -----------------------------------------------
 Eigenvalues =      11.3190997      9.5432396     17.8220858
 Isotropic   =      12.8948084
 Anisotropic =       6.1639220
 -----------------------------------------------
 *************************

 DFT Linear Response IMAG polarizability / au 
 Frequency  =       0.0885580 / au
 Wavelength =     514.5029585 / nm
              X              Y              Z
 -----------------------------------------------
 X       0.0220939      0.0023788     -0.0017878
 Y       0.0023788      0.0298592     -0.0130929
 Z      -0.0017878     -0.0130929      0.0408643
 -----------------------------------------------
 Eigenvalues =       0.0225238      0.0204456      0.0498479
 Isotropic   =       0.0309391
 Anisotropic =       0.0232050
 -----------------------------------------------
 *************************

 Magnetic Dipole Response Matrix (nonzero elements):
 Optical rotation tensor Beta
 (Buckingham-Dunn version including dipole-quadrupole terms)

              1        2        3      
    1    0.1788   0.2443  -1.6473
    2    0.2443   1.2246  -0.0041
    3   -1.6473  -0.0041  -1.3729
 
 Imaginary part:

              1        2        3      
    1    0.0061  -0.0172  -0.6603
    2   -0.3860  -1.0567  -1.4885
    3    0.6816   2.5761   1.0755

 ------------------------------------------
 average:         0.01018 + I       0.00827

 Principal components and PAS (Real part)
                 -2.42235
                  1.43478
                  1.01810
 ------------------------
 average:         0.01018

              1        2        3      
    1    0.5370   0.6059   0.5869
    2   -0.0350   0.7112  -0.7021
    3    0.8428  -0.3565  -0.4032

 Chiral response tensor (Real part):

              1        2        3      
    1   -0.0741  -0.1221   0.8236
    2   -0.1221  -0.5971   0.0020
    3    0.8236   0.0020   0.7017
 
 Principal components and PAS (Real part)
                  1.22644
                 -0.70212
                 -0.49378
 ------------------------
 average:         0.01018

              1        2        3      
    1    0.5370   0.6059   0.5869
    2   -0.0350   0.7112  -0.7021
    3    0.8428  -0.3565  -0.4032
 Exiting AOResponse driver routine

 Task  times  cpu:      346.3s     wall:      347.7s
 
 
                                NWChem Input Module
                                -------------------
 
 
 Summary of allocated global arrays
-----------------------------------
  No active global arrays



                         GA Statistics for process    0
                         ------------------------------

       create   destroy   get      put      acc     scatter   gather  read&inc
calls: 2444     2444     6.45e+06 5.32e+06 4.84e+05 1938        0     1953     
number of processes/call 1.00e+00 1.00e+00 1.00e+00 0.00e+00 0.00e+00
bytes total:             1.20e+09 1.67e+08 1.12e+09 5.92e+02 0.00e+00 1.56e+04
bytes remote:            0.00e+00 0.00e+00 0.00e+00 0.00e+00 0.00e+00 0.00e+00
Max memory consumed for GA by this process: 11498464 bytes
 
MA_summarize_allocated_blocks: starting scan ...
MA_summarize_allocated_blocks: scan completed: 0 heap blocks, 0 stack blocks
MA usage statistics:

	allocation statistics:
					      heap	     stack
					      ----	     -----
	current number of blocks	         0	         0
	maximum number of blocks	        24	        52
	current total bytes		         0	         0
	maximum total bytes		  20676928	  42215048
	maximum total K-bytes		     20677	     42216
	maximum total M-bytes		        21	        43
 
 
                                     CITATION
                                     --------
                Please cite the following reference when publishing
                           results obtained with NWChem:
 
                 M. Valiev, E.J. Bylaska, N. Govind, K. Kowalski,
              T.P. Straatsma, H.J.J. van Dam, D. Wang, J. Nieplocha,
                        E. Apra, T.L. Windus, W.A. de Jong
                 "NWChem: a comprehensive and scalable open-source
                  solution for large scale molecular simulations"
                      Comput. Phys. Commun. 181, 1477 (2010)
                           doi:10.1016/j.cpc.2010.04.018
 
                                      AUTHORS
                                      -------
          E. Apra, E. J. Bylaska, W. A. de Jong, N. Govind, K. Kowalski,
       T. P. Straatsma, M. Valiev, H. J. J. van Dam, D. Wang, T. L. Windus,
        J. Hammond, J. Autschbach, K. Bhaskaran-Nair, J. Brabec, K. Lopata,
    S. A. Fischer, S. Krishnamoorthy, M. Jacquelin, W. Ma, M. Klemm, O. Villa,
      Y. Chen, V. Anisimov, F. Aquino, S. Hirata, M. T. Hackler, V. Konjkov,
            D. Mejia-Rodriguez, T. Risthaus, M. Malagoli, A. Marenich,
   A. Otero-de-la-Roza, J. Mullin, P. Nichols, R. Peverati, J. Pittner, Y. Zhao,
        P.-D. Fan, A. Fonari, M. J. Williamson, R. J. Harrison, J. R. Rehr,
      M. Dupuis, D. Silverstein, D. M. A. Smith, J. Nieplocha, V. Tipparaju,
    M. Krishnan, B. E. Van Kuiken, A. Vazquez-Mayagoitia, L. Jensen, M. Swart,
      Q. Wu, T. Van Voorhis, A. A. Auer, M. Nooijen, L. D. Crosby, E. Brown,
      G. Cisneros, G. I. Fann, H. Fruchtl, J. Garza, K. Hirao, R. A. Kendall,
      J. A. Nichols, K. Tsemekhman, K. Wolinski, J. Anchell, D. E. Bernholdt,
      P. Borowski, T. Clark, D. Clerc, H. Dachsel, M. J. O. Deegan, K. Dyall,
    D. Elwood, E. Glendening, M. Gutowski, A. C. Hess, J. Jaffe, B. G. Johnson,
     J. Ju, R. Kobayashi, R. Kutteh, Z. Lin, R. Littlefield, X. Long, B. Meng,
      T. Nakajima, S. Niu, L. Pollack, M. Rosing, K. Glaesemann, G. Sandrone,
      M. Stave, H. Taylor, G. Thomas, J. H. van Lenthe, A. T. Wong, Z. Zhang.

 Total times  cpu:      381.3s     wall:      384.4s
