Gaussian root directory: /projects/academic/jochena/software/gaussian/g09.D01/em64t
Gaussian tag file: using scratch dir = /scratch
 Entering Gaussian System, Link 0=g09
 Initial command:
 /projects/academic/jochena/software/gaussian/g09.D01/em64t/g09/l1.exe "/scratch/Gau-1160.inp" -scrdir="/scratch/"
 Entering Link 1 = /projects/academic/jochena/software/gaussian/g09.D01/em64t/g09/l1.exe PID=      1161.
  
 Copyright (c) 1988,1990,1992,1993,1995,1998,2003,2009,2013,
            Gaussian, Inc.  All Rights Reserved.
  
 This is part of the Gaussian(R) 09 program.  It is based on
 the Gaussian(R) 03 system (copyright 2003, Gaussian, Inc.),
 the Gaussian(R) 98 system (copyright 1998, Gaussian, Inc.),
 the Gaussian(R) 94 system (copyright 1995, Gaussian, Inc.),
 the Gaussian 92(TM) system (copyright 1992, Gaussian, Inc.),
 the Gaussian 90(TM) system (copyright 1990, Gaussian, Inc.),
 the Gaussian 88(TM) system (copyright 1988, Gaussian, Inc.),
 the Gaussian 86(TM) system (copyright 1986, Carnegie Mellon
 University), and the Gaussian 82(TM) system (copyright 1983,
 Carnegie Mellon University). Gaussian is a federally registered
 trademark of Gaussian, Inc.
  
 This software contains proprietary and confidential information,
 including trade secrets, belonging to Gaussian, Inc.
  
 This software is provided under written license and may be
 used, copied, transmitted, or stored only in accord with that
 written license.
  
 The following legend is applicable only to US Government
 contracts under FAR:
  
                    RESTRICTED RIGHTS LEGEND
  
 Use, reproduction and disclosure by the US Government is
 subject to restrictions as set forth in subparagraphs (a)
 and (c) of the Commercial Computer Software - Restricted
 Rights clause in FAR 52.227-19.
  
 Gaussian, Inc.
 340 Quinnipiac St., Bldg. 40, Wallingford CT 06492
  
  
 ---------------------------------------------------------------
 Warning -- This program may not be used in any manner that
 competes with the business of Gaussian, Inc. or will provide
 assistance to any competitor of Gaussian, Inc.  The licensee
 of this program is prohibited from giving any competitor of
 Gaussian, Inc. access to this program.  By using this program,
 the user acknowledges that Gaussian, Inc. is engaged in the
 business of creating and licensing software in the field of
 computational chemistry and represents and warrants to the
 licensee that it is not a competitor of Gaussian, Inc. and that
 it will not use this program in any manner prohibited above.
 ---------------------------------------------------------------
  

 Cite this work as:
 Gaussian 09, Revision D.01,
 M. J. Frisch, G. W. Trucks, H. B. Schlegel, G. E. Scuseria, 
 M. A. Robb, J. R. Cheeseman, G. Scalmani, V. Barone, B. Mennucci, 
 G. A. Petersson, H. Nakatsuji, M. Caricato, X. Li, H. P. Hratchian, 
 A. F. Izmaylov, J. Bloino, G. Zheng, J. L. Sonnenberg, M. Hada, 
 M. Ehara, K. Toyota, R. Fukuda, J. Hasegawa, M. Ishida, T. Nakajima, 
 Y. Honda, O. Kitao, H. Nakai, T. Vreven, J. A. Montgomery, Jr., 
 J. E. Peralta, F. Ogliaro, M. Bearpark, J. J. Heyd, E. Brothers, 
 K. N. Kudin, V. N. Staroverov, T. Keith, R. Kobayashi, J. Normand, 
 K. Raghavachari, A. Rendell, J. C. Burant, S. S. Iyengar, J. Tomasi, 
 M. Cossi, N. Rega, J. M. Millam, M. Klene, J. E. Knox, J. B. Cross, 
 V. Bakken, C. Adamo, J. Jaramillo, R. Gomperts, R. E. Stratmann, 
 O. Yazyev, A. J. Austin, R. Cammi, C. Pomelli, J. W. Ochterski, 
 R. L. Martin, K. Morokuma, V. G. Zakrzewski, G. A. Voth, 
 P. Salvador, J. J. Dannenberg, S. Dapprich, A. D. Daniels, 
 O. Farkas, J. B. Foresman, J. V. Ortiz, J. Cioslowski, 
 and D. J. Fox, Gaussian, Inc., Wallingford CT, 2013.
 
 ******************************************
 Gaussian 09:  EM64L-G09RevD.01 24-Apr-2013
                18-Aug-2016 
 ******************************************
 %Chk=uo2-z.chk
 %NProcShared=8
 Will use up to    8 processors via shared memory.
 %Mem=3GB
 ---------------------------------------------------------------
 #P GFINPUT POP(FULL) HF/genecp SCF=Tight pop=nboread NoSymmetry
 ---------------------------------------------------------------
 1/38=1/1;
 2/12=2,15=1,17=6,18=5,40=1/2;
 3/5=7,11=9,16=1,17=8,24=10,25=1,30=1/1,2,3;
 4//1;
 5/5=2,32=2,38=5/2;
 6/7=3,28=1,40=2/1,7;
 99/5=1,9=1/99;
 Leave Link    1 at Thu Aug 18 11:49:30 2016, MaxMem=   402653184 cpu:         0.5
 (Enter /projects/academic/jochena/software/gaussian/g09.D01/em64t/g09/l101.exe)
 -----
 uo2-z
 -----
 Symbolic Z-matrix:
 Charge =  2 Multiplicity = 1
 U                     0.        0.        0. 
 O                     0.        0.        1.7951 
 O                     0.        0.       -1.7951 
 
 NAtoms=      3 NQM=        3 NQMF=       0 NMMI=      0 NMMIF=      0
                NMic=       0 NMicF=      0.
                    Isotopes and Nuclear Properties:
 (Nuclear quadrupole moments (NQMom) in fm**2, nuclear magnetic moments (NMagM)
  in nuclear magnetons)

  Atom         1           2           3
 IAtWgt=         238          16          16
 AtmWgt= 238.0508000  15.9949146  15.9949146
 NucSpn=           0           0           0
 AtZEff=   0.0000000   0.0000000   0.0000000
 NQMom=    0.0000000   0.0000000   0.0000000
 NMagM=    0.0000000   0.0000000   0.0000000
 AtZNuc=  92.0000000   8.0000000   8.0000000
 Leave Link  101 at Thu Aug 18 11:49:30 2016, MaxMem=   402653184 cpu:         0.5
 (Enter /projects/academic/jochena/software/gaussian/g09.D01/em64t/g09/l202.exe)
                          Input orientation:                          
 ---------------------------------------------------------------------
 Center     Atomic      Atomic             Coordinates (Angstroms)
 Number     Number       Type             X           Y           Z
 ---------------------------------------------------------------------
      1         92           0        0.000000    0.000000    0.000000
      2          8           0        0.000000    0.000000    1.795100
      3          8           0        0.000000    0.000000   -1.795100
 ---------------------------------------------------------------------
                    Distance matrix (angstroms):
                    1          2          3
     1  U    0.000000
     2  O    1.795100   0.000000
     3  O    1.795100   3.590200   0.000000
 Symmetry turned off by external request.
 Stoichiometry    O2U(2+)
 Framework group  D*H[O(U),C*(O.O)]
 Deg. of freedom     1
 Full point group                 D*H     NOp   8
 Rotational constants (GHZ):      0.0000000      4.9026171      4.9026171
 Leave Link  202 at Thu Aug 18 11:49:30 2016, MaxMem=   402653184 cpu:         0.0
 (Enter /projects/academic/jochena/software/gaussian/g09.D01/em64t/g09/l301.exe)
 General basis read from cards:  (5D, 7F)
 Centers:       2      3
 Def2TZVP
 ****
 Centers:       1
 S 4 1.00
     Exponent=  1.2125253000D+01 Coefficients=  2.1921000000D-02
     Exponent=  7.1615450000D+00 Coefficients= -2.2516000000D-01
     Exponent=  4.7748360000D+00 Coefficients=  5.6029900000D-01
     Exponent=  2.0116930000D+00 Coefficients= -1.0712090000D+00
 S 1 1.00
     Exponent=  5.8685200000D-01 Coefficients=  1.0000000000D+00
 S 1 1.00
     Exponent=  2.7911500000D-01 Coefficients=  1.0000000000D+00
 S 1 1.00
     Exponent=  6.3372000000D-02 Coefficients=  1.0000000000D+00
 S 1 1.00
     Exponent=  2.5611000000D-02 Coefficients=  1.0000000000D+00
 P 4 1.00
     Exponent=  1.7254770000D+01 Coefficients=  1.3980000000D-03
     Exponent=  7.7353560000D+00 Coefficients= -3.3346000000D-02
     Exponent=  5.1558780000D+00 Coefficients=  1.1057800000D-01
     Exponent=  2.2416700000D+00 Coefficients= -3.1726800000D-01
 P 1 1.00
     Exponent=  5.8185800000D-01 Coefficients=  1.0000000000D+00
 P 1 1.00
     Exponent=  2.6790800000D-01 Coefficients=  1.0000000000D+00
 P 1 1.00
     Exponent=  8.3442000000D-02 Coefficients=  1.0000000000D+00
 P 1 1.00
     Exponent=  3.2130000000D-02 Coefficients=  1.0000000000D+00
 D 3 1.00
     Exponent=  4.8410700000D+00 Coefficients=  5.7310000000D-03
     Exponent=  2.1601620000D+00 Coefficients= -5.7236000000D-02
     Exponent=  5.7563000000D-01 Coefficients=  2.3882800000D-01
 D 1 1.00
     Exponent=  2.7813600000D-01 Coefficients=  1.0000000000D+00
 D 1 1.00
     Exponent=  1.2487900000D-01 Coefficients=  1.0000000000D+00
 D 1 1.00
     Exponent=  5.1548000000D-02 Coefficients=  1.0000000000D+00
 F 3 1.00
     Exponent=  2.4364410000D+00 Coefficients=  3.5501100000D-01
     Exponent=  1.1446820000D+00 Coefficients=  4.0084600000D-01
     Exponent=  5.2969300000D-01 Coefficients=  3.0467900000D-01
 F 1 1.00
     Exponent=  2.4059600000D-01 Coefficients=  1.0000000000D+00
 F 1 1.00
     Exponent=  1.0186700000D-01 Coefficients=  1.0000000000D+00
 G 1 1.00
     Exponent=  1.1800000000D+00 Coefficients=  1.0000000000D+00
 G 1 1.00
     Exponent=  4.2000000000D-01 Coefficients=  1.0000000000D+00
 ****
 ======================================================================================================
                                       Pseudopotential Parameters
 ======================================================================================================
  Center     Atomic      Valence      Angular      Power
  Number     Number     Electrons     Momentum     of R      Exponent        Coefficient   SO-Coeffient
 ======================================================================================================
    1         92           14
                                      H and up 
                                                     2        1.0000000        0.00000000    0.00000000
                                      S - H
                                                     2        4.0636530      112.92010300    0.00000000
                                                     2        1.8839950       15.64750000    0.00000000
                                                     2        0.8865670       -3.68997100    0.00000000
                                      P - H
                                                     2        3.9861810      118.75801600    0.00000000
                                                     2        2.0001600       15.07722800    0.00000000
                                                     2        0.9608410        0.55672000    0.00000000
                                      D - H
                                                     2        4.1479720       60.85589200    0.00000000
                                                     2        2.2345630       29.28004700    0.00000000
                                                     2        0.9136950        4.99802900    0.00000000
                                      F - H
                                                     2        3.9989380       49.92403500    0.00000000
                                                     2        1.9988400      -24.67404200    0.00000000
                                                     2        0.9956410        1.38948000    0.00000000
                                      G - H
                                                     2        3.8174220      -36.04097700    0.00000000
                                                     2        0.2625010       -0.09051100    0.00000000
    2          8
                                   No pseudopotential on this center.
    3          8
                                   No pseudopotential on this center.
 ======================================================================================================
 Ernie: Thresh=  0.10000D-02 Tol=  0.10000D-05 Strict=F.
 AO basis set in the form of general basis input (Overlap normalization):
      1 0
 S   4 1.00       0.000000000000
      0.1212525300D+02  0.2910151478D-01
      0.7161545000D+01 -0.2989141493D+00
      0.4774836000D+01  0.7438323812D+00
      0.2011693000D+01 -0.1422097739D+01
 S   1 1.00       0.000000000000
      0.5868520000D+00  0.1000000000D+01
 S   1 1.00       0.000000000000
      0.2791150000D+00  0.1000000000D+01
 S   1 1.00       0.000000000000
      0.6337200000D-01  0.1000000000D+01
 S   1 1.00       0.000000000000
      0.2561100000D-01  0.1000000000D+01
 P   4 1.00       0.000000000000
      0.1725477000D+02  0.5549102899D-02
      0.7735356000D+01 -0.1323607906D+00
      0.5155878000D+01  0.4389189559D+00
      0.2241670000D+01 -0.1259336751D+01
 P   1 1.00       0.000000000000
      0.5818580000D+00  0.1000000000D+01
 P   1 1.00       0.000000000000
      0.2679080000D+00  0.1000000000D+01
 P   1 1.00       0.000000000000
      0.8344200000D-01  0.1000000000D+01
 P   1 1.00       0.000000000000
      0.3213000000D-01  0.1000000000D+01
 D   3 1.00       0.000000000000
      0.4841070000D+01  0.2644029417D-01
      0.2160162000D+01 -0.2640615384D+00
      0.5756300000D+00  0.1101846549D+01
 D   1 1.00       0.000000000000
      0.2781360000D+00  0.1000000000D+01
 D   1 1.00       0.000000000000
      0.1248790000D+00  0.1000000000D+01
 D   1 1.00       0.000000000000
      0.5154800000D-01  0.1000000000D+01
 F   3 1.00       0.000000000000
      0.2436441000D+01  0.3899079750D+00
      0.1144682000D+01  0.4402484772D+00
      0.5296930000D+00  0.3346284254D+00
 F   1 1.00       0.000000000000
      0.2405960000D+00  0.1000000000D+01
 F   1 1.00       0.000000000000
      0.1018670000D+00  0.1000000000D+01
 G   1 1.00       0.000000000000
      0.1180000000D+01  0.1000000000D+01
 G   1 1.00       0.000000000000
      0.4200000000D+00  0.1000000000D+01
 ****
      2 0
 S   6 1.00       0.000000000000
      0.2703238263D+05  0.5722733521D-03
      0.4052387139D+04  0.4435323349D-02
      0.9223272271D+03  0.2302010771D-01
      0.2612407099D+03  0.9282249067D-01
      0.8535464135D+02  0.2937850001D+00
      0.3103503525D+02  0.6740160450D+00
 S   2 1.00       0.000000000000
      0.1226086073D+02  0.6383993703D+00
      0.4998707601D+01  0.3953458713D+00
 S   1 1.00       0.000000000000
      0.1170310816D+01  0.1000000000D+01
 S   1 1.00       0.000000000000
      0.4647474099D+00  0.1000000000D+01
 S   1 1.00       0.000000000000
      0.1850453636D+00  0.1000000000D+01
 P   4 1.00       0.000000000000
      0.6327495480D+02  0.1201833222D-01
      0.1462704938D+02  0.8300542179D-01
      0.4450122346D+01  0.3199174393D+00
      0.1527579965D+01  0.7071554292D+00
 P   1 1.00       0.000000000000
      0.5293511794D+00  0.1000000000D+01
 P   1 1.00       0.000000000000
      0.1747842127D+00  0.1000000000D+01
 D   1 1.00       0.000000000000
      0.2314000000D+01  0.1000000000D+01
 D   1 1.00       0.000000000000
      0.6450000000D+00  0.1000000000D+01
 F   1 1.00       0.000000000000
      0.1428000000D+01  0.1000000000D+01
 ****
      3 0
 S   6 1.00       0.000000000000
      0.2703238263D+05  0.5722733521D-03
      0.4052387139D+04  0.4435323349D-02
      0.9223272271D+03  0.2302010771D-01
      0.2612407099D+03  0.9282249067D-01
      0.8535464135D+02  0.2937850001D+00
      0.3103503525D+02  0.6740160450D+00
 S   2 1.00       0.000000000000
      0.1226086073D+02  0.6383993703D+00
      0.4998707601D+01  0.3953458713D+00
 S   1 1.00       0.000000000000
      0.1170310816D+01  0.1000000000D+01
 S   1 1.00       0.000000000000
      0.4647474099D+00  0.1000000000D+01
 S   1 1.00       0.000000000000
      0.1850453636D+00  0.1000000000D+01
 P   4 1.00       0.000000000000
      0.6327495480D+02  0.1201833222D-01
      0.1462704938D+02  0.8300542179D-01
      0.4450122346D+01  0.3199174393D+00
      0.1527579965D+01  0.7071554292D+00
 P   1 1.00       0.000000000000
      0.5293511794D+00  0.1000000000D+01
 P   1 1.00       0.000000000000
      0.1747842127D+00  0.1000000000D+01
 D   1 1.00       0.000000000000
      0.2314000000D+01  0.1000000000D+01
 D   1 1.00       0.000000000000
      0.6450000000D+00  0.1000000000D+01
 F   1 1.00       0.000000000000
      0.1428000000D+01  0.1000000000D+01
 ****

   141 basis functions,   250 primitive gaussians,   176 cartesian basis functions
    14 alpha electrons       14 beta electrons
       nuclear repulsion energy        75.4661943062 Hartrees.
 IExCor=    0 DFT=F Ex=HF Corr=None ExCW=0 ScaHFX=  1.000000
 ScaDFX=  1.000000  1.000000  1.000000  1.000000 ScalE2=  1.000000  1.000000
 IRadAn=      0 IRanWt=     -1 IRanGd=            0 ICorTp=0 IEmpDi=  4
 NAtoms=    3 NActive=    3 NUniq=    3 SFac= 1.00D+00 NAtFMM=   60 NAOKFM=F Big=F
 Integral buffers will be    131072 words long.
 Raffenetti 1 integral format.
 Two-electron integral symmetry is turned off.
 Leave Link  301 at Thu Aug 18 11:49:31 2016, MaxMem=   402653184 cpu:         0.8
 (Enter /projects/academic/jochena/software/gaussian/g09.D01/em64t/g09/l302.exe)
 NPDir=0 NMtPBC=     1 NCelOv=     1 NCel=       1 NClECP=     1 NCelD=      1
         NCelK=      1 NCelE2=     1 NClLst=     1 CellRange=     0.0.
 One-electron integrals computed using PRISM.
   1 Symmetry operations used in ECPInt.
 ECPInt:  NShTT=     861 NPrTT=    2477 LenC2=     850 LenP2D=    2214.
 LDataN:  DoStor=T MaxTD1= 9 Len=  602
 NBasis=   141 RedAO= T EigKep=  1.38D-03  NBF=   141
 NBsUse=   141 1.00D-06 EigRej= -1.00D+00 NBFU=   141
 Leave Link  302 at Thu Aug 18 11:49:32 2016, MaxMem=   402653184 cpu:         7.9
 (Enter /projects/academic/jochena/software/gaussian/g09.D01/em64t/g09/l303.exe)
 DipDrv:  MaxL=1.
 Leave Link  303 at Thu Aug 18 11:49:32 2016, MaxMem=   402653184 cpu:         0.2
 (Enter /projects/academic/jochena/software/gaussian/g09.D01/em64t/g09/l401.exe)
 ExpMin= 2.56D-02 ExpMax= 2.70D+04 ExpMxC= 9.22D+02 IAcc=3 IRadAn=         5 AccDes= 0.00D+00
 Harris functional with IExCor=  205 and IRadAn=       5 diagonalized for initial guess.
 HarFok:  IExCor=  205 AccDes= 0.00D+00 IRadAn=         5 IDoV= 1 UseB2=F ITyADJ=14
 ICtDFT=  3500011 ScaDFX=  1.000000  1.000000  1.000000  1.000000
 Defaulting to unpruned grid for atomic number  92.
 Defaulting to unpruned grid for atomic number  92.
 Defaulting to unpruned grid for atomic number  92.
 Defaulting to unpruned grid for atomic number  92.
 Defaulting to unpruned grid for atomic number  92.
 Defaulting to unpruned grid for atomic number  92.
 Defaulting to unpruned grid for atomic number  92.
 Defaulting to unpruned grid for atomic number  92.
 FoFCou: FMM=F IPFlag=           0 FMFlag=      100000 FMFlg1=           0
         NFxFlg=           0 DoJE=T BraDBF=F KetDBF=T FulRan=T
         wScrn=  0.000000 ICntrl=     500 IOpCl=  0 I1Cent=   200000004 NGrid=           0
         NMat0=    1 NMatS0=      1 NMatT0=    0 NMatD0=    1 NMtDS0=    0 NMtDT0=    0
 Symmetry not used in FoFCou.
 Harris En= -201.728675193286    
 JPrj=0 DoOrth=F DoCkMO=F.
 Leave Link  401 at Thu Aug 18 11:49:32 2016, MaxMem=   402653184 cpu:         3.1
 (Enter /projects/academic/jochena/software/gaussian/g09.D01/em64t/g09/l502.exe)
 Closed shell SCF:
 Using DIIS extrapolation, IDIIS=  1040.
 Two-electron integral symmetry not used.
 Keep R1 ints in memory in canonical form, NReq=54786207.
 IVT=      113948 IEndB=      113948 NGot=   402653184 MDV=   352424171
 LenX=   352424171 LenY=   352392754
 Requested convergence on RMS density matrix=1.00D-08 within 128 cycles.
 Requested convergence on MAX density matrix=1.00D-06.
 Requested convergence on             energy=1.00D-06.
 No special actions if energy rises.
 FoFCou: FMM=F IPFlag=           0 FMFlag=           0 FMFlg1=           0
         NFxFlg=           0 DoJE=F BraDBF=F KetDBF=F FulRan=T
         wScrn=  0.000000 ICntrl=     600 IOpCl=  0 I1Cent=           0 NGrid=           0
         NMat0=    1 NMatS0=  10011 NMatT0=    0 NMatD0=    1 NMtDS0=    0 NMtDT0=    0
 Symmetry not used in FoFCou.

 Cycle   1  Pass 1  IDiag  1:
 E= -198.147106812716    
 DIIS: error= 1.46D-01 at cycle   1 NSaved=   1.
 NSaved= 1 IEnMin= 1 EnMin= -198.147106812716     IErMin= 1 ErrMin= 1.46D-01
 ErrMax= 1.46D-01  0.00D+00 EMaxC= 1.00D-01 BMatC= 1.77D+00 BMatP= 1.77D+00
 IDIUse=3 WtCom= 0.00D+00 WtEn= 1.00D+00
 Coeff-Com:  0.100D+01
 Coeff-En:   0.100D+01
 Coeff:      0.100D+01
 Gap=     0.550 Goal=   None    Shift=    0.000
 GapD=    0.550 DampG=2.000 DampE=0.125 DampFc=0.2500 IDamp=-1.
 Damping current iteration by 2.50D-01
 RMSDP=2.08D-02 MaxDP=9.78D-01              OVMax= 1.00D+00

 Cycle   2  Pass 1  IDiag  1:
 E= -197.818839215872     Delta-E=        0.328267596844 Rises=F Damp=T
 DIIS: error= 4.07D-02 at cycle   2 NSaved=   2.
 NSaved= 2 IEnMin= 1 EnMin= -198.147106812716     IErMin= 2 ErrMin= 4.07D-02
 ErrMax= 4.07D-02  0.00D+00 EMaxC= 1.00D-01 BMatC= 1.70D-01 BMatP= 1.77D+00
 IDIUse=3 WtCom= 5.93D-01 WtEn= 4.07D-01
 Coeff-Com:  0.146D-01 0.985D+00
 Coeff-En:   0.603D+00 0.397D+00
 Coeff:      0.254D+00 0.746D+00
 Gap=     0.116 Goal=   None    Shift=    0.000
 RMSDP=4.33D-03 MaxDP=2.45D-01 DE= 3.28D-01 OVMax= 1.00D+00

 Cycle   3  Pass 1  IDiag  1:
 E= -199.474353819458     Delta-E=       -1.655514603586 Rises=F Damp=F
 DIIS: error= 3.60D-02 at cycle   3 NSaved=   3.
 NSaved= 3 IEnMin= 3 EnMin= -199.474353819458     IErMin= 3 ErrMin= 3.60D-02
 ErrMax= 3.60D-02  0.00D+00 EMaxC= 1.00D-01 BMatC= 1.30D-01 BMatP= 1.70D-01
 IDIUse=3 WtCom= 6.40D-01 WtEn= 3.60D-01
 Coeff-Com: -0.186D+00 0.392D+00 0.794D+00
 Coeff-En:   0.000D+00 0.000D+00 0.100D+01
 Coeff:     -0.119D+00 0.251D+00 0.868D+00
 Gap=     0.516 Goal=   None    Shift=    0.000
 RMSDP=2.60D-03 MaxDP=1.62D-01 DE=-1.66D+00 OVMax= 9.04D-02

 Cycle   4  Pass 1  IDiag  1:
 E= -199.594322365208     Delta-E=       -0.119968545749 Rises=F Damp=F
 DIIS: error= 1.17D-02 at cycle   4 NSaved=   4.
 NSaved= 4 IEnMin= 4 EnMin= -199.594322365208     IErMin= 4 ErrMin= 1.17D-02
 ErrMax= 1.17D-02  0.00D+00 EMaxC= 1.00D-01 BMatC= 9.01D-03 BMatP= 1.30D-01
 IDIUse=3 WtCom= 8.83D-01 WtEn= 1.17D-01
 Coeff-Com: -0.307D-01 0.436D-01-0.159D+00 0.115D+01
 Coeff-En:   0.000D+00 0.000D+00 0.000D+00 0.100D+01
 Coeff:     -0.271D-01 0.385D-01-0.141D+00 0.113D+01
 Gap=     0.589 Goal=   None    Shift=    0.000
 RMSDP=6.43D-04 MaxDP=3.85D-02 DE=-1.20D-01 OVMax= 3.49D-02

 Cycle   5  Pass 1  IDiag  1:
 E= -199.605173846067     Delta-E=       -0.010851480859 Rises=F Damp=F
 DIIS: error= 4.06D-03 at cycle   5 NSaved=   5.
 NSaved= 5 IEnMin= 5 EnMin= -199.605173846067     IErMin= 5 ErrMin= 4.06D-03
 ErrMax= 4.06D-03  0.00D+00 EMaxC= 1.00D-01 BMatC= 1.04D-03 BMatP= 9.01D-03
 IDIUse=3 WtCom= 9.59D-01 WtEn= 4.06D-02
 Coeff-Com:  0.236D-02 0.271D-02-0.437D-01-0.262D+00 0.130D+01
 Coeff-En:   0.000D+00 0.000D+00 0.000D+00 0.000D+00 0.100D+01
 Coeff:      0.226D-02 0.260D-02-0.419D-01-0.251D+00 0.129D+01
 Gap=     0.593 Goal=   None    Shift=    0.000
 RMSDP=3.10D-04 MaxDP=2.51D-02 DE=-1.09D-02 OVMax= 2.31D-02

 Cycle   6  Pass 1  IDiag  1:
 E= -199.606953728885     Delta-E=       -0.001779882818 Rises=F Damp=F
 DIIS: error= 1.32D-03 at cycle   6 NSaved=   6.
 NSaved= 6 IEnMin= 6 EnMin= -199.606953728885     IErMin= 6 ErrMin= 1.32D-03
 ErrMax= 1.32D-03  0.00D+00 EMaxC= 1.00D-01 BMatC= 5.34D-05 BMatP= 1.04D-03
 IDIUse=3 WtCom= 9.87D-01 WtEn= 1.32D-02
 Coeff-Com: -0.234D-03 0.117D-03 0.222D-01-0.528D-01-0.204D+00 0.123D+01
 Coeff-En:   0.000D+00 0.000D+00 0.000D+00 0.000D+00 0.000D+00 0.100D+01
 Coeff:     -0.231D-03 0.115D-03 0.219D-01-0.521D-01-0.201D+00 0.123D+01
 Gap=     0.593 Goal=   None    Shift=    0.000
 RMSDP=1.12D-04 MaxDP=9.50D-03 DE=-1.78D-03 OVMax= 9.25D-03

 Cycle   7  Pass 1  IDiag  1:
 E= -199.607185320346     Delta-E=       -0.000231591462 Rises=F Damp=F
 DIIS: error= 7.66D-04 at cycle   7 NSaved=   7.
 NSaved= 7 IEnMin= 7 EnMin= -199.607185320346     IErMin= 7 ErrMin= 7.66D-04
 ErrMax= 7.66D-04  0.00D+00 EMaxC= 1.00D-01 BMatC= 1.63D-05 BMatP= 5.34D-05
 IDIUse=3 WtCom= 9.92D-01 WtEn= 7.66D-03
 Coeff-Com: -0.291D-02 0.344D-02-0.555D-02 0.663D-01-0.424D-01-0.973D+00
 Coeff-Com:  0.195D+01
 Coeff-En:   0.000D+00 0.000D+00 0.000D+00 0.000D+00 0.000D+00 0.000D+00
 Coeff-En:   0.100D+01
 Coeff:     -0.289D-02 0.341D-02-0.551D-02 0.657D-01-0.421D-01-0.966D+00
 Coeff:      0.195D+01
 Gap=     0.593 Goal=   None    Shift=    0.000
 RMSDP=9.52D-05 MaxDP=7.06D-03 DE=-2.32D-04 OVMax= 7.47D-03

 Cycle   8  Pass 1  IDiag  1:
 E= -199.607269531340     Delta-E=       -0.000084210994 Rises=F Damp=F
 DIIS: error= 6.45D-04 at cycle   8 NSaved=   8.
 NSaved= 8 IEnMin= 8 EnMin= -199.607269531340     IErMin= 8 ErrMin= 6.45D-04
 ErrMax= 6.45D-04  0.00D+00 EMaxC= 1.00D-01 BMatC= 1.86D-05 BMatP= 1.63D-05
 IDIUse=3 WtCom= 9.92D-01 WtEn= 7.66D-03
 Coeff-Com: -0.256D-02 0.355D-02-0.472D-02-0.675D-02 0.275D-01 0.660D-01
 Coeff-Com: -0.346D+00 0.126D+01
 Coeff-En:   0.000D+00 0.000D+00 0.000D+00 0.000D+00 0.000D+00 0.000D+00
 Coeff-En:   0.000D+00 0.100D+01
 Coeff:     -0.254D-02 0.353D-02-0.468D-02-0.670D-02 0.273D-01 0.655D-01
 Coeff:     -0.344D+00 0.126D+01
 Gap=     0.593 Goal=   None    Shift=    0.000
 RMSDP=2.26D-05 MaxDP=1.62D-03 DE=-8.42D-05 OVMax= 1.76D-03

 Cycle   9  Pass 1  IDiag  1:
 E= -199.607279016831     Delta-E=       -0.000009485491 Rises=F Damp=F
 DIIS: error= 4.87D-04 at cycle   9 NSaved=   9.
 NSaved= 9 IEnMin= 9 EnMin= -199.607279016831     IErMin= 9 ErrMin= 4.87D-04
 ErrMax= 4.87D-04  0.00D+00 EMaxC= 1.00D-01 BMatC= 1.36D-05 BMatP= 1.63D-05
 IDIUse=3 WtCom= 9.95D-01 WtEn= 4.87D-03
 Coeff-Com: -0.702D-03 0.113D-02 0.182D-02 0.121D-01-0.739D-01-0.930D-01
 Coeff-Com:  0.718D+00-0.252D+01 0.295D+01
 Coeff-En:   0.000D+00 0.000D+00 0.000D+00 0.000D+00 0.000D+00 0.000D+00
 Coeff-En:   0.000D+00 0.000D+00 0.100D+01
 Coeff:     -0.699D-03 0.113D-02 0.181D-02 0.120D-01-0.736D-01-0.925D-01
 Coeff:      0.714D+00-0.251D+01 0.294D+01
 Gap=     0.593 Goal=   None    Shift=    0.000
 RMSDP=2.13D-05 MaxDP=1.47D-03 DE=-9.49D-06 OVMax= 1.48D-03

 Cycle  10  Pass 1  IDiag  1:
 E= -199.607289895956     Delta-E=       -0.000010879126 Rises=F Damp=F
 DIIS: error= 1.22D-04 at cycle  10 NSaved=  10.
 NSaved=10 IEnMin=10 EnMin= -199.607289895956     IErMin=10 ErrMin= 1.22D-04
 ErrMax= 1.22D-04  0.00D+00 EMaxC= 1.00D-01 BMatC= 8.94D-07 BMatP= 1.36D-05
 IDIUse=3 WtCom= 9.99D-01 WtEn= 1.22D-03
 Coeff-Com:  0.276D-05 0.621D-04-0.987D-03-0.157D-02 0.169D-01-0.316D-02
 Coeff-Com: -0.119D+00 0.674D+00-0.110D+01 0.154D+01
 Coeff-En:   0.000D+00 0.000D+00 0.000D+00 0.000D+00 0.000D+00 0.000D+00
 Coeff-En:   0.000D+00 0.000D+00 0.000D+00 0.100D+01
 Coeff:      0.275D-05 0.620D-04-0.986D-03-0.156D-02 0.169D-01-0.316D-02
 Coeff:     -0.118D+00 0.673D+00-0.110D+01 0.154D+01
 Gap=     0.593 Goal=   None    Shift=    0.000
 RMSDP=5.90D-06 MaxDP=3.53D-04 DE=-1.09D-05 OVMax= 3.38D-04

 Cycle  11  Pass 1  IDiag  1:
 E= -199.607290658283     Delta-E=       -0.000000762327 Rises=F Damp=F
 DIIS: error= 9.37D-06 at cycle  11 NSaved=  11.
 NSaved=11 IEnMin=11 EnMin= -199.607290658283     IErMin=11 ErrMin= 9.37D-06
 ErrMax= 9.37D-06  0.00D+00 EMaxC= 1.00D-01 BMatC= 4.24D-09 BMatP= 8.94D-07
 IDIUse=1 WtCom= 1.00D+00 WtEn= 0.00D+00
 Coeff-Com: -0.235D-04 0.291D-05 0.271D-03-0.785D-04-0.295D-02 0.153D-02
 Coeff-Com:  0.210D-01-0.137D+00 0.255D+00-0.484D+00 0.135D+01
 Coeff:     -0.235D-04 0.291D-05 0.271D-03-0.785D-04-0.295D-02 0.153D-02
 Coeff:      0.210D-01-0.137D+00 0.255D+00-0.484D+00 0.135D+01
 Gap=     0.593 Goal=   None    Shift=    0.000
 RMSDP=6.40D-07 MaxDP=2.71D-05 DE=-7.62D-07 OVMax= 3.79D-05

 Cycle  12  Pass 1  IDiag  1:
 E= -199.607290663692     Delta-E=       -0.000000005409 Rises=F Damp=F
 DIIS: error= 8.41D-07 at cycle  12 NSaved=  12.
 NSaved=12 IEnMin=12 EnMin= -199.607290663692     IErMin=12 ErrMin= 8.41D-07
 ErrMax= 8.41D-07  0.00D+00 EMaxC= 1.00D-01 BMatC= 4.33D-11 BMatP= 4.24D-09
 IDIUse=1 WtCom= 1.00D+00 WtEn= 0.00D+00
 Coeff-Com:  0.246D-05 0.195D-05-0.508D-04 0.803D-04 0.345D-03-0.534D-03
 Coeff-Com: -0.194D-02 0.192D-01-0.391D-01 0.840D-01-0.327D+00 0.126D+01
 Coeff:      0.246D-05 0.195D-05-0.508D-04 0.803D-04 0.345D-03-0.534D-03
 Coeff:     -0.194D-02 0.192D-01-0.391D-01 0.840D-01-0.327D+00 0.126D+01
 Gap=     0.593 Goal=   None    Shift=    0.000
 RMSDP=1.04D-07 MaxDP=7.01D-06 DE=-5.41D-09 OVMax= 5.66D-06

 Cycle  13  Pass 1  IDiag  1:
 E= -199.607290663784     Delta-E=       -0.000000000091 Rises=F Damp=F
 DIIS: error= 3.90D-07 at cycle  13 NSaved=  13.
 NSaved=13 IEnMin=13 EnMin= -199.607290663784     IErMin=13 ErrMin= 3.90D-07
 ErrMax= 3.90D-07  0.00D+00 EMaxC= 1.00D-01 BMatC= 9.03D-12 BMatP= 4.33D-11
 IDIUse=1 WtCom= 1.00D+00 WtEn= 0.00D+00
 Coeff-Com: -0.106D-05-0.621D-07 0.113D-04-0.246D-04-0.579D-04 0.228D-03
 Coeff-Com: -0.110D-03-0.232D-02 0.545D-02-0.169D-01 0.856D-01-0.562D+00
 Coeff-Com:  0.149D+01
 Coeff:     -0.106D-05-0.621D-07 0.113D-04-0.246D-04-0.579D-04 0.228D-03
 Coeff:     -0.110D-03-0.232D-02 0.545D-02-0.169D-01 0.856D-01-0.562D+00
 Coeff:      0.149D+01
 Gap=     0.593 Goal=   None    Shift=    0.000
 RMSDP=3.28D-08 MaxDP=1.99D-06 DE=-9.14D-11 OVMax= 1.83D-06

 Cycle  14  Pass 1  IDiag  1:
 E= -199.607290663796     Delta-E=       -0.000000000012 Rises=F Damp=F
 DIIS: error= 5.28D-08 at cycle  14 NSaved=  14.
 NSaved=14 IEnMin=14 EnMin= -199.607290663796     IErMin=14 ErrMin= 5.28D-08
 ErrMax= 5.28D-08  0.00D+00 EMaxC= 1.00D-01 BMatC= 1.12D-13 BMatP= 9.03D-12
 IDIUse=1 WtCom= 1.00D+00 WtEn= 0.00D+00
 Coeff-Com:  0.198D-06-0.302D-07-0.144D-05 0.475D-05 0.611D-05-0.689D-04
 Coeff-Com:  0.163D-03-0.191D-03 0.171D-03 0.156D-02-0.132D-01 0.150D+00
 Coeff-Com: -0.633D+00 0.149D+01
 Coeff:      0.198D-06-0.302D-07-0.144D-05 0.475D-05 0.611D-05-0.689D-04
 Coeff:      0.163D-03-0.191D-03 0.171D-03 0.156D-02-0.132D-01 0.150D+00
 Coeff:     -0.633D+00 0.149D+01
 Gap=     0.593 Goal=   None    Shift=    0.000
 RMSDP=6.65D-09 MaxDP=2.04D-07 DE=-1.21D-11 OVMax= 6.16D-07

 SCF Done:  E(RHF) =  -199.607290664     A.U. after   14 cycles
            NFock= 14  Conv=0.66D-08     -V/T= 2.1860
 KE= 1.683049545567D+02 PE=-5.983597585163D+02 EE= 1.549813189896D+02
 Leave Link  502 at Thu Aug 18 11:49:37 2016, MaxMem=   402653184 cpu:        25.4
 (Enter /projects/academic/jochena/software/gaussian/g09.D01/em64t/g09/l601.exe)
 Copying SCF densities to generalized density rwf, IOpCl= 0 IROHF=0.

 **********************************************************************

            Population analysis using the SCF density.

 **********************************************************************

 Alpha  occ. eigenvalues --  -21.10832 -21.10830  -2.93884  -2.02042  -1.77038
 Alpha  occ. eigenvalues --   -1.72744  -1.72744  -1.45860  -1.04047  -1.04047
 Alpha  occ. eigenvalues --   -1.03301  -1.02998  -1.02120  -1.02120
 Alpha virt. eigenvalues --   -0.42859  -0.42510  -0.42510  -0.41864  -0.41864
 Alpha virt. eigenvalues --   -0.41182  -0.41182  -0.38337  -0.38337  -0.27539
 Alpha virt. eigenvalues --   -0.27539  -0.25523  -0.24636  -0.24636  -0.21489
 Alpha virt. eigenvalues --   -0.19575  -0.14392  -0.14392  -0.13952  -0.13952
 Alpha virt. eigenvalues --   -0.11450  -0.10083  -0.10083  -0.05845  -0.02552
 Alpha virt. eigenvalues --   -0.02552  -0.01678  -0.01678   0.03425   0.08080
 Alpha virt. eigenvalues --    0.08080   0.10861   0.23957   0.26139   0.26140
 Alpha virt. eigenvalues --    0.27771   0.27771   0.38801   0.38801   0.39508
 Alpha virt. eigenvalues --    0.42210   0.48855   0.48855   0.50592   0.59557
 Alpha virt. eigenvalues --    0.59557   0.59690   0.59690   0.60582   0.71397
 Alpha virt. eigenvalues --    0.71397   0.83199   0.83199   0.86588   0.88610
 Alpha virt. eigenvalues --    0.88610   0.96035   1.03146   1.03146   1.04937
 Alpha virt. eigenvalues --    1.04937   1.13799   1.13799   1.39432   1.39432
 Alpha virt. eigenvalues --    1.47833   1.60827   1.60827   1.64955   1.85688
 Alpha virt. eigenvalues --    1.85688   1.88135   1.99246   1.99246   2.03031
 Alpha virt. eigenvalues --    2.42757   2.42757   2.50860   2.50860   2.83226
 Alpha virt. eigenvalues --    2.83226   2.84762   2.93033   3.04762   3.04762
 Alpha virt. eigenvalues --    3.12252   3.33747   3.33747   3.33951   3.33951
 Alpha virt. eigenvalues --    3.41408   3.41408   3.59113   3.83444   3.92652
 Alpha virt. eigenvalues --    3.92652   5.06190   5.06190   5.06624   5.06624
 Alpha virt. eigenvalues --    5.08007   5.08007   5.08212   5.08212   5.11438
 Alpha virt. eigenvalues --    5.24240   5.24240   5.44633   5.44633   5.49958
 Alpha virt. eigenvalues --    6.15908   6.28737   6.28737   6.33416   6.33416
 Alpha virt. eigenvalues --    6.62014   6.62014   6.71903   6.91649   6.91649
 Alpha virt. eigenvalues --    6.99457  19.34510  19.34510  20.05287  23.13456
 Alpha virt. eigenvalues --   44.88129  44.93736
     Molecular Orbital Coefficients:
                           1         2         3         4         5
                           O         O         O         O         O
     Eigenvalues --   -21.10832 -21.10830  -2.93884  -2.02042  -1.77038
   1 1   U  1S         -0.00052   0.00000   0.77648   0.00000  -0.20201
   2        2S         -0.00264   0.00000   1.09469   0.00000  -0.34699
   3        3S          0.00282   0.00000   0.37829   0.00000  -0.03860
   4        4S         -0.00346   0.00000   0.00344   0.00000  -0.01018
   5        5S          0.00059   0.00000  -0.00018   0.00000   0.00277
   6        6PX         0.00000   0.00000   0.00000   0.00000   0.00000
   7        6PY         0.00000   0.00000   0.00000   0.00000   0.00000
   8        6PZ         0.00000  -0.00003   0.00000   0.16337   0.00000
   9        7PX         0.00000   0.00000   0.00000   0.00000   0.00000
  10        7PY         0.00000   0.00000   0.00000   0.00000   0.00000
  11        7PZ         0.00000  -0.00095   0.00000   0.40154   0.00000
  12        8PX         0.00000   0.00000   0.00000   0.00000   0.00000
  13        8PY         0.00000   0.00000   0.00000   0.00000   0.00000
  14        8PZ         0.00000   0.00205   0.00000   0.24904   0.00000
  15        9PX         0.00000   0.00000   0.00000   0.00000   0.00000
  16        9PY         0.00000   0.00000   0.00000   0.00000   0.00000
  17        9PZ         0.00000  -0.00414   0.00000  -0.00111   0.00000
  18       10PX         0.00000   0.00000   0.00000   0.00000   0.00000
  19       10PY         0.00000   0.00000   0.00000   0.00000   0.00000
  20       10PZ         0.00000   0.00030   0.00000   0.00028   0.00000
  21       11D 0       -0.00043   0.00000  -0.00854   0.00000   0.06447
  22       11D+1        0.00000   0.00000   0.00000   0.00000   0.00000
  23       11D-1        0.00000   0.00000   0.00000   0.00000   0.00000
  24       11D+2        0.00000   0.00000   0.00000   0.00000   0.00000
  25       11D-2        0.00000   0.00000   0.00000   0.00000   0.00000
  26       12D 0        0.00311   0.00000  -0.02678   0.00000   0.09337
  27       12D+1        0.00000   0.00000   0.00000   0.00000   0.00000
  28       12D-1        0.00000   0.00000   0.00000   0.00000   0.00000
  29       12D+2        0.00000   0.00000   0.00000   0.00000   0.00000
  30       12D-2        0.00000   0.00000   0.00000   0.00000   0.00000
  31       13D 0       -0.00233   0.00000   0.00785   0.00000  -0.00582
  32       13D+1        0.00000   0.00000   0.00000   0.00000   0.00000
  33       13D-1        0.00000   0.00000   0.00000   0.00000   0.00000
  34       13D+2        0.00000   0.00000   0.00000   0.00000   0.00000
  35       13D-2        0.00000   0.00000   0.00000   0.00000   0.00000
  36       14D 0       -0.00006   0.00000  -0.00180   0.00000   0.00130
  37       14D+1        0.00000   0.00000   0.00000   0.00000   0.00000
  38       14D-1        0.00000   0.00000   0.00000   0.00000   0.00000
  39       14D+2        0.00000   0.00000   0.00000   0.00000   0.00000
  40       14D-2        0.00000   0.00000   0.00000   0.00000   0.00000
  41       15F 0        0.00000   0.00027   0.00000   0.04926   0.00000
  42       15F+1        0.00000   0.00000   0.00000   0.00000   0.00000
  43       15F-1        0.00000   0.00000   0.00000   0.00000   0.00000
  44       15F+2        0.00000   0.00000   0.00000   0.00000   0.00000
  45       15F-2        0.00000   0.00000   0.00000   0.00000   0.00000
  46       15F+3        0.00000   0.00000   0.00000   0.00000   0.00000
  47       15F-3        0.00000   0.00000   0.00000   0.00000   0.00000
  48       16F 0        0.00000   0.00120   0.00000   0.00699   0.00000
  49       16F+1        0.00000   0.00000   0.00000   0.00000   0.00000
  50       16F-1        0.00000   0.00000   0.00000   0.00000   0.00000
  51       16F+2        0.00000   0.00000   0.00000   0.00000   0.00000
  52       16F-2        0.00000   0.00000   0.00000   0.00000   0.00000
  53       16F+3        0.00000   0.00000   0.00000   0.00000   0.00000
  54       16F-3        0.00000   0.00000   0.00000   0.00000   0.00000
  55       17F 0        0.00000  -0.00135   0.00000  -0.00257   0.00000
  56       17F+1        0.00000   0.00000   0.00000   0.00000   0.00000
  57       17F-1        0.00000   0.00000   0.00000   0.00000   0.00000
  58       17F+2        0.00000   0.00000   0.00000   0.00000   0.00000
  59       17F-2        0.00000   0.00000   0.00000   0.00000   0.00000
  60       17F+3        0.00000   0.00000   0.00000   0.00000   0.00000
  61       17F-3        0.00000   0.00000   0.00000   0.00000   0.00000
  62       18G 0        0.00003   0.00000   0.00014   0.00000   0.00918
  63       18G+1        0.00000   0.00000   0.00000   0.00000   0.00000
  64       18G-1        0.00000   0.00000   0.00000   0.00000   0.00000
  65       18G+2        0.00000   0.00000   0.00000   0.00000   0.00000
  66       18G-2        0.00000   0.00000   0.00000   0.00000   0.00000
  67       18G+3        0.00000   0.00000   0.00000   0.00000   0.00000
  68       18G-3        0.00000   0.00000   0.00000   0.00000   0.00000
  69       18G+4        0.00000   0.00000   0.00000   0.00000   0.00000
  70       18G-4        0.00000   0.00000   0.00000   0.00000   0.00000
  71       19G 0        0.00081   0.00000  -0.00457   0.00000   0.01282
  72       19G+1        0.00000   0.00000   0.00000   0.00000   0.00000
  73       19G-1        0.00000   0.00000   0.00000   0.00000   0.00000
  74       19G+2        0.00000   0.00000   0.00000   0.00000   0.00000
  75       19G-2        0.00000   0.00000   0.00000   0.00000   0.00000
  76       19G+3        0.00000   0.00000   0.00000   0.00000   0.00000
  77       19G-3        0.00000   0.00000   0.00000   0.00000   0.00000
  78       19G+4        0.00000   0.00000   0.00000   0.00000   0.00000
  79       19G-4        0.00000   0.00000   0.00000   0.00000   0.00000
  80 2   O  1S          0.30813   0.30813  -0.00693  -0.04926  -0.07188
  81        2S          0.45429   0.45431  -0.01610  -0.11857  -0.17435
  82        3S          0.01552   0.01539   0.01560   0.16149   0.25086
  83        4S         -0.00761  -0.00740   0.04408   0.24553   0.35543
  84        5S          0.00477   0.00559   0.00241   0.07415   0.13723
  85        6PX         0.00000   0.00000   0.00000   0.00000   0.00000
  86        6PY         0.00000   0.00000   0.00000   0.00000   0.00000
  87        6PZ        -0.00103  -0.00096  -0.01783  -0.06590  -0.03321
  88        7PX         0.00000   0.00000   0.00000   0.00000   0.00000
  89        7PY         0.00000   0.00000   0.00000   0.00000   0.00000
  90        7PZ         0.00170   0.00115  -0.02777  -0.07607  -0.04210
  91        8PX         0.00000   0.00000   0.00000   0.00000   0.00000
  92        8PY         0.00000   0.00000   0.00000   0.00000   0.00000
  93        8PZ        -0.00100  -0.00073  -0.00076  -0.01427  -0.01801
  94        9D 0        0.00011   0.00008   0.00156   0.00358   0.00161
  95        9D+1        0.00000   0.00000   0.00000   0.00000   0.00000
  96        9D-1        0.00000   0.00000   0.00000   0.00000   0.00000
  97        9D+2        0.00000   0.00000   0.00000   0.00000   0.00000
  98        9D-2        0.00000   0.00000   0.00000   0.00000   0.00000
  99       10D 0       -0.00051  -0.00021   0.00940   0.01975   0.00956
 100       10D+1        0.00000   0.00000   0.00000   0.00000   0.00000
 101       10D-1        0.00000   0.00000   0.00000   0.00000   0.00000
 102       10D+2        0.00000   0.00000   0.00000   0.00000   0.00000
 103       10D-2        0.00000   0.00000   0.00000   0.00000   0.00000
 104       11F 0        0.00008   0.00001  -0.00205  -0.00401  -0.00182
 105       11F+1        0.00000   0.00000   0.00000   0.00000   0.00000
 106       11F-1        0.00000   0.00000   0.00000   0.00000   0.00000
 107       11F+2        0.00000   0.00000   0.00000   0.00000   0.00000
 108       11F-2        0.00000   0.00000   0.00000   0.00000   0.00000
 109       11F+3        0.00000   0.00000   0.00000   0.00000   0.00000
 110       11F-3        0.00000   0.00000   0.00000   0.00000   0.00000
 111 3   O  1S          0.30813  -0.30813  -0.00693   0.04926  -0.07188
 112        2S          0.45429  -0.45431  -0.01610   0.11857  -0.17435
 113        3S          0.01552  -0.01539   0.01560  -0.16149   0.25086
 114        4S         -0.00761   0.00740   0.04408  -0.24553   0.35543
 115        5S          0.00477  -0.00559   0.00241  -0.07415   0.13723
 116        6PX         0.00000   0.00000   0.00000   0.00000   0.00000
 117        6PY         0.00000   0.00000   0.00000   0.00000   0.00000
 118        6PZ         0.00103  -0.00096   0.01783  -0.06590   0.03321
 119        7PX         0.00000   0.00000   0.00000   0.00000   0.00000
 120        7PY         0.00000   0.00000   0.00000   0.00000   0.00000
 121        7PZ        -0.00170   0.00115   0.02777  -0.07607   0.04210
 122        8PX         0.00000   0.00000   0.00000   0.00000   0.00000
 123        8PY         0.00000   0.00000   0.00000   0.00000   0.00000
 124        8PZ         0.00100  -0.00073   0.00076  -0.01427   0.01801
 125        9D 0        0.00011  -0.00008   0.00156  -0.00358   0.00161
 126        9D+1        0.00000   0.00000   0.00000   0.00000   0.00000
 127        9D-1        0.00000   0.00000   0.00000   0.00000   0.00000
 128        9D+2        0.00000   0.00000   0.00000   0.00000   0.00000
 129        9D-2        0.00000   0.00000   0.00000   0.00000   0.00000
 130       10D 0       -0.00051   0.00021   0.00940  -0.01975   0.00956
 131       10D+1        0.00000   0.00000   0.00000   0.00000   0.00000
 132       10D-1        0.00000   0.00000   0.00000   0.00000   0.00000
 133       10D+2        0.00000   0.00000   0.00000   0.00000   0.00000
 134       10D-2        0.00000   0.00000   0.00000   0.00000   0.00000
 135       11F 0       -0.00008   0.00001   0.00205  -0.00401   0.00182
 136       11F+1        0.00000   0.00000   0.00000   0.00000   0.00000
 137       11F-1        0.00000   0.00000   0.00000   0.00000   0.00000
 138       11F+2        0.00000   0.00000   0.00000   0.00000   0.00000
 139       11F-2        0.00000   0.00000   0.00000   0.00000   0.00000
 140       11F+3        0.00000   0.00000   0.00000   0.00000   0.00000
 141       11F-3        0.00000   0.00000   0.00000   0.00000   0.00000
                           6         7         8         9        10
                           O         O         O         O         O
     Eigenvalues --    -1.72744  -1.72744  -1.45860  -1.04047  -1.04047
   1 1   U  1S          0.00000   0.00000   0.00000   0.00000   0.00000
   2        2S          0.00000   0.00000   0.00000   0.00000   0.00000
   3        3S          0.00000   0.00000   0.00000   0.00000   0.00000
   4        4S          0.00000   0.00000   0.00000   0.00000   0.00000
   5        5S          0.00000   0.00000   0.00000   0.00000   0.00000
   6        6PX         0.23161  -0.13823   0.00000   0.00000   0.00000
   7        6PY         0.13823   0.23161   0.00000   0.00000   0.00000
   8        6PZ         0.00000   0.00000   0.19642   0.00000   0.00000
   9        7PX         0.58028  -0.34632   0.00000   0.00000   0.00000
  10        7PY         0.34632   0.58028   0.00000   0.00000   0.00000
  11        7PZ         0.00000   0.00000   0.51674   0.00000   0.00000
  12        8PX         0.39633  -0.23654   0.00000   0.00000   0.00000
  13        8PY         0.23654   0.39633   0.00000   0.00000   0.00000
  14        8PZ         0.00000   0.00000   0.31052   0.00000   0.00000
  15        9PX         0.02244  -0.01339   0.00000   0.00000   0.00000
  16        9PY         0.01339   0.02244   0.00000   0.00000   0.00000
  17        9PZ         0.00000   0.00000   0.01094   0.00000   0.00000
  18       10PX        -0.00411   0.00245   0.00000   0.00000   0.00000
  19       10PY        -0.00245  -0.00411   0.00000   0.00000   0.00000
  20       10PZ         0.00000   0.00000  -0.00134   0.00000   0.00000
  21       11D 0        0.00000   0.00000   0.00000   0.00000   0.00000
  22       11D+1        0.00000   0.00000   0.00000   0.06478  -0.05697
  23       11D-1        0.00000   0.00000   0.00000   0.05697   0.06478
  24       11D+2        0.00000   0.00000   0.00000   0.00000   0.00000
  25       11D-2        0.00000   0.00000   0.00000   0.00000   0.00000
  26       12D 0        0.00000   0.00000   0.00000   0.00000   0.00000
  27       12D+1        0.00000   0.00000   0.00000   0.15136  -0.13312
  28       12D-1        0.00000   0.00000   0.00000   0.13312   0.15136
  29       12D+2        0.00000   0.00000   0.00000   0.00000   0.00000
  30       12D-2        0.00000   0.00000   0.00000   0.00000   0.00000
  31       13D 0        0.00000   0.00000   0.00000   0.00000   0.00000
  32       13D+1        0.00000   0.00000   0.00000   0.06562  -0.05771
  33       13D-1        0.00000   0.00000   0.00000   0.05771   0.06562
  34       13D+2        0.00000   0.00000   0.00000   0.00000   0.00000
  35       13D-2        0.00000   0.00000   0.00000   0.00000   0.00000
  36       14D 0        0.00000   0.00000   0.00000   0.00000   0.00000
  37       14D+1        0.00000   0.00000   0.00000  -0.00640   0.00562
  38       14D-1        0.00000   0.00000   0.00000  -0.00562  -0.00640
  39       14D+2        0.00000   0.00000   0.00000   0.00000   0.00000
  40       14D-2        0.00000   0.00000   0.00000   0.00000   0.00000
  41       15F 0        0.00000   0.00000  -0.14582   0.00000   0.00000
  42       15F+1       -0.02130   0.01271   0.00000   0.00000   0.00000
  43       15F-1       -0.01271  -0.02130   0.00000   0.00000   0.00000
  44       15F+2        0.00000   0.00000   0.00000   0.00000   0.00000
  45       15F-2        0.00000   0.00000   0.00000   0.00000   0.00000
  46       15F+3        0.00000   0.00000   0.00000   0.00000   0.00000
  47       15F-3        0.00000   0.00000   0.00000   0.00000   0.00000
  48       16F 0        0.00000   0.00000  -0.03971   0.00000   0.00000
  49       16F+1       -0.00359   0.00214   0.00000   0.00000   0.00000
  50       16F-1       -0.00214  -0.00359   0.00000   0.00000   0.00000
  51       16F+2        0.00000   0.00000   0.00000   0.00000   0.00000
  52       16F-2        0.00000   0.00000   0.00000   0.00000   0.00000
  53       16F+3        0.00000   0.00000   0.00000   0.00000   0.00000
  54       16F-3        0.00000   0.00000   0.00000   0.00000   0.00000
  55       17F 0        0.00000   0.00000   0.00287   0.00000   0.00000
  56       17F+1        0.00023  -0.00014   0.00000   0.00000   0.00000
  57       17F-1        0.00014   0.00023   0.00000   0.00000   0.00000
  58       17F+2        0.00000   0.00000   0.00000   0.00000   0.00000
  59       17F-2        0.00000   0.00000   0.00000   0.00000   0.00000
  60       17F+3        0.00000   0.00000   0.00000   0.00000   0.00000
  61       17F-3        0.00000   0.00000   0.00000   0.00000   0.00000
  62       18G 0        0.00000   0.00000   0.00000   0.00000   0.00000
  63       18G+1        0.00000   0.00000   0.00000   0.00619  -0.00545
  64       18G-1        0.00000   0.00000   0.00000   0.00545   0.00619
  65       18G+2        0.00000   0.00000   0.00000   0.00000   0.00000
  66       18G-2        0.00000   0.00000   0.00000   0.00000   0.00000
  67       18G+3        0.00000   0.00000   0.00000   0.00000   0.00000
  68       18G-3        0.00000   0.00000   0.00000   0.00000   0.00000
  69       18G+4        0.00000   0.00000   0.00000   0.00000   0.00000
  70       18G-4        0.00000   0.00000   0.00000   0.00000   0.00000
  71       19G 0        0.00000   0.00000   0.00000   0.00000   0.00000
  72       19G+1        0.00000   0.00000   0.00000   0.02539  -0.02233
  73       19G-1        0.00000   0.00000   0.00000   0.02233   0.02539
  74       19G+2        0.00000   0.00000   0.00000   0.00000   0.00000
  75       19G-2        0.00000   0.00000   0.00000   0.00000   0.00000
  76       19G+3        0.00000   0.00000   0.00000   0.00000   0.00000
  77       19G-3        0.00000   0.00000   0.00000   0.00000   0.00000
  78       19G+4        0.00000   0.00000   0.00000   0.00000   0.00000
  79       19G-4        0.00000   0.00000   0.00000   0.00000   0.00000
  80 2   O  1S          0.00000   0.00000   0.05652   0.00000   0.00000
  81        2S          0.00000   0.00000   0.13817   0.00000   0.00000
  82        3S          0.00000   0.00000  -0.20947   0.00000   0.00000
  83        4S          0.00000   0.00000  -0.28891   0.00000   0.00000
  84        5S          0.00000   0.00000  -0.14308   0.00000   0.00000
  85        6PX         0.02756  -0.01645   0.00000   0.21605  -0.19001
  86        6PY         0.01645   0.02756   0.00000   0.19001   0.21605
  87        6PZ         0.00000   0.00000  -0.09041   0.00000   0.00000
  88        7PX         0.02611  -0.01558   0.00000   0.20260  -0.17818
  89        7PY         0.01558   0.02611   0.00000   0.17818   0.20260
  90        7PZ         0.00000   0.00000  -0.07224   0.00000   0.00000
  91        8PX         0.00610  -0.00364   0.00000   0.09473  -0.08331
  92        8PY         0.00364   0.00610   0.00000   0.08331   0.09473
  93        8PZ         0.00000   0.00000  -0.01089   0.00000   0.00000
  94        9D 0        0.00000   0.00000   0.00347   0.00000   0.00000
  95        9D+1       -0.00162   0.00097   0.00000  -0.00380   0.00334
  96        9D-1       -0.00097  -0.00162   0.00000  -0.00334  -0.00380
  97        9D+2        0.00000   0.00000   0.00000   0.00000   0.00000
  98        9D-2        0.00000   0.00000   0.00000   0.00000   0.00000
  99       10D 0        0.00000   0.00000   0.00795   0.00000   0.00000
 100       10D+1       -0.00614   0.00367   0.00000  -0.01934   0.01701
 101       10D-1       -0.00367  -0.00614   0.00000  -0.01701  -0.01934
 102       10D+2        0.00000   0.00000   0.00000   0.00000   0.00000
 103       10D-2        0.00000   0.00000   0.00000   0.00000   0.00000
 104       11F 0        0.00000   0.00000  -0.00131   0.00000   0.00000
 105       11F+1        0.00141  -0.00084   0.00000   0.00262  -0.00230
 106       11F-1        0.00084   0.00141   0.00000   0.00230   0.00262
 107       11F+2        0.00000   0.00000   0.00000   0.00000   0.00000
 108       11F-2        0.00000   0.00000   0.00000   0.00000   0.00000
 109       11F+3        0.00000   0.00000   0.00000   0.00000   0.00000
 110       11F-3        0.00000   0.00000   0.00000   0.00000   0.00000
 111 3   O  1S          0.00000   0.00000  -0.05652   0.00000   0.00000
 112        2S          0.00000   0.00000  -0.13817   0.00000   0.00000
 113        3S          0.00000   0.00000   0.20947   0.00000   0.00000
 114        4S          0.00000   0.00000   0.28891   0.00000   0.00000
 115        5S          0.00000   0.00000   0.14308   0.00000   0.00000
 116        6PX         0.02756  -0.01645   0.00000  -0.21605   0.19001
 117        6PY         0.01645   0.02756   0.00000  -0.19001  -0.21605
 118        6PZ         0.00000   0.00000  -0.09041   0.00000   0.00000
 119        7PX         0.02611  -0.01558   0.00000  -0.20260   0.17818
 120        7PY         0.01558   0.02611   0.00000  -0.17818  -0.20260
 121        7PZ         0.00000   0.00000  -0.07224   0.00000   0.00000
 122        8PX         0.00610  -0.00364   0.00000  -0.09473   0.08331
 123        8PY         0.00364   0.00610   0.00000  -0.08331  -0.09473
 124        8PZ         0.00000   0.00000  -0.01089   0.00000   0.00000
 125        9D 0        0.00000   0.00000  -0.00347   0.00000   0.00000
 126        9D+1        0.00162  -0.00097   0.00000  -0.00380   0.00334
 127        9D-1        0.00097   0.00162   0.00000  -0.00334  -0.00380
 128        9D+2        0.00000   0.00000   0.00000   0.00000   0.00000
 129        9D-2        0.00000   0.00000   0.00000   0.00000   0.00000
 130       10D 0        0.00000   0.00000  -0.00795   0.00000   0.00000
 131       10D+1        0.00614  -0.00367   0.00000  -0.01934   0.01701
 132       10D-1        0.00367   0.00614   0.00000  -0.01701  -0.01934
 133       10D+2        0.00000   0.00000   0.00000   0.00000   0.00000
 134       10D-2        0.00000   0.00000   0.00000   0.00000   0.00000
 135       11F 0        0.00000   0.00000  -0.00131   0.00000   0.00000
 136       11F+1        0.00141  -0.00084   0.00000  -0.00262   0.00230
 137       11F-1        0.00084   0.00141   0.00000  -0.00230  -0.00262
 138       11F+2        0.00000   0.00000   0.00000   0.00000   0.00000
 139       11F-2        0.00000   0.00000   0.00000   0.00000   0.00000
 140       11F+3        0.00000   0.00000   0.00000   0.00000   0.00000
 141       11F-3        0.00000   0.00000   0.00000   0.00000   0.00000
                          11        12        13        14        15
                           O         O         O         O         V
     Eigenvalues --    -1.03301  -1.02998  -1.02120  -1.02120  -0.42859
   1 1   U  1S          0.00000   0.12653   0.00000   0.00000  -0.39034
   2        2S          0.00000   0.25412   0.00000   0.00000  -0.74564
   3        3S          0.00000  -0.02998   0.00000   0.00000  -0.26608
   4        4S          0.00000   0.03030   0.00000   0.00000   0.91128
   5        5S          0.00000   0.00303   0.00000   0.00000   0.09844
   6        6PX         0.00000   0.00000  -0.03425  -0.04621   0.00000
   7        6PY         0.00000   0.00000  -0.04621   0.03425   0.00000
   8        6PZ        -0.07843   0.00000   0.00000   0.00000   0.00000
   9        7PX         0.00000   0.00000  -0.10363  -0.13985   0.00000
  10        7PY         0.00000   0.00000  -0.13985   0.10363   0.00000
  11        7PZ        -0.22809   0.00000   0.00000   0.00000   0.00000
  12        8PX         0.00000   0.00000  -0.03524  -0.04755   0.00000
  13        8PY         0.00000   0.00000  -0.04755   0.03524   0.00000
  14        8PZ        -0.09521   0.00000   0.00000   0.00000   0.00000
  15        9PX         0.00000   0.00000   0.02014   0.02718   0.00000
  16        9PY         0.00000   0.00000   0.02718  -0.02014   0.00000
  17        9PZ        -0.03261   0.00000   0.00000   0.00000   0.00000
  18       10PX         0.00000   0.00000  -0.00315  -0.00425   0.00000
  19       10PY         0.00000   0.00000  -0.00425   0.00315   0.00000
  20       10PZ        -0.00315   0.00000   0.00000   0.00000   0.00000
  21       11D 0        0.00000  -0.13304   0.00000   0.00000  -0.05018
  22       11D+1        0.00000   0.00000   0.00000   0.00000   0.00000
  23       11D-1        0.00000   0.00000   0.00000   0.00000   0.00000
  24       11D+2        0.00000   0.00000   0.00000   0.00000   0.00000
  25       11D-2        0.00000   0.00000   0.00000   0.00000   0.00000
  26       12D 0        0.00000  -0.22776   0.00000   0.00000  -0.10007
  27       12D+1        0.00000   0.00000   0.00000   0.00000   0.00000
  28       12D-1        0.00000   0.00000   0.00000   0.00000   0.00000
  29       12D+2        0.00000   0.00000   0.00000   0.00000   0.00000
  30       12D-2        0.00000   0.00000   0.00000   0.00000   0.00000
  31       13D 0        0.00000  -0.03231   0.00000   0.00000  -0.29479
  32       13D+1        0.00000   0.00000   0.00000   0.00000   0.00000
  33       13D-1        0.00000   0.00000   0.00000   0.00000   0.00000
  34       13D+2        0.00000   0.00000   0.00000   0.00000   0.00000
  35       13D-2        0.00000   0.00000   0.00000   0.00000   0.00000
  36       14D 0        0.00000   0.00400   0.00000   0.00000  -0.06934
  37       14D+1        0.00000   0.00000   0.00000   0.00000   0.00000
  38       14D-1        0.00000   0.00000   0.00000   0.00000   0.00000
  39       14D+2        0.00000   0.00000   0.00000   0.00000   0.00000
  40       14D-2        0.00000   0.00000   0.00000   0.00000   0.00000
  41       15F 0        0.67042   0.00000   0.00000   0.00000   0.00000
  42       15F+1        0.00000   0.00000   0.21056   0.28414   0.00000
  43       15F-1        0.00000   0.00000   0.28414  -0.21056   0.00000
  44       15F+2        0.00000   0.00000   0.00000   0.00000   0.00000
  45       15F-2        0.00000   0.00000   0.00000   0.00000   0.00000
  46       15F+3        0.00000   0.00000   0.00000   0.00000   0.00000
  47       15F-3        0.00000   0.00000   0.00000   0.00000   0.00000
  48       16F 0        0.11540   0.00000   0.00000   0.00000   0.00000
  49       16F+1        0.00000   0.00000   0.07735   0.10438   0.00000
  50       16F-1        0.00000   0.00000   0.10438  -0.07735   0.00000
  51       16F+2        0.00000   0.00000   0.00000   0.00000   0.00000
  52       16F-2        0.00000   0.00000   0.00000   0.00000   0.00000
  53       16F+3        0.00000   0.00000   0.00000   0.00000   0.00000
  54       16F-3        0.00000   0.00000   0.00000   0.00000   0.00000
  55       17F 0        0.00733   0.00000   0.00000   0.00000   0.00000
  56       17F+1        0.00000   0.00000   0.00058   0.00078   0.00000
  57       17F-1        0.00000   0.00000   0.00078  -0.00058   0.00000
  58       17F+2        0.00000   0.00000   0.00000   0.00000   0.00000
  59       17F-2        0.00000   0.00000   0.00000   0.00000   0.00000
  60       17F+3        0.00000   0.00000   0.00000   0.00000   0.00000
  61       17F-3        0.00000   0.00000   0.00000   0.00000   0.00000
  62       18G 0        0.00000  -0.01516   0.00000   0.00000   0.00060
  63       18G+1        0.00000   0.00000   0.00000   0.00000   0.00000
  64       18G-1        0.00000   0.00000   0.00000   0.00000   0.00000
  65       18G+2        0.00000   0.00000   0.00000   0.00000   0.00000
  66       18G-2        0.00000   0.00000   0.00000   0.00000   0.00000
  67       18G+3        0.00000   0.00000   0.00000   0.00000   0.00000
  68       18G-3        0.00000   0.00000   0.00000   0.00000   0.00000
  69       18G+4        0.00000   0.00000   0.00000   0.00000   0.00000
  70       18G-4        0.00000   0.00000   0.00000   0.00000   0.00000
  71       19G 0        0.00000  -0.01757   0.00000   0.00000   0.00770
  72       19G+1        0.00000   0.00000   0.00000   0.00000   0.00000
  73       19G-1        0.00000   0.00000   0.00000   0.00000   0.00000
  74       19G+2        0.00000   0.00000   0.00000   0.00000   0.00000
  75       19G-2        0.00000   0.00000   0.00000   0.00000   0.00000
  76       19G+3        0.00000   0.00000   0.00000   0.00000   0.00000
  77       19G-3        0.00000   0.00000   0.00000   0.00000   0.00000
  78       19G+4        0.00000   0.00000   0.00000   0.00000   0.00000
  79       19G-4        0.00000   0.00000   0.00000   0.00000   0.00000
  80 2   O  1S          0.00571  -0.01693   0.00000   0.00000   0.00572
  81        2S          0.01442  -0.04209   0.00000   0.00000   0.01398
  82        3S         -0.02923   0.07413   0.00000   0.00000  -0.01890
  83        4S         -0.02429   0.09132   0.00000   0.00000  -0.06207
  84        5S         -0.08282   0.11482   0.00000   0.00000   0.07822
  85        6PX         0.00000   0.00000   0.16958   0.22884   0.00000
  86        6PY         0.00000   0.00000   0.22884  -0.16958   0.00000
  87        6PZ        -0.21970   0.30404   0.00000   0.00000  -0.05453
  88        7PX         0.00000   0.00000   0.15853   0.21393   0.00000
  89        7PY         0.00000   0.00000   0.21393  -0.15853   0.00000
  90        7PZ        -0.20124   0.27338   0.00000   0.00000  -0.04346
  91        8PX         0.00000   0.00000   0.07406   0.09994   0.00000
  92        8PY         0.00000   0.00000   0.09994  -0.07406   0.00000
  93        8PZ        -0.05732   0.09441   0.00000   0.00000  -0.09474
  94        9D 0        0.00524  -0.00618   0.00000   0.00000  -0.00232
  95        9D+1        0.00000   0.00000  -0.00276  -0.00372   0.00000
  96        9D-1        0.00000   0.00000  -0.00372   0.00276   0.00000
  97        9D+2        0.00000   0.00000   0.00000   0.00000   0.00000
  98        9D-2        0.00000   0.00000   0.00000   0.00000   0.00000
  99       10D 0        0.02278  -0.02443   0.00000   0.00000  -0.00869
 100       10D+1        0.00000   0.00000  -0.01591  -0.02147   0.00000
 101       10D-1        0.00000   0.00000  -0.02147   0.01591   0.00000
 102       10D+2        0.00000   0.00000   0.00000   0.00000   0.00000
 103       10D-2        0.00000   0.00000   0.00000   0.00000   0.00000
 104       11F 0       -0.00502   0.00458   0.00000   0.00000   0.00188
 105       11F+1        0.00000   0.00000   0.00286   0.00385   0.00000
 106       11F-1        0.00000   0.00000   0.00385  -0.00286   0.00000
 107       11F+2        0.00000   0.00000   0.00000   0.00000   0.00000
 108       11F-2        0.00000   0.00000   0.00000   0.00000   0.00000
 109       11F+3        0.00000   0.00000   0.00000   0.00000   0.00000
 110       11F-3        0.00000   0.00000   0.00000   0.00000   0.00000
 111 3   O  1S         -0.00571  -0.01693   0.00000   0.00000   0.00572
 112        2S         -0.01442  -0.04209   0.00000   0.00000   0.01398
 113        3S          0.02923   0.07413   0.00000   0.00000  -0.01890
 114        4S          0.02429   0.09132   0.00000   0.00000  -0.06207
 115        5S          0.08282   0.11482   0.00000   0.00000   0.07822
 116        6PX         0.00000   0.00000   0.16958   0.22884   0.00000
 117        6PY         0.00000   0.00000   0.22884  -0.16958   0.00000
 118        6PZ        -0.21970  -0.30404   0.00000   0.00000   0.05453
 119        7PX         0.00000   0.00000   0.15853   0.21393   0.00000
 120        7PY         0.00000   0.00000   0.21393  -0.15853   0.00000
 121        7PZ        -0.20124  -0.27338   0.00000   0.00000   0.04346
 122        8PX         0.00000   0.00000   0.07406   0.09994   0.00000
 123        8PY         0.00000   0.00000   0.09994  -0.07406   0.00000
 124        8PZ        -0.05732  -0.09441   0.00000   0.00000   0.09474
 125        9D 0       -0.00524  -0.00618   0.00000   0.00000  -0.00232
 126        9D+1        0.00000   0.00000   0.00276   0.00372   0.00000
 127        9D-1        0.00000   0.00000   0.00372  -0.00276   0.00000
 128        9D+2        0.00000   0.00000   0.00000   0.00000   0.00000
 129        9D-2        0.00000   0.00000   0.00000   0.00000   0.00000
 130       10D 0       -0.02278  -0.02443   0.00000   0.00000  -0.00869
 131       10D+1        0.00000   0.00000   0.01591   0.02147   0.00000
 132       10D-1        0.00000   0.00000   0.02147  -0.01591   0.00000
 133       10D+2        0.00000   0.00000   0.00000   0.00000   0.00000
 134       10D-2        0.00000   0.00000   0.00000   0.00000   0.00000
 135       11F 0       -0.00502  -0.00458   0.00000   0.00000  -0.00188
 136       11F+1        0.00000   0.00000   0.00286   0.00385   0.00000
 137       11F-1        0.00000   0.00000   0.00385  -0.00286   0.00000
 138       11F+2        0.00000   0.00000   0.00000   0.00000   0.00000
 139       11F-2        0.00000   0.00000   0.00000   0.00000   0.00000
 140       11F+3        0.00000   0.00000   0.00000   0.00000   0.00000
 141       11F-3        0.00000   0.00000   0.00000   0.00000   0.00000
                          16        17        18        19        20
                           V         V         V         V         V
     Eigenvalues --    -0.42510  -0.42510  -0.41864  -0.41864  -0.41182
   1 1   U  1S          0.00000   0.00000   0.00000   0.00000   0.00000
   2        2S          0.00000   0.00000   0.00000   0.00000   0.00000
   3        3S          0.00000   0.00000   0.00000   0.00000   0.00000
   4        4S          0.00000   0.00000   0.00000   0.00000   0.00000
   5        5S          0.00000   0.00000   0.00000   0.00000   0.00000
   6        6PX         0.00000   0.00000   0.00000   0.00000   0.00000
   7        6PY         0.00000   0.00000   0.00000   0.00000   0.00000
   8        6PZ         0.00000   0.00000   0.00000   0.00000   0.00000
   9        7PX         0.00000   0.00000   0.00000   0.00000   0.00000
  10        7PY         0.00000   0.00000   0.00000   0.00000   0.00000
  11        7PZ         0.00000   0.00000   0.00000   0.00000   0.00000
  12        8PX         0.00000   0.00000   0.00000   0.00000   0.00000
  13        8PY         0.00000   0.00000   0.00000   0.00000   0.00000
  14        8PZ         0.00000   0.00000   0.00000   0.00000   0.00000
  15        9PX         0.00000   0.00000   0.00000   0.00000   0.00000
  16        9PY         0.00000   0.00000   0.00000   0.00000   0.00000
  17        9PZ         0.00000   0.00000   0.00000   0.00000   0.00000
  18       10PX         0.00000   0.00000   0.00000   0.00000   0.00000
  19       10PY         0.00000   0.00000   0.00000   0.00000   0.00000
  20       10PZ         0.00000   0.00000   0.00000   0.00000   0.00000
  21       11D 0        0.00000   0.00000   0.00000   0.00000   0.00000
  22       11D+1        0.00000   0.00000   0.00000   0.00000   0.00000
  23       11D-1        0.00000   0.00000   0.00000   0.00000   0.00000
  24       11D+2        0.00000   0.00000   0.00000   0.00000   0.00000
  25       11D-2        0.00000   0.00000   0.00000   0.00000   0.18796
  26       12D 0        0.00000   0.00000   0.00000   0.00000   0.00000
  27       12D+1        0.00000   0.00000   0.00000   0.00000   0.00000
  28       12D-1        0.00000   0.00000   0.00000   0.00000   0.00000
  29       12D+2        0.00000   0.00000   0.00000   0.00000   0.00000
  30       12D-2        0.00000   0.00000   0.00000   0.00000   0.39969
  31       13D 0        0.00000   0.00000   0.00000   0.00000   0.00000
  32       13D+1        0.00000   0.00000   0.00000   0.00000   0.00000
  33       13D-1        0.00000   0.00000   0.00000   0.00000   0.00000
  34       13D+2        0.00000   0.00000   0.00000   0.00000   0.00000
  35       13D-2        0.00000   0.00000   0.00000   0.00000   0.44559
  36       14D 0        0.00000   0.00000   0.00000   0.00000   0.00000
  37       14D+1        0.00000   0.00000   0.00000   0.00000   0.00000
  38       14D-1        0.00000   0.00000   0.00000   0.00000   0.00000
  39       14D+2        0.00000   0.00000   0.00000   0.00000   0.00000
  40       14D-2        0.00000   0.00000   0.00000   0.00000   0.12823
  41       15F 0        0.00000   0.00000   0.00000   0.00000   0.00000
  42       15F+1        0.00000   0.00000   0.00000   0.00000   0.00000
  43       15F-1        0.00000   0.00000   0.00000   0.00000   0.00000
  44       15F+2        0.88428   0.00000   0.00000   0.00000   0.00000
  45       15F-2        0.00000   0.88428   0.00000   0.00000   0.00000
  46       15F+3        0.00000   0.00000  -0.45541   0.75888   0.00000
  47       15F-3        0.00000   0.00000   0.75888   0.45541   0.00000
  48       16F 0        0.00000   0.00000   0.00000   0.00000   0.00000
  49       16F+1        0.00000   0.00000   0.00000   0.00000   0.00000
  50       16F-1        0.00000   0.00000   0.00000   0.00000   0.00000
  51       16F+2        0.19160   0.00000   0.00000   0.00000   0.00000
  52       16F-2        0.00000   0.19160   0.00000   0.00000   0.00000
  53       16F+3        0.00000   0.00000  -0.10051   0.16748   0.00000
  54       16F-3        0.00000   0.00000   0.16748   0.10051   0.00000
  55       17F 0        0.00000   0.00000   0.00000   0.00000   0.00000
  56       17F+1        0.00000   0.00000   0.00000   0.00000   0.00000
  57       17F-1        0.00000   0.00000   0.00000   0.00000   0.00000
  58       17F+2        0.07961   0.00000   0.00000   0.00000   0.00000
  59       17F-2        0.00000   0.07961   0.00000   0.00000   0.00000
  60       17F+3        0.00000   0.00000  -0.03919   0.06530   0.00000
  61       17F-3        0.00000   0.00000   0.06530   0.03919   0.00000
  62       18G 0        0.00000   0.00000   0.00000   0.00000   0.00000
  63       18G+1        0.00000   0.00000   0.00000   0.00000   0.00000
  64       18G-1        0.00000   0.00000   0.00000   0.00000   0.00000
  65       18G+2        0.00000   0.00000   0.00000   0.00000   0.00000
  66       18G-2        0.00000   0.00000   0.00000   0.00000  -0.00118
  67       18G+3        0.00000   0.00000   0.00000   0.00000   0.00000
  68       18G-3        0.00000   0.00000   0.00000   0.00000   0.00000
  69       18G+4        0.00000   0.00000   0.00000   0.00000   0.00000
  70       18G-4        0.00000   0.00000   0.00000   0.00000   0.00000
  71       19G 0        0.00000   0.00000   0.00000   0.00000   0.00000
  72       19G+1        0.00000   0.00000   0.00000   0.00000   0.00000
  73       19G-1        0.00000   0.00000   0.00000   0.00000   0.00000
  74       19G+2        0.00000   0.00000   0.00000   0.00000   0.00000
  75       19G-2        0.00000   0.00000   0.00000   0.00000  -0.00985
  76       19G+3        0.00000   0.00000   0.00000   0.00000   0.00000
  77       19G-3        0.00000   0.00000   0.00000   0.00000   0.00000
  78       19G+4        0.00000   0.00000   0.00000   0.00000   0.00000
  79       19G-4        0.00000   0.00000   0.00000   0.00000   0.00000
  80 2   O  1S          0.00000   0.00000   0.00000   0.00000   0.00000
  81        2S          0.00000   0.00000   0.00000   0.00000   0.00000
  82        3S          0.00000   0.00000   0.00000   0.00000   0.00000
  83        4S          0.00000   0.00000   0.00000   0.00000   0.00000
  84        5S          0.00000   0.00000   0.00000   0.00000   0.00000
  85        6PX         0.00000   0.00000   0.00000   0.00000   0.00000
  86        6PY         0.00000   0.00000   0.00000   0.00000   0.00000
  87        6PZ         0.00000   0.00000   0.00000   0.00000   0.00000
  88        7PX         0.00000   0.00000   0.00000   0.00000   0.00000
  89        7PY         0.00000   0.00000   0.00000   0.00000   0.00000
  90        7PZ         0.00000   0.00000   0.00000   0.00000   0.00000
  91        8PX         0.00000   0.00000   0.00000   0.00000   0.00000
  92        8PY         0.00000   0.00000   0.00000   0.00000   0.00000
  93        8PZ         0.00000   0.00000   0.00000   0.00000   0.00000
  94        9D 0        0.00000   0.00000   0.00000   0.00000   0.00000
  95        9D+1        0.00000   0.00000   0.00000   0.00000   0.00000
  96        9D-1        0.00000   0.00000   0.00000   0.00000   0.00000
  97        9D+2        0.00246   0.00000   0.00000   0.00000   0.00000
  98        9D-2        0.00000   0.00246   0.00000   0.00000   0.00207
  99       10D 0        0.00000   0.00000   0.00000   0.00000   0.00000
 100       10D+1        0.00000   0.00000   0.00000   0.00000   0.00000
 101       10D-1        0.00000   0.00000   0.00000   0.00000   0.00000
 102       10D+2        0.00863   0.00000   0.00000   0.00000   0.00000
 103       10D-2        0.00000   0.00863   0.00000   0.00000   0.00780
 104       11F 0        0.00000   0.00000   0.00000   0.00000   0.00000
 105       11F+1        0.00000   0.00000   0.00000   0.00000   0.00000
 106       11F-1        0.00000   0.00000   0.00000   0.00000   0.00000
 107       11F+2       -0.00180   0.00000   0.00000   0.00000   0.00000
 108       11F-2        0.00000  -0.00180   0.00000   0.00000  -0.00149
 109       11F+3        0.00000   0.00000  -0.00016   0.00026   0.00000
 110       11F-3        0.00000   0.00000   0.00026   0.00016   0.00000
 111 3   O  1S          0.00000   0.00000   0.00000   0.00000   0.00000
 112        2S          0.00000   0.00000   0.00000   0.00000   0.00000
 113        3S          0.00000   0.00000   0.00000   0.00000   0.00000
 114        4S          0.00000   0.00000   0.00000   0.00000   0.00000
 115        5S          0.00000   0.00000   0.00000   0.00000   0.00000
 116        6PX         0.00000   0.00000   0.00000   0.00000   0.00000
 117        6PY         0.00000   0.00000   0.00000   0.00000   0.00000
 118        6PZ         0.00000   0.00000   0.00000   0.00000   0.00000
 119        7PX         0.00000   0.00000   0.00000   0.00000   0.00000
 120        7PY         0.00000   0.00000   0.00000   0.00000   0.00000
 121        7PZ         0.00000   0.00000   0.00000   0.00000   0.00000
 122        8PX         0.00000   0.00000   0.00000   0.00000   0.00000
 123        8PY         0.00000   0.00000   0.00000   0.00000   0.00000
 124        8PZ         0.00000   0.00000   0.00000   0.00000   0.00000
 125        9D 0        0.00000   0.00000   0.00000   0.00000   0.00000
 126        9D+1        0.00000   0.00000   0.00000   0.00000   0.00000
 127        9D-1        0.00000   0.00000   0.00000   0.00000   0.00000
 128        9D+2       -0.00246   0.00000   0.00000   0.00000   0.00000
 129        9D-2        0.00000  -0.00246   0.00000   0.00000   0.00207
 130       10D 0        0.00000   0.00000   0.00000   0.00000   0.00000
 131       10D+1        0.00000   0.00000   0.00000   0.00000   0.00000
 132       10D-1        0.00000   0.00000   0.00000   0.00000   0.00000
 133       10D+2       -0.00863   0.00000   0.00000   0.00000   0.00000
 134       10D-2        0.00000  -0.00863   0.00000   0.00000   0.00780
 135       11F 0        0.00000   0.00000   0.00000   0.00000   0.00000
 136       11F+1        0.00000   0.00000   0.00000   0.00000   0.00000
 137       11F-1        0.00000   0.00000   0.00000   0.00000   0.00000
 138       11F+2       -0.00180   0.00000   0.00000   0.00000   0.00000
 139       11F-2        0.00000  -0.00180   0.00000   0.00000   0.00149
 140       11F+3        0.00000   0.00000  -0.00016   0.00026   0.00000
 141       11F-3        0.00000   0.00000   0.00026   0.00016   0.00000
                          21        22        23        24        25
                           V         V         V         V         V
     Eigenvalues --    -0.41182  -0.38337  -0.38337  -0.27539  -0.27539
   1 1   U  1S          0.00000   0.00000   0.00000   0.00000   0.00000
   2        2S          0.00000   0.00000   0.00000   0.00000   0.00000
   3        3S          0.00000   0.00000   0.00000   0.00000   0.00000
   4        4S          0.00000   0.00000   0.00000   0.00000   0.00000
   5        5S          0.00000   0.00000   0.00000   0.00000   0.00000
   6        6PX         0.00000   0.03382   0.04443  -0.05110  -0.04095
   7        6PY         0.00000   0.04443  -0.03382   0.04095  -0.05110
   8        6PZ         0.00000   0.00000   0.00000   0.00000   0.00000
   9        7PX         0.00000   0.08830   0.11598  -0.14636  -0.11730
  10        7PY         0.00000   0.11598  -0.08830   0.11730  -0.14636
  11        7PZ         0.00000   0.00000   0.00000   0.00000   0.00000
  12        8PX         0.00000   0.09649   0.12674  -0.16541  -0.13256
  13        8PY         0.00000   0.12674  -0.09649   0.13256  -0.16541
  14        8PZ         0.00000   0.00000   0.00000   0.00000   0.00000
  15        9PX         0.00000  -0.09817  -0.12894   0.39024   0.31274
  16        9PY         0.00000  -0.12894   0.09817  -0.31274   0.39024
  17        9PZ         0.00000   0.00000   0.00000   0.00000   0.00000
  18       10PX         0.00000  -0.07095  -0.09320   0.50857   0.40757
  19       10PY         0.00000  -0.09320   0.07095  -0.40757   0.50857
  20       10PZ         0.00000   0.00000   0.00000   0.00000   0.00000
  21       11D 0        0.00000   0.00000   0.00000   0.00000   0.00000
  22       11D+1        0.00000   0.00000   0.00000   0.00000   0.00000
  23       11D-1        0.00000   0.00000   0.00000   0.00000   0.00000
  24       11D+2        0.18796   0.00000   0.00000   0.00000   0.00000
  25       11D-2        0.00000   0.00000   0.00000   0.00000   0.00000
  26       12D 0        0.00000   0.00000   0.00000   0.00000   0.00000
  27       12D+1        0.00000   0.00000   0.00000   0.00000   0.00000
  28       12D-1        0.00000   0.00000   0.00000   0.00000   0.00000
  29       12D+2        0.39969   0.00000   0.00000   0.00000   0.00000
  30       12D-2        0.00000   0.00000   0.00000   0.00000   0.00000
  31       13D 0        0.00000   0.00000   0.00000   0.00000   0.00000
  32       13D+1        0.00000   0.00000   0.00000   0.00000   0.00000
  33       13D-1        0.00000   0.00000   0.00000   0.00000   0.00000
  34       13D+2        0.44559   0.00000   0.00000   0.00000   0.00000
  35       13D-2        0.00000   0.00000   0.00000   0.00000   0.00000
  36       14D 0        0.00000   0.00000   0.00000   0.00000   0.00000
  37       14D+1        0.00000   0.00000   0.00000   0.00000   0.00000
  38       14D-1        0.00000   0.00000   0.00000   0.00000   0.00000
  39       14D+2        0.12823   0.00000   0.00000   0.00000   0.00000
  40       14D-2        0.00000   0.00000   0.00000   0.00000   0.00000
  41       15F 0        0.00000   0.00000   0.00000   0.00000   0.00000
  42       15F+1        0.00000   0.49343   0.64814   0.21796   0.17467
  43       15F-1        0.00000   0.64814  -0.49343  -0.17467   0.21796
  44       15F+2        0.00000   0.00000   0.00000   0.00000   0.00000
  45       15F-2        0.00000   0.00000   0.00000   0.00000   0.00000
  46       15F+3        0.00000   0.00000   0.00000   0.00000   0.00000
  47       15F-3        0.00000   0.00000   0.00000   0.00000   0.00000
  48       16F 0        0.00000   0.00000   0.00000   0.00000   0.00000
  49       16F+1        0.00000   0.08568   0.11255   0.02479   0.01986
  50       16F-1        0.00000   0.11255  -0.08568  -0.01986   0.02479
  51       16F+2        0.00000   0.00000   0.00000   0.00000   0.00000
  52       16F-2        0.00000   0.00000   0.00000   0.00000   0.00000
  53       16F+3        0.00000   0.00000   0.00000   0.00000   0.00000
  54       16F-3        0.00000   0.00000   0.00000   0.00000   0.00000
  55       17F 0        0.00000   0.00000   0.00000   0.00000   0.00000
  56       17F+1        0.00000   0.02316   0.03042  -0.08704  -0.06976
  57       17F-1        0.00000   0.03042  -0.02316   0.06976  -0.08704
  58       17F+2        0.00000   0.00000   0.00000   0.00000   0.00000
  59       17F-2        0.00000   0.00000   0.00000   0.00000   0.00000
  60       17F+3        0.00000   0.00000   0.00000   0.00000   0.00000
  61       17F-3        0.00000   0.00000   0.00000   0.00000   0.00000
  62       18G 0        0.00000   0.00000   0.00000   0.00000   0.00000
  63       18G+1        0.00000   0.00000   0.00000   0.00000   0.00000
  64       18G-1        0.00000   0.00000   0.00000   0.00000   0.00000
  65       18G+2       -0.00118   0.00000   0.00000   0.00000   0.00000
  66       18G-2        0.00000   0.00000   0.00000   0.00000   0.00000
  67       18G+3        0.00000   0.00000   0.00000   0.00000   0.00000
  68       18G-3        0.00000   0.00000   0.00000   0.00000   0.00000
  69       18G+4        0.00000   0.00000   0.00000   0.00000   0.00000
  70       18G-4        0.00000   0.00000   0.00000   0.00000   0.00000
  71       19G 0        0.00000   0.00000   0.00000   0.00000   0.00000
  72       19G+1        0.00000   0.00000   0.00000   0.00000   0.00000
  73       19G-1        0.00000   0.00000   0.00000   0.00000   0.00000
  74       19G+2       -0.00985   0.00000   0.00000   0.00000   0.00000
  75       19G-2        0.00000   0.00000   0.00000   0.00000   0.00000
  76       19G+3        0.00000   0.00000   0.00000   0.00000   0.00000
  77       19G-3        0.00000   0.00000   0.00000   0.00000   0.00000
  78       19G+4        0.00000   0.00000   0.00000   0.00000   0.00000
  79       19G-4        0.00000   0.00000   0.00000   0.00000   0.00000
  80 2   O  1S          0.00000   0.00000   0.00000   0.00000   0.00000
  81        2S          0.00000   0.00000   0.00000   0.00000   0.00000
[...]
   6. BD (   3) U   1 - O   3        / 66. RY*(  42) U   1                    0.76    4.88    0.055
   6. BD (   3) U   1 - O   3        / 67. RY*(  43) U   1                    0.61    5.25    0.052
   6. BD (   3) U   1 - O   3        / 84. RY*(   1) O   2                    0.90    3.11    0.048
   6. BD (   3) U   1 - O   3        / 87. RY*(   4) O   2                    1.91    3.98    0.080
   6. BD (   3) U   1 - O   3        /110. RY*(   1) O   3                    0.80    3.11    0.046
   6. BD (   3) U   1 - O   3        /113. RY*(   4) O   3                    0.53    3.98    0.042
   6. BD (   3) U   1 - O   3        /138. BD*(   3) U   1 - O   2           35.52    1.13    0.186
   6. BD (   3) U   1 - O   3        /141. BD*(   3) U   1 - O   3           13.55    1.13    0.115
   7. CR (   1) U   1                / 13. LP*(   1) U   1                    1.46    2.93    0.058
   7. CR (   1) U   1                / 19. LP*(   7) U   1                    0.65    5.38    0.053
   7. CR (   1) U   1                /138. BD*(   3) U   1 - O   2           32.00    2.70    0.278
   7. CR (   1) U   1                /141. BD*(   3) U   1 - O   3           32.00    2.70    0.278
   8. CR (   2) U   1                / 16. LP*(   4) U   1                    0.69    1.55    0.029
   8. CR (   2) U   1                /136. BD*(   1) U   1 - O   2            6.41    1.44    0.086
   8. CR (   2) U   1                /139. BD*(   1) U   1 - O   3            6.41    1.44    0.086
   9. CR (   3) U   1                / 15. LP*(   3) U   1                    0.69    1.55    0.029
   9. CR (   3) U   1                /137. BD*(   2) U   1 - O   2            6.41    1.44    0.086
   9. CR (   3) U   1                /140. BD*(   2) U   1 - O   3            6.41    1.44    0.086
  10. CR (   4) U   1                / 14. LP*(   2) U   1                    1.54    1.67    0.049
  10. CR (   4) U   1                / 29. RY*(   5) U   1                    0.87    4.12    0.058
  10. CR (   4) U   1                / 30. RY*(   6) U   1                    0.80   17.94    0.116
  10. CR (   4) U   1                / 87. RY*(   4) O   2                    1.49    4.23    0.077
  10. CR (   4) U   1                / 88. RY*(   5) O   2                    0.82    3.15    0.049
  10. CR (   4) U   1                /113. RY*(   4) O   3                    1.49    4.23    0.077
  10. CR (   4) U   1                /114. RY*(   5) O   3                    0.82    3.15    0.049
  10. CR (   4) U   1                /138. BD*(   3) U   1 - O   2           97.42    1.38    0.331
  10. CR (   4) U   1                /141. BD*(   3) U   1 - O   3           97.42    1.38    0.331
  11. CR (   1) O   2                / 13. LP*(   1) U   1                    2.90   20.95    0.221
  11. CR (   1) O   2                / 14. LP*(   2) U   1                    2.60   21.02    0.210
  12. CR (   1) O   3                / 13. LP*(   1) U   1                    2.90   20.95    0.221
  12. CR (   1) O   3                / 14. LP*(   2) U   1                    2.60   21.02    0.210
  23. LP (   1) O   2                / 13. LP*(   1) U   1                   19.56    1.86    0.170
  23. LP (   1) O   2                / 14. LP*(   2) U   1                   14.69    1.93    0.150
  23. LP (   1) O   2                / 17. LP*(   5) U   1                    0.60    2.86    0.037
  23. LP (   1) O   2                / 18. LP*(   6) U   1                    0.98   15.61    0.111
  23. LP (   1) O   2                /141. BD*(   3) U   1 - O   3            1.03    1.63    0.039
  24. LP (   1) O   3                / 13. LP*(   1) U   1                   19.56    1.86    0.170
  24. LP (   1) O   3                / 14. LP*(   2) U   1                   14.69    1.93    0.150
  24. LP (   1) O   3                / 17. LP*(   5) U   1                    0.60    2.86    0.037
  24. LP (   1) O   3                / 18. LP*(   6) U   1                    0.98   15.61    0.111
  24. LP (   1) O   3                /138. BD*(   3) U   1 - O   2            1.03    1.63    0.039
 138. BD*(   3) U   1 - O   2        / 13. LP*(   1) U   1                   10.69    0.23    0.121
 138. BD*(   3) U   1 - O   2        / 14. LP*(   2) U   1                    2.81    0.29    0.071
 138. BD*(   3) U   1 - O   2        / 18. LP*(   6) U   1                    9.20   13.98    0.927
 138. BD*(   3) U   1 - O   2        / 19. LP*(   7) U   1                   21.42    2.68    0.619
 138. BD*(   3) U   1 - O   2        / 21. LP*(   9) U   1                    5.69    5.60    0.461
 138. BD*(   3) U   1 - O   2        / 27. RY*(   3) U   1                    5.19    0.66    0.151
 138. BD*(   3) U   1 - O   2        / 29. RY*(   5) U   1                    0.82    2.74    0.122
 138. BD*(   3) U   1 - O   2        / 30. RY*(   6) U   1                    0.77   16.56    0.291
 138. BD*(   3) U   1 - O   2        / 47. RY*(  23) U   1                    1.88    1.26    0.126
 138. BD*(   3) U   1 - O   2        / 66. RY*(  42) U   1                    2.06    3.74    0.227
 138. BD*(   3) U   1 - O   2        / 67. RY*(  43) U   1                    1.72    4.12    0.217
 138. BD*(   3) U   1 - O   2        / 84. RY*(   1) O   2                    3.80    1.97    0.222
 138. BD*(   3) U   1 - O   2        / 88. RY*(   5) O   2                    1.32    1.77    0.125
 138. BD*(   3) U   1 - O   2        / 91. RY*(   8) O   2                    6.28    2.63    0.332
 138. BD*(   3) U   1 - O   2        / 95. RY*(  12) O   2                    0.68   44.01    0.446
 138. BD*(   3) U   1 - O   2        /113. RY*(   4) O   3                    1.36    2.85    0.161
 138. BD*(   3) U   1 - O   2        /117. RY*(   8) O   3                    0.95    2.63    0.129
 138. BD*(   3) U   1 - O   2        /118. RY*(   9) O   3                    0.58    2.85    0.105
 141. BD*(   3) U   1 - O   3        / 13. LP*(   1) U   1                   10.69    0.23    0.121
 141. BD*(   3) U   1 - O   3        / 14. LP*(   2) U   1                    2.81    0.29    0.071
 141. BD*(   3) U   1 - O   3        / 18. LP*(   6) U   1                    9.20   13.98    0.927
 141. BD*(   3) U   1 - O   3        / 19. LP*(   7) U   1                   21.42    2.68    0.619
 141. BD*(   3) U   1 - O   3        / 21. LP*(   9) U   1                    5.69    5.60    0.461
 141. BD*(   3) U   1 - O   3        / 27. RY*(   3) U   1                    5.19    0.66    0.151
 141. BD*(   3) U   1 - O   3        / 29. RY*(   5) U   1                    0.82    2.74    0.122
 141. BD*(   3) U   1 - O   3        / 30. RY*(   6) U   1                    0.77   16.56    0.291
 141. BD*(   3) U   1 - O   3        / 47. RY*(  23) U   1                    1.88    1.26    0.126
 141. BD*(   3) U   1 - O   3        / 66. RY*(  42) U   1                    2.06    3.74    0.227
 141. BD*(   3) U   1 - O   3        / 67. RY*(  43) U   1                    1.72    4.12    0.217
 141. BD*(   3) U   1 - O   3        / 87. RY*(   4) O   2                    1.36    2.85    0.161
 141. BD*(   3) U   1 - O   3        / 91. RY*(   8) O   2                    0.95    2.63    0.129
 141. BD*(   3) U   1 - O   3        / 92. RY*(   9) O   2                    0.58    2.85    0.105
 141. BD*(   3) U   1 - O   3        /110. RY*(   1) O   3                    3.80    1.97    0.222
 141. BD*(   3) U   1 - O   3        /114. RY*(   5) O   3                    1.32    1.77    0.125
 141. BD*(   3) U   1 - O   3        /117. RY*(   8) O   3                    6.28    2.63    0.332
 141. BD*(   3) U   1 - O   3        /121. RY*(  12) O   3                    0.68   44.01    0.446


 Natural Bond Orbitals (Summary):

                                                            Principal Delocalizations
           NBO                        Occupancy    Energy   (geminal,vicinal,remote)
 ====================================================================================
 Molecular unit  1  (O2U)
     1. BD (   1) U   1 - O   2          1.99500    -1.03438  139(g),111(v)
     2. BD (   2) U   1 - O   2          1.99500    -1.03438  140(g),112(v)
     3. BD (   3) U   1 - O   2          1.91656    -1.26080  141(g),138(g),19(g),18(g)
                                                    21(g),113(v),14(g),27(g)
                                                    110(v),84(g),66(g),67(g)
                                                    87(g)
     4. BD (   1) U   1 - O   3          1.99500    -1.03438  136(g),85(v)
     5. BD (   2) U   1 - O   3          1.99500    -1.03438  137(g),86(v)
     6. BD (   3) U   1 - O   3          1.91656    -1.26080  138(g),141(g),19(g),18(g)
                                                    21(g),87(v),14(g),27(g)
                                                    84(v),110(g),66(g),67(g)
                                                    113(g)
     7. CR (   1) U   1                  1.97311    -2.82975  138(g),141(g),13(g),19(g)
     8. CR (   2) U   1                  1.98139    -1.70351  136(g),139(g),16(g)
     9. CR (   3) U   1                  1.98139    -1.70351  137(g),140(g),15(g)
    10. CR (   4) U   1                  1.71282    -1.50788  138(g),141(g),14(g),87(v)
                                                    113(v),29(g),88(v),114(v)
                                                    30(g)
    11. CR (   1) O   2                  1.99988   -20.84955  13(v),14(v)
    12. CR (   1) O   3                  1.99988   -20.84955  13(v),14(v)
    13. LP*(   1) U   1                  0.02819     0.10363   
    14. LP*(   2) U   1                  0.02337     0.16646   
    15. LP*(   3) U   1                  0.00116    -0.15248   
    16. LP*(   4) U   1                  0.00116    -0.15248   
    17. LP*(   5) U   1                  0.00074     1.09971   
    18. LP*(   6) U   1                  0.00012    13.85117   
    19. LP*(   7) U   1                  0.00007     2.55467   
    20. LP*(   8) U   1                  0.00000    15.71243   
    21. LP*(   9) U   1                  0.00000     5.46818   
    22. LP*(  10) U   1                  0.00000     2.59777   
    23. LP (   1) O   2                  1.97111    -1.76054  13(v),14(v),141(v),18(v)
                                                    17(v)
    24. LP (   1) O   3                  1.97111    -1.76054  13(v),14(v),138(v),18(v)
                                                    17(v)
    25. RY*(   1) U   1                  0.00000     1.82009   
    26. RY*(   2) U   1                  0.00000    15.71243   
    27. RY*(   3) U   1                  0.00000     0.53022   
    28. RY*(   4) U   1                  0.00001     2.78856   
    29. RY*(   5) U   1                  0.00000     2.61394   
    30. RY*(   6) U   1                  0.00000    16.43631   
    31. RY*(   7) U   1                  0.00000    -0.37765   
    32. RY*(   8) U   1                  0.00000     0.44705   
    33. RY*(   9) U   1                  0.00000     1.33983   
    34. RY*(  10) U   1                  0.00000     0.72645   
    35. RY*(  11) U   1                  0.00000     0.64936   
    36. RY*(  12) U   1                  0.00000     1.43450   
    37. RY*(  13) U   1                  0.00000     0.80244   
    38. RY*(  14) U   1                  0.00000     0.64936   
    39. RY*(  15) U   1                  0.00000     1.43450   
    40. RY*(  16) U   1                  0.00000     0.80244   
    41. RY*(  17) U   1                  0.00000    -0.37765   
    42. RY*(  18) U   1                  0.00000     0.44705   
    43. RY*(  19) U   1                  0.00000     1.33983   
    44. RY*(  20) U   1                  0.00000     0.72645   
    45. RY*(  21) U   1                  0.00000     2.59777   
    46. RY*(  22) U   1                  0.00000     1.77482   
    47. RY*(  23) U   1                  0.00000     1.13280   
    48. RY*(  24) U   1                  0.00000     1.82009   
    49. RY*(  25) U   1                  0.00000     0.28341   
    50. RY*(  26) U   1                  0.00000     0.49456   
    51. RY*(  27) U   1                  0.00000     0.37903   
    52. RY*(  28) U   1                  0.00000     0.49456   
    53. RY*(  29) U   1                  0.00000     0.37903   
    54. RY*(  30) U   1                  0.00000    -0.41544   
    55. RY*(  31) U   1                  0.00000     0.25311   
    56. RY*(  32) U   1                  0.00000     0.33882   
    57. RY*(  33) U   1                  0.00000    -0.41544   
    58. RY*(  34) U   1                  0.00000     0.25311   
    59. RY*(  35) U   1                  0.00000     0.33882   
    60. RY*(  36) U   1                  0.00000    -0.40913   
    61. RY*(  37) U   1                  0.00000     0.24291   
    62. RY*(  38) U   1                  0.00000     0.31767   
    63. RY*(  39) U   1                  0.00000    -0.40913   
    64. RY*(  40) U   1                  0.00000     0.24291   
    65. RY*(  41) U   1                  0.00000     0.31767   
    66. RY*(  42) U   1                  0.00000     3.61476   
    67. RY*(  43) U   1                  0.00000     3.98828   
    68. RY*(  44) U   1                  0.00000     2.43980   
    69. RY*(  45) U   1                  0.00000     3.81711   
    70. RY*(  46) U   1                  0.00000     2.43980   
    71. RY*(  47) U   1                  0.00000     3.81711   
    72. RY*(  48) U   1                  0.00000     1.78506   
    73. RY*(  49) U   1                  0.00000     3.00879   
    74. RY*(  50) U   1                  0.00000     1.78506   
    75. RY*(  51) U   1                  0.00000     3.00879   
    76. RY*(  52) U   1                  0.00000     1.69308   
    77. RY*(  53) U   1                  0.00000     2.70677   
    78. RY*(  54) U   1                  0.00000     1.69308   
    79. RY*(  55) U   1                  0.00000     2.70677   
    80. RY*(  56) U   1                  0.00000     1.68304   
    81. RY*(  57) U   1                  0.00000     2.68589   
    82. RY*(  58) U   1                  0.00000     1.68304   
    83. RY*(  59) U   1                  0.00000     2.68589   
    84. RY*(   1) O   2                  0.00369     1.84643   
    85. RY*(   2) O   2                  0.00094     1.44098   
    86. RY*(   3) O   2                  0.00094     1.44098   
    87. RY*(   4) O   2                  0.00067     2.72379   
    88. RY*(   5) O   2                  0.00018     1.64163   
    89. RY*(   6) O   2                  0.00006     2.70729   
    90. RY*(   7) O   2                  0.00006     2.70729   
    91. RY*(   8) O   2                  0.00000     2.50608   
    92. RY*(   9) O   2                  0.00001     2.71909   
    93. RY*(  10) O   2                  0.00000     1.33818   
    94. RY*(  11) O   2                  0.00000     6.24720   
    95. RY*(  12) O   2                  0.00000    43.88241   
    96. RY*(  13) O   2                  0.00000     5.17088   
    97. RY*(  14) O   2                  0.00000     1.88317   
    98. RY*(  15) O   2                  0.00000     5.17089   
    99. RY*(  16) O   2                  0.00000     1.33818   
   100. RY*(  17) O   2                  0.00000     6.24720   
   101. RY*(  18) O   2                  0.00000     1.88318   
   102. RY*(  19) O   2                  0.00000     6.12588   
   103. RY*(  20) O   2                  0.00000     5.14872   
   104. RY*(  21) O   2                  0.00000     5.21848   
   105. RY*(  22) O   2                  0.00000     5.21848   
   106. RY*(  23) O   2                  0.00000     5.12913   
   107. RY*(  24) O   2                  0.00000     5.12913   
   108. RY*(  25) O   2                  0.00000     5.06651   
   109. RY*(  26) O   2                  0.00000     5.06651   
   110. RY*(   1) O   3                  0.00369     1.84643   
   111. RY*(   2) O   3                  0.00094     1.44098   
   112. RY*(   3) O   3                  0.00094     1.44098   
   113. RY*(   4) O   3                  0.00067     2.72379   
   114. RY*(   5) O   3                  0.00018     1.64163   
   115. RY*(   6) O   3                  0.00006     2.70729   
   116. RY*(   7) O   3                  0.00006     2.70729   
   117. RY*(   8) O   3                  0.00000     2.50608   
   118. RY*(   9) O   3                  0.00001     2.71909   
   119. RY*(  10) O   3                  0.00000     1.33818   
   120. RY*(  11) O   3                  0.00000     6.24720   
   121. RY*(  12) O   3                  0.00000    43.88241   
   122. RY*(  13) O   3                  0.00000     5.17088   
   123. RY*(  14) O   3                  0.00000     1.88317   
   124. RY*(  15) O   3                  0.00000     5.17089   
   125. RY*(  16) O   3                  0.00000     1.33818   
   126. RY*(  17) O   3                  0.00000     6.24720   
   127. RY*(  18) O   3                  0.00000     1.88318   
   128. RY*(  19) O   3                  0.00000     6.12588   
   129. RY*(  20) O   3                  0.00000     5.14872   
   130. RY*(  21) O   3                  0.00000     5.21848   
   131. RY*(  22) O   3                  0.00000     5.21848   
   132. RY*(  23) O   3                  0.00000     5.12913   
   133. RY*(  24) O   3                  0.00000     5.12913   
   134. RY*(  25) O   3                  0.00000     5.06651   
   135. RY*(  26) O   3                  0.00000     5.06651   
   136. BD*(   1) U   1 - O   2          0.01273    -0.26044   
   137. BD*(   2) U   1 - O   2          0.01273    -0.26044   
   138. BD*(   3) U   1 - O   2          0.23867    -0.12747  141(g),19(g),13(g),18(g)
                                                    91(g),21(g),27(g),84(g)
                                                    14(g),66(g),47(g),67(g)
                                                    113(v),88(g),117(v),29(g)
                                                    30(g),95(g),118(v)
   139. BD*(   1) U   1 - O   3          0.01273    -0.26044   
   140. BD*(   2) U   1 - O   3          0.01273    -0.26044   
   141. BD*(   3) U   1 - O   3          0.23867    -0.12747  138(g),19(g),13(g),18(g)
                                                    117(g),21(g),27(g),110(g)
                                                    14(g),66(g),47(g),67(g)
                                                    87(v),114(g),91(v),29(g)
                                                    30(g),121(g),92(v)
       -------------------------------
              Total Lewis  105.40382  ( 99.4376%)
        Valence non-Lewis    0.58307  (  0.5501%)
        Rydberg non-Lewis    0.01312  (  0.0124%)
       -------------------------------
            Total unit  1  106.00000  (100.0000%)
           Charge unit  1    2.00000
 Leave Link  607 at Thu Aug 18 11:49:38 2016, MaxMem=   402653184 cpu:        12.2
 (Enter /projects/academic/jochena/software/gaussian/g09.D01/em64t/g09/l9999.exe)
 1\1\GINC-SRV-D12-16\SP\RHF\GenECP\O2U1(2+)\TJDUIGNA\18-Aug-2016\0\\#P 
 GFINPUT POP(FULL) HF/genecp SCF=Tight pop=nboread NoSymmetry\\uo2-z\\2
 ,1\U,0,0.,0.,0.\O,0,0.,0.,1.7951\O,0,0.,0.,-1.7951\\Version=EM64L-G09R
 evD.01\HF=-199.6072907\RMSD=6.649e-09\Dipole=0.,0.,0.\Quadrupole=2.589
 8986,2.5898986,-5.1797972,0.,0.,0.\PG=D*H [O(U1),C*(O1.O1)]\\@


 WE HAVE LEARNED THAT NOTHING IS SIMPLE AND
 RATIONAL EXCEPT WHAT WE OURSELVES HAVE INVENTED;
 THAT GOD THINKS IN TERMS NEITHER OF EUCLID OR RIEMANN; THAT SCIENCE HAS "EXPLAINED" NOTHING;
 THAT THE MORE WE KNOW THE MORE FANTASTIC THE WORLD BECOMES
 AND THE PROFOUNDER THE SURROUNDING DARKNESS.
   --  ALDOUS HUXLEY
 Job cpu time:       0 days  0 hours  0 minutes 53.6 seconds.
 File lengths (MBytes):  RWF=      9 Int=      0 D2E=      0 Chk=      2 Scr=      1
 Normal termination of Gaussian 09 at Thu Aug 18 11:49:39 2016.
