 argument  1 = h2o.nw
 


============================== echo of input deck ==============================

echo
start h2o-cart
title h2o-cart

geometry units atomic
symmetry c1
O    0.015430 -1.243955  0.407682
H    2.851070  0.834185  0.489629
H   -2.682386  1.026473  0.460734
end

basis cartesian
 O library cc-pvdz
 H library cc-pvdz
end

dft
 mult 1
 grid xfine
 xc b3lyp
 iterations 100
 print "final vectors" "final vectors analysis"
end

property
 nbofile 2
end

task dft property

================================================================================


                                         
                                         
 
 
              Northwest Computational Chemistry Package (NWChem) 6.6
              ------------------------------------------------------
 
 
                    Environmental Molecular Sciences Laboratory
                       Pacific Northwest National Laboratory
                                Richland, WA 99352
 
                              Copyright (c) 1994-2015
                       Pacific Northwest National Laboratory
                            Battelle Memorial Institute
 
             NWChem is an open-source computational chemistry package
                        distributed under the terms of the
                      Educational Community License (ECL) 2.0
             A copy of the license is included with this distribution
                              in the LICENSE.TXT file
 
                                  ACKNOWLEDGMENT
                                  --------------

            This software and its documentation were developed at the
            EMSL at Pacific Northwest National Laboratory, a multiprogram
            national laboratory, operated for the U.S. Department of Energy
            by Battelle under Contract Number DE-AC05-76RL01830. Support
            for this work was provided by the Department of Energy Office
            of Biological and Environmental Research, Office of Basic
            Energy Sciences, and the Office of Advanced Scientific Computing.


           Job information
           ---------------

    hostname        = srv-k07-14.cbls.ccr.buffalo.edu
    program         = /projects/academic/jochena/software/nwchem-svn/bin/LINUX64/nwchem
    date            = Sat Sep 24 03:51:56 2016

    compiled        = Wed_Sep_14_13:31:52_2016
    source          = /projects/academic/jochena/software/nwchem-svn
    nwchem branch   = Development
    nwchem revision = 28323
    ga revision     = 10664
    input           = h2o.nw
    prefix          = h2o-cart.
    data base       = ./h2o-cart.db
    status          = startup
    nproc           =        1
    time left       =     -1s



           Memory information
           ------------------

    heap     =   13107194 doubles =    100.0 Mbytes
    stack    =   13107199 doubles =    100.0 Mbytes
    global   =   26214400 doubles =    200.0 Mbytes (distinct from heap & stack)
    total    =   52428793 doubles =    400.0 Mbytes
    verify   = yes
    hardfail = no 


           Directory information
           ---------------------
 
  0 permanent = .
  0 scratch   = .
 
 
 
 
                                NWChem Input Module
                                -------------------
 
 
                                     h2o-cart
                                     --------
 Turning off AUTOSYM since
 SYMMETRY directive was detected!
 

          ------
          auto-z
          ------
     1 autoz failed with cvr_scaling = 1.2 changing to 1.3
     2 autoz failed with cvr_scaling = 1.3 changing to 1.4
     3 autoz failed with cvr_scaling = 1.4 changing to 1.5
     4 autoz failed with cvr_scaling = 1.5 changing to 1.6
     5 autoz failed with cvr_scaling = 1.6 changing to 1.7

 AUTOZ failed to generate good internal coordinates.
 Cartesian coordinates will be used in optimizations.

 
 
                             Geometry "geometry" -> ""
                             -------------------------
 
 Output coordinates in a.u. (scale by  1.000000000 to convert to a.u.)
 
  No.       Tag          Charge          X              Y              Z
 ---- ---------------- ---------- -------------- -------------- --------------
    1 O                    8.0000    -0.01378240    -0.43485680    -0.01349990
    2 H                    1.0000     2.82185760     1.64328320     0.06844710
    3 H                    1.0000    -2.71159840     1.83557120     0.03955210
 
      Atomic Mass 
      ----------- 
 
      O                 15.994910
      H                  1.007825
 

 Effective nuclear repulsion energy (a.u.)       4.7241227517

            Nuclear Dipole moment (a.u.) 
            ----------------------------
        X                 Y               Z
 ---------------- ---------------- ----------------
     0.0000000000     0.0000000000    -0.0000000000
 
 
            XYZ format geometry
            -------------------
     3
 geometry
 O                    -0.00729333    -0.23011633    -0.00714384
 H                     1.49326284     0.86958808     0.03622065
 H                    -1.43491618     0.97134252     0.02093007
 
  library name resolved from: environment
  library file name is: <
 /projects/academic/jochena/software/nwchem-svn/src/basis/libraries/>
  
                      Basis "ao basis" -> "" (cartesian)
                      -----
  O (Oxygen)
  ----------
            Exponent  Coefficients 
       -------------- ---------------------------------------------------------
  1 S  1.17200000E+04  0.000710
  1 S  1.75900000E+03  0.005470
  1 S  4.00800000E+02  0.027837
  1 S  1.13700000E+02  0.104800
  1 S  3.70300000E+01  0.283062
  1 S  1.32700000E+01  0.448719
  1 S  5.02500000E+00  0.270952
  1 S  1.01300000E+00  0.015458
 
  2 S  1.17200000E+04 -0.000160
  2 S  1.75900000E+03 -0.001263
  2 S  4.00800000E+02 -0.006267
  2 S  1.13700000E+02 -0.025716
  2 S  3.70300000E+01 -0.070924
  2 S  1.32700000E+01 -0.165411
  2 S  5.02500000E+00 -0.116955
  2 S  1.01300000E+00  0.557368
 
  3 S  3.02300000E-01  1.000000
 
  4 P  1.77000000E+01  0.043018
  4 P  3.85400000E+00  0.228913
  4 P  1.04600000E+00  0.508728
 
  5 P  2.75300000E-01  1.000000
 
  6 D  1.18500000E+00  1.000000
 
  H (Hydrogen)
  ------------
            Exponent  Coefficients 
       -------------- ---------------------------------------------------------
  1 S  1.30100000E+01  0.019685
  1 S  1.96200000E+00  0.137977
  1 S  4.44600000E-01  0.478148
 
  2 S  1.22000000E-01  1.000000
 
  3 P  7.27000000E-01  1.000000
 


 Summary of "ao basis" -> "" (cartesian)
 ------------------------------------------------------------------------------
       Tag                 Description            Shells   Functions and Types
 ---------------- ------------------------------  ------  ---------------------
 O                          cc-pvdz                  6       15   3s2p1d
 H                          cc-pvdz                  3        5   2s1p


                              NWChem Property Module
                              ----------------------
 
 
                                     h2o-cart
 
  itol2e modified to match energy
  convergence criterion.
 
                                 NWChem DFT Module
                                 -----------------
 
 
                                     h2o-cart
 
 


 Summary of "ao basis" -> "ao basis" (cartesian)
 ------------------------------------------------------------------------------
       Tag                 Description            Shells   Functions and Types
 ---------------- ------------------------------  ------  ---------------------
 O                          cc-pvdz                  6       15   3s2p1d
 H                          cc-pvdz                  3        5   2s1p


  Caching 1-el integrals 
 
            General Information
            -------------------
          SCF calculation type: DFT
          Wavefunction type:  closed shell.
          No. of atoms     :     3
          No. of electrons :    10
           Alpha electrons :     5
            Beta electrons :     5
          Charge           :     0
          Spin multiplicity:     1
          Use of symmetry is: off; symmetry adaption is: off
          Maximum number of iterations: 100
          AO basis - number of functions:    25
                     number of shells:    12
          Convergence on energy requested:  1.00D-07
          Convergence on density requested:  1.00D-05
          Convergence on gradient requested:  5.00D-04
 
              XC Information
              --------------
                         B3LYP Method XC Potential
                     Hartree-Fock (Exact) Exchange  0.200          
                        Slater Exchange Functional  0.800 local    
                    Becke 1988 Exchange Functional  0.720 non-local
              Lee-Yang-Parr Correlation Functional  0.810          
                  VWN I RPA Correlation Functional  0.190 local    
 
             Grid Information
             ----------------
          Grid used for XC integration:  xfine     
          Radial quadrature: Mura-Knowles        
          Angular quadrature: Lebedev. 
          Tag              B.-S. Rad. Rad. Pts. Rad. Cut. Ang. Pts.
          ---              ---------- --------- --------- ---------
          O                   0.60      100           7.0      1454
          H                   0.35      100           9.0      1202
          Grid pruning is: on 
          Number of quadrature shells:   300
          Spatial weights used:  Erf1
 
          Convergence Information
          -----------------------
          Convergence aids based upon iterative change in 
          total energy or number of iterations. 
          Levelshifting, if invoked, occurs when the 
          HOMO/LUMO gap drops below (HL_TOL):  1.00D-02
          DIIS, if invoked, will attempt to extrapolate 
          using up to (NFOCK): 10 stored Fock matrices.

                    Damping( 0%)  Levelshifting(0.5)       DIIS
                  --------------- ------------------- ---------------
          dE  on:    start            ASAP                start   
          dE off:    2 iters        100 iters           100 iters 

 
      Screening Tolerance Information
      -------------------------------
          Density screening/tol_rho:  1.00D-11
          AO Gaussian exp screening on grid/accAOfunc:  16
          CD Gaussian exp screening on grid/accCDfunc:  20
          XC Gaussian exp screening on grid/accXCfunc:  20
          Schwarz screening/accCoul:  1.00D-08

 
      Superposition of Atomic Density Guess
      -------------------------------------
 
 Sum of atomic energies:         -75.76222910
 
      Non-variational initial energy
      ------------------------------

 Total energy =     -75.030345
 1-e energy   =    -113.675675
 2-e energy   =      33.921207
 HOMO         =      -0.370115
 LUMO         =      -0.144591
 
   Time after variat. SCF:      0.1
   Time prior to 1st pass:      0.1

 Integral file          = ./h2o-cart.aoints.0
 Record size in doubles =    65536    No. of integs per rec  =    43688
 Max. records in memory =        3    Max. records in file   = 87732847
 No. of bits per label  =        8    No. of bits per value  =       64


 #quartets = 3.081D+03 #integrals = 5.353D+04 #direct =  0.0% #cached =100.0%


 Grid_pts file          = ./h2o-cart.gridpts.0
 Record size in doubles =  12289        No. of grid_pts per rec  =   3070
 Max. records in memory =    158        Max. recs in file   = *********


           Memory utilization after 1st SCF pass: 
           Heap Space remaining (MW):       10.97            10967130
          Stack Space remaining (MW):       13.11            13106924

   convergence    iter        energy       DeltaE   RMS-Dens  Diis-err    time
 ---------------- ----- ----------------- --------- --------- ---------  ------
 d= 0,ls=0.0,diis     1    -75.8417136299 -8.06D+01  9.09D-02  1.32D+00     1.1
 d= 0,ls=0.0,diis     2    -74.3802762683  1.46D+00  7.01D-02  7.85D+00     1.9
 d= 0,ls=0.0,diis     3    -76.1079096592 -1.73D+00  1.44D-03  6.34D-03     2.7
 d= 0,ls=0.0,diis     4    -76.1076976203  2.12D-04  2.84D-04  7.27D-03     3.5
 d= 0,ls=0.0,diis     5    -76.1079392467 -2.42D-04  2.89D-04  5.79D-03     4.3
 d= 0,ls=0.0,diis     6    -76.1078652211  7.40D-05  2.59D-04  6.17D-03     5.2
  Resetting Diis
 d= 0,ls=0.0,diis     7    -76.1079123220 -4.71D-05  6.89D-04  5.81D-03     6.1
 d= 0,ls=0.0,diis     8    -76.1084814826 -5.69D-04  4.22D-03  1.46D-03     7.0
 d= 0,ls=0.0,diis     9    -76.1033914579  5.09D-03  3.40D-03  4.30D-02     7.8
 d= 0,ls=0.0,diis    10    -76.1086705313 -5.28D-03  1.42D-04  4.84D-05     8.7
 d= 0,ls=0.0,diis    11    -76.1086773457 -6.81D-06  3.65D-05  1.55D-06     9.6
 d= 0,ls=0.0,diis    12    -76.1086776383 -2.93D-07  5.57D-06  3.68D-09    10.4
 d= 0,ls=0.0,diis    13    -76.1086776406 -2.33D-09  1.14D-06  4.13D-10    11.3


         Total DFT energy =      -76.108677640594
      One electron energy =     -114.332287945734
           Coulomb energy =       42.419753941737
    Exchange-Corr. energy =       -8.920266388289
 Nuclear repulsion energy =        4.724122751692

 Numeric. integr. density =       10.000000004549

     Total iterative time =     11.2s


 
                       DFT Final Molecular Orbital Analysis
                       ------------------------------------
 
 Vector    1  Occ=2.000000D+00  E=-1.921896D+01
              MO Center= -7.3D-03, -2.3D-01, -7.1D-03, r^2= 1.5D-02
   Bfn.  Coefficient  Atom+Function         Bfn.  Coefficient  Atom+Function  
  ----- ------------  ---------------      ----- ------------  ---------------
     1      1.003430  1 O  s          
 
 Vector    2  Occ=2.000000D+00  E=-8.816892D-01
              MO Center= -5.9D-03, -2.0D-01, -6.1D-03, r^2= 4.8D-01
   Bfn.  Coefficient  Atom+Function         Bfn.  Coefficient  Atom+Function  
  ----- ------------  ---------------      ----- ------------  ---------------
     3      0.581491  1 O  s                  2      0.503535  1 O  s          
    16      0.028661  2 H  s                 21      0.028324  3 H  s          
 
 Vector    3  Occ=2.000000D+00  E=-3.458037D-01
              MO Center=  2.1D-02,  2.4D-01,  7.6D-03, r^2= 1.9D+00
   Bfn.  Coefficient  Atom+Function         Bfn.  Coefficient  Atom+Function  
  ----- ------------  ---------------      ----- ------------  ---------------
     4      0.473247  1 O  px                 7      0.324213  1 O  px         
    16      0.248856  2 H  s                 21     -0.243150  3 H  s          
    17      0.220846  2 H  s                 22     -0.216424  3 H  s          
 
 Vector    4  Occ=2.000000D+00  E=-3.281798D-01
              MO Center= -6.8D-03,  2.3D-01,  7.2D-03, r^2= 1.8D+00
   Bfn.  Coefficient  Atom+Function         Bfn.  Coefficient  Atom+Function  
  ----- ------------  ---------------      ----- ------------  ---------------
     5      0.479524  1 O  py                 8      0.338406  1 O  py         
    21      0.243817  3 H  s                 16      0.238036  2 H  s          
    22      0.216730  3 H  s                 17      0.211161  2 H  s          
     3     -0.140380  1 O  s                  2     -0.080267  1 O  s          
 
 Vector    5  Occ=2.000000D+00  E=-2.882247D-01
              MO Center= -7.1D-03, -2.3D-01, -7.0D-03, r^2= 5.6D-01
   Bfn.  Coefficient  Atom+Function         Bfn.  Coefficient  Atom+Function  
  ----- ------------  ---------------      ----- ------------  ---------------
     6      0.669220  1 O  pz                 9      0.478426  1 O  pz         
 
 Vector    6  Occ=0.000000D+00  E=-1.603935D-01
              MO Center= -1.1D-02,  4.6D-01,  1.4D-02, r^2= 2.6D+00
   Bfn.  Coefficient  Atom+Function         Bfn.  Coefficient  Atom+Function  
  ----- ------------  ---------------      ----- ------------  ---------------
     5      0.460691  1 O  py                 8      0.370439  1 O  py         
    22     -0.353493  3 H  s                 17     -0.343746  2 H  s          
    21     -0.293558  3 H  s                 16     -0.284589  2 H  s          
     3      0.173962  1 O  s                  2      0.076214  1 O  s          
 
 Vector    7  Occ=0.000000D+00  E=-1.348558D-01
              MO Center=  4.2D-02,  4.9D-01,  1.5D-02, r^2= 2.6D+00
   Bfn.  Coefficient  Atom+Function         Bfn.  Coefficient  Atom+Function  
  ----- ------------  ---------------      ----- ------------  ---------------
     4      0.477725  1 O  px                 7      0.393061  1 O  px         
    17     -0.379470  2 H  s                 22      0.368308  3 H  s          
    16     -0.313349  2 H  s                 21      0.305101  3 H  s          
 
 Vector    8  Occ=0.000000D+00  E= 4.180465D-01
              MO Center=  4.2D-02,  1.0D+00,  3.1D-02, r^2= 4.1D+00
   Bfn.  Coefficient  Atom+Function         Bfn.  Coefficient  Atom+Function  
  ----- ------------  ---------------      ----- ------------  ---------------
    17     -0.906591  2 H  s                 22     -0.899816  3 H  s          
    16      0.883608  2 H  s                 21      0.878494  3 H  s          
     3      0.338318  1 O  s                  8      0.185874  1 O  py         
     5     -0.092575  1 O  py                15     -0.025631  1 O  dzz        
 
 Vector    9  Occ=0.000000D+00  E= 4.696380D-01
              MO Center=  2.3D-02,  1.0D+00,  3.1D-02, r^2= 4.7D+00
   Bfn.  Coefficient  Atom+Function         Bfn.  Coefficient  Atom+Function  
  ----- ------------  ---------------      ----- ------------  ---------------
    17      1.056038  2 H  s                 22     -1.061156  3 H  s          
    21      0.907905  3 H  s                 16     -0.902170  2 H  s          
     7     -0.246471  1 O  px                 4      0.072168  1 O  px         
    18      0.049926  2 H  px                23      0.048773  3 H  px         
    11     -0.033066  1 O  dxy        
 
 Vector   10  Occ=0.000000D+00  E= 8.895593D-01
              MO Center= -2.1D-03, -1.1D-01, -3.3D-03, r^2= 1.4D+00
   Bfn.  Coefficient  Atom+Function         Bfn.  Coefficient  Atom+Function  
  ----- ------------  ---------------      ----- ------------  ---------------
     9     -0.979295  1 O  pz                 6      0.895163  1 O  pz         
    20     -0.191320  2 H  pz                25     -0.189938  3 H  pz         
     8      0.030206  1 O  py                 5     -0.027611  1 O  py         
 
 Vector   11  Occ=0.000000D+00  E= 8.944269D-01
              MO Center= -3.8D-02,  1.9D-01,  5.7D-03, r^2= 1.7D+00
   Bfn.  Coefficient  Atom+Function         Bfn.  Coefficient  Atom+Function  
  ----- ------------  ---------------      ----- ------------  ---------------
     8     -0.876625  1 O  py                 5      0.820572  1 O  py         
     3     -0.281002  1 O  s                 23     -0.274746  3 H  px         
    18      0.259377  2 H  px                 2      0.215789  1 O  s          
    21      0.139555  3 H  s                 16      0.120198  2 H  s          
     1      0.091349  1 O  s                 24      0.065551  3 H  py         
 
 Vector   12  Occ=0.000000D+00  E= 9.056194D-01
              MO Center=  4.1D-02,  8.7D-02,  2.9D-03, r^2= 1.8D+00
   Bfn.  Coefficient  Atom+Function         Bfn.  Coefficient  Atom+Function  
  ----- ------------  ---------------      ----- ------------  ---------------
     7     -0.882263  1 O  px                 4      0.829652  1 O  px         
    24     -0.243275  3 H  py                19      0.237516  2 H  py         
    16      0.169813  2 H  s                 18      0.155778  2 H  px         
    21     -0.149488  3 H  s                 23      0.105339  3 H  px         
    11     -0.033433  1 O  dxy               17      0.031168  2 H  s          
 
 Vector   13  Occ=0.000000D+00  E= 9.824977D-01
              MO Center= -1.1D-03, -2.1D-01, -6.4D-03, r^2= 1.9D+00
   Bfn.  Coefficient  Atom+Function         Bfn.  Coefficient  Atom+Function  
  ----- ------------  ---------------      ----- ------------  ---------------
     3      1.432838  1 O  s                  2     -1.016832  1 O  s          
     1     -0.447776  1 O  s                  8     -0.376812  1 O  py         
     5      0.314188  1 O  py                24     -0.266706  3 H  py         
    19     -0.258240  2 H  py                15     -0.211524  1 O  dzz        
    13     -0.192283  1 O  dyy               18     -0.173838  2 H  px         
 
 Vector   14  Occ=0.000000D+00  E= 1.231100D+00
              MO Center=  1.6D-02,  9.2D-01,  2.8D-02, r^2= 2.6D+00
   Bfn.  Coefficient  Atom+Function         Bfn.  Coefficient  Atom+Function  
  ----- ------------  ---------------      ----- ------------  ---------------
    25     -0.709324  3 H  pz                20      0.703004  2 H  pz         
    12      0.053866  1 O  dxz        
 
 Vector   15  Occ=0.000000D+00  E= 1.235697D+00
              MO Center=  2.2D-02,  9.2D-01,  2.9D-02, r^2= 2.6D+00
   Bfn.  Coefficient  Atom+Function         Bfn.  Coefficient  Atom+Function  
  ----- ------------  ---------------      ----- ------------  ---------------
    23      0.589717  3 H  px                18      0.559858  2 H  px         
    19     -0.425975  2 H  py                24      0.389997  3 H  py         
    17     -0.100272  2 H  s                 22      0.099780  3 H  s          
    11     -0.077707  1 O  dxy               16      0.075780  2 H  s          
    21     -0.075356  3 H  s                  4      0.034979  1 O  px         
 
 Vector   16  Occ=0.000000D+00  E= 1.257636D+00
              MO Center=  2.9D-02,  7.7D-01,  2.4D-02, r^2= 2.8D+00
   Bfn.  Coefficient  Atom+Function         Bfn.  Coefficient  Atom+Function  
  ----- ------------  ---------------      ----- ------------  ---------------
    19      0.595580  2 H  py                24      0.571398  3 H  py         
    23      0.375188  3 H  px                 3      0.369123  1 O  s          
    18     -0.340387  2 H  px                 8     -0.248776  1 O  py         
     2     -0.229831  1 O  s                  5      0.202716  1 O  py         
     1     -0.107364  1 O  s                 10     -0.086394  1 O  dxx        
 
 Vector   17  Occ=0.000000D+00  E= 1.285919D+00
              MO Center=  3.7D-02,  7.9D-01,  2.5D-02, r^2= 2.7D+00
   Bfn.  Coefficient  Atom+Function         Bfn.  Coefficient  Atom+Function  
  ----- ------------  ---------------      ----- ------------  ---------------
    20      0.686938  2 H  pz                25      0.680743  3 H  pz         
     9     -0.399944  1 O  pz                 6      0.296454  1 O  pz         
    14      0.043803  1 O  dyz        
 
 Vector   18  Occ=0.000000D+00  E= 1.505093D+00
              MO Center=  1.0D-02,  4.5D-01,  1.4D-02, r^2= 2.7D+00
   Bfn.  Coefficient  Atom+Function         Bfn.  Coefficient  Atom+Function  
  ----- ------------  ---------------      ----- ------------  ---------------
     7      0.873641  1 O  px                24     -0.560300  3 H  py         
    19      0.533783  2 H  py                 4     -0.495576  1 O  px         
    18      0.420798  2 H  px                23      0.388054  3 H  px         
    11     -0.313618  1 O  dxy               17     -0.281718  2 H  s          
    22      0.281541  3 H  s                 21     -0.035835  3 H  s          
 
 Vector   19  Occ=0.000000D+00  E= 1.707370D+00
              MO Center=  2.4D-02,  6.1D-01,  1.9D-02, r^2= 2.2D+00
   Bfn.  Coefficient  Atom+Function         Bfn.  Coefficient  Atom+Function  
  ----- ------------  ---------------      ----- ------------  ---------------
     3      1.414151  1 O  s                  2     -0.880343  1 O  s          
     8      0.611550  1 O  py                18      0.579907  2 H  px         
    23     -0.555028  3 H  px                 1     -0.418234  1 O  s          
    24      0.335743  3 H  py                 5     -0.324180  1 O  py         
    19      0.299897  2 H  py                17     -0.282740  2 H  s          
 
 Vector   20  Occ=0.000000D+00  E= 2.586587D+00
              MO Center= -7.3D-03, -2.3D-01, -7.2D-03, r^2= 4.3D-01
   Bfn.  Coefficient  Atom+Function         Bfn.  Coefficient  Atom+Function  
  ----- ------------  ---------------      ----- ------------  ---------------
    13      0.948671  1 O  dyy               10     -0.737978  1 O  dxx        
    15     -0.207972  1 O  dzz               11      0.116898  1 O  dxy        
    14      0.072157  1 O  dyz               19     -0.043710  2 H  py         
    24     -0.043064  3 H  py                 3     -0.037067  1 O  s          
     2      0.025385  1 O  s          
 
 Vector   21  Occ=0.000000D+00  E= 2.604769D+00
              MO Center= -7.3D-03, -2.3D-01, -7.1D-03, r^2= 4.2D-01
   Bfn.  Coefficient  Atom+Function         Bfn.  Coefficient  Atom+Function  
  ----- ------------  ---------------      ----- ------------  ---------------
    12      1.719995  1 O  dxz               14     -0.189895  1 O  dyz        
    11     -0.051860  1 O  dxy               25      0.031345  3 H  pz         
    20     -0.028366  2 H  pz         
 
 Vector   22  Occ=0.000000D+00  E= 2.605329D+00
              MO Center= -7.1D-03, -2.3D-01, -7.2D-03, r^2= 4.2D-01
   Bfn.  Coefficient  Atom+Function         Bfn.  Coefficient  Atom+Function  
  ----- ------------  ---------------      ----- ------------  ---------------
    14      1.717742  1 O  dyz               12      0.189119  1 O  dxz        
    15      0.054228  1 O  dzz               13     -0.053035  1 O  dyy        
    20     -0.026809  2 H  pz         
 
 Vector   23  Occ=0.000000D+00  E= 2.650452D+00
              MO Center= -1.3D-02, -1.9D-01, -6.1D-03, r^2= 5.1D-01
   Bfn.  Coefficient  Atom+Function         Bfn.  Coefficient  Atom+Function  
  ----- ------------  ---------------      ----- ------------  ---------------
    15      0.956790  1 O  dzz               10     -0.666244  1 O  dxx        
    13     -0.317894  1 O  dyy                3     -0.192059  1 O  s          
     2      0.171854  1 O  s                 23      0.115356  3 H  px         
    11      0.114771  1 O  dxy                8     -0.109121  1 O  py         
    18     -0.106631  2 H  px                24     -0.095599  3 H  py         
 
 Vector   24  Occ=0.000000D+00  E= 2.669025D+00
              MO Center=  3.8D-03, -1.6D-01, -4.8D-03, r^2= 6.0D-01
   Bfn.  Coefficient  Atom+Function         Bfn.  Coefficient  Atom+Function  
  ----- ------------  ---------------      ----- ------------  ---------------
    11      1.699540  1 O  dxy                7      0.202574  1 O  px         
    18      0.163559  2 H  px                23      0.140063  3 H  px         
    19      0.123706  2 H  py                24     -0.122363  3 H  py         
     4     -0.098544  1 O  px                10      0.093798  1 O  dxx        
    17     -0.093116  2 H  s                 22      0.086564  3 H  s          
 
 Vector   25  Occ=0.000000D+00  E= 5.198073D+00
              MO Center= -6.8D-03, -2.2D-01, -6.7D-03, r^2= 6.2D-01
   Bfn.  Coefficient  Atom+Function         Bfn.  Coefficient  Atom+Function  
  ----- ------------  ---------------      ----- ------------  ---------------
     2      1.694920  1 O  s                  3      1.569198  1 O  s          
    15     -1.428827  1 O  dzz               13     -1.392091  1 O  dyy        
    10     -1.373819  1 O  dxx                1      0.356266  1 O  s          
    17     -0.139131  2 H  s                 22     -0.138414  3 H  s          
     8      0.129442  1 O  py                18      0.097631  2 H  px         
 
                                 Final MO vectors
                                 ----------------
 

 global array: alpha evecs[1:25,1:25],  handle: -995 

            1           2           3           4           5           6  
       ----------- ----------- ----------- ----------- ----------- -----------
   1       1.00343    -0.00407    -0.00000    -0.00158    -0.00000     0.00038
   2       0.01136     0.50353    -0.00122    -0.08027    -0.00000     0.07621
   3       0.00060     0.58149    -0.00226    -0.14038    -0.00000     0.17396
   4       0.00002     0.00085     0.47325     0.01079    -0.00421     0.00865
   5       0.00052     0.02087    -0.01040     0.47952    -0.02064     0.46069
   6       0.00002     0.00065     0.00266     0.01486     0.66922     0.01426
   7      -0.00001     0.00047     0.32421     0.00760    -0.00301     0.00704
   8      -0.00020     0.01139    -0.00713     0.33841    -0.01476     0.37044
   9      -0.00001     0.00035     0.00182     0.01049     0.47843     0.01147
  10      -0.00534    -0.00531     0.00072     0.00482    -0.00000    -0.01034
  11       0.00000    -0.00003     0.01792     0.00011    -0.00007     0.00064
  12      -0.00000     0.00012     0.00056     0.00007     0.00035    -0.00005
  13      -0.00534    -0.00600    -0.00048     0.00860    -0.00027    -0.00217
  14      -0.00000     0.00056     0.00008     0.00056     0.00889     0.00015
  15      -0.00531    -0.01514     0.00001    -0.00053     0.00028    -0.00459
  16       0.00002     0.02866     0.24886     0.23804     0.00000    -0.28459
  17       0.00001     0.01813     0.22085     0.21116     0.00000    -0.34375
  18      -0.00002    -0.00418    -0.00425    -0.00602    -0.00005    -0.01392
  19      -0.00000    -0.00303    -0.00716     0.00219    -0.00026    -0.00526
  20      -0.00000    -0.00012    -0.00025     0.00003     0.00850    -0.00025
  21       0.00002     0.02832    -0.24315     0.24382    -0.00000    -0.29356
  22       0.00001     0.01807    -0.21642     0.21673    -0.00000    -0.35349
  23       0.00002     0.00395    -0.00360     0.00617    -0.00005     0.01379
  24      -0.00001    -0.00329     0.00741     0.00162    -0.00026    -0.00659
  25      -0.00000    -0.00008     0.00021     0.00009     0.00843    -0.00012

            7           8           9          10          11          12  
       ----------- ----------- ----------- ----------- ----------- -----------
   1      -0.00002    -0.01857     0.00019     0.00000     0.09135     0.00454
   2       0.00136     0.01944     0.00067     0.00000     0.21579     0.01099
   3       0.00352     0.33832    -0.00060    -0.00000    -0.28100    -0.01335
   4       0.47772    -0.00428     0.07217    -0.00563    -0.02813     0.82965
   5      -0.00957    -0.09258    -0.00199    -0.02761     0.82057     0.02859
   6       0.00271    -0.00288     0.00039     0.89516     0.02513     0.00610
   7       0.39306     0.00718    -0.24647     0.00616     0.02963    -0.88226
   8      -0.00780     0.18587     0.00866     0.03021    -0.87662    -0.03096
   9       0.00223     0.00578    -0.00128    -0.97930    -0.02685    -0.00651
  10      -0.00037    -0.00485    -0.00113     0.00000     0.02471    -0.00026
  11      -0.00605    -0.00023    -0.03307     0.00004     0.00232    -0.03343
  12      -0.00019     0.00025    -0.00104    -0.00031    -0.00015    -0.00106
  13       0.00013    -0.01361     0.00114     0.00016     0.02677     0.00214
  14      -0.00002     0.00074    -0.00014    -0.00515    -0.00094    -0.00020
  15      -0.00010    -0.02563     0.00010    -0.00016     0.04219     0.00196
  16      -0.31335     0.88361    -0.90217     0.00000     0.12020     0.16981
  17      -0.37947    -0.90659     1.05604     0.00000     0.04234     0.03117
  18      -0.01230    -0.00676     0.04993     0.00120     0.25938     0.15578
  19      -0.01326    -0.01891     0.01718     0.00590     0.01451     0.23752
  20      -0.00049    -0.00063     0.00084    -0.19132     0.00208     0.00831
  21       0.30510     0.87849     0.90790    -0.00000     0.13956    -0.14949
  22       0.36831    -0.89982    -1.06116    -0.00000     0.04743    -0.02760
  23      -0.01098     0.00524     0.04877     0.00120    -0.27475     0.10534
  24       0.01382    -0.01923    -0.02068     0.00586     0.06555    -0.24327
  25       0.00036    -0.00056    -0.00033    -0.18994     0.00029    -0.00684

           13          14          15          16          17          18  
       ----------- ----------- ----------- ----------- ----------- -----------
   1      -0.44778     0.00000     0.00020    -0.10736     0.00000     0.00021
   2      -1.01683     0.00000     0.00061    -0.22983     0.00000     0.00098
   3       1.43284    -0.00000    -0.00018     0.36912    -0.00000     0.00068
   4       0.00752     0.00000     0.03498     0.00744    -0.00187    -0.49558
   5       0.31419     0.00000    -0.00078     0.20272    -0.00914     0.01839
   6       0.00974    -0.00015     0.00020     0.00630     0.29645    -0.00255
   7      -0.00991     0.00000     0.00519    -0.00928     0.00252     0.87364
   8      -0.37681     0.00000    -0.00020    -0.24878     0.01234    -0.03086
   9      -0.01169    -0.00001     0.00003    -0.00773    -0.39994     0.00455
  10      -0.16846    -0.00034    -0.00244    -0.08639    -0.00001    -0.01137
  11      -0.00108    -0.00165    -0.07771     0.00557    -0.00035    -0.31362
  12       0.00051     0.05387    -0.00243    -0.00043     0.00229    -0.00982
  13      -0.19228     0.00005     0.00233    -0.01373    -0.00135     0.01045
  14       0.00118    -0.00157    -0.00035     0.00155     0.04380    -0.00134
  15      -0.21152     0.00029     0.00005    -0.03833     0.00137     0.00009
  16       0.04911     0.00000     0.07578     0.06808    -0.00000     0.03509
  17      -0.13804    -0.00000    -0.10027    -0.07323     0.00000    -0.28172
  18      -0.17384    -0.00442     0.55986    -0.34039    -0.00432     0.42080
  19      -0.25824    -0.02168    -0.42598     0.59558    -0.02119     0.53378
  20      -0.00906     0.70300    -0.00962     0.01623     0.68694     0.01911
  21       0.05097    -0.00000    -0.07536     0.06837    -0.00000    -0.03584
  22      -0.13809     0.00000     0.09978    -0.07408     0.00000     0.28154
  23       0.15566     0.00446     0.58972     0.37519    -0.00428     0.38805
  24      -0.26671     0.02188     0.39000     0.57140    -0.02100    -0.56030
  25      -0.00725    -0.70932     0.01574     0.01999     0.68074    -0.01484

           19          20          21          22          23          24  
       ----------- ----------- ----------- ----------- ----------- -----------
   1      -0.41823     0.01189     0.00000     0.00000     0.07301    -0.00505
   2      -0.88034     0.02539     0.00000     0.00000     0.17185    -0.01161
   3       1.41415    -0.03707    -0.00000    -0.00000    -0.19206     0.01393
   4      -0.01172    -0.00003    -0.00000     0.00006    -0.00297    -0.09854
   5      -0.32418    -0.00028    -0.00002     0.00027     0.05246    -0.00020
   6      -0.01007    -0.00001     0.00057    -0.00875     0.00160    -0.00063
   7       0.02387    -0.00039     0.00000    -0.00004     0.00575     0.20257
   8       0.61155    -0.01291     0.00001    -0.00018    -0.10912     0.00084
   9       0.01901    -0.00040    -0.00032     0.00580    -0.00333     0.00130
  10      -0.24977    -0.73798    -0.01083    -0.00119    -0.66624     0.09380
  11       0.00179     0.11690    -0.05186    -0.01667     0.11477     1.69954
  12      -0.00311    -0.00305     1.71999     0.18912    -0.01691     0.05424
  13      -0.16277     0.94867     0.00585    -0.05304    -0.31789    -0.04273
  14      -0.01012     0.07216    -0.18989     1.71774    -0.07799     0.01116
  15       0.00125    -0.20797     0.00497     0.05423     0.95679    -0.04993
  16       0.00752     0.00183     0.00000    -0.00000     0.01734    -0.01555
  17      -0.28274     0.00987     0.00000    -0.00000     0.04663    -0.09312
  18       0.57991     0.00132     0.00018     0.00017    -0.10663     0.16356
  19       0.29990    -0.04371     0.00087     0.00083    -0.07661     0.12371
  20       0.01290    -0.00134    -0.02837    -0.02681    -0.00303     0.00485
  21       0.00872     0.00172     0.00000     0.00000     0.01801     0.01245
  22      -0.28012     0.01012     0.00000     0.00000     0.05566     0.08656
  23      -0.55503    -0.00343    -0.00020     0.00014     0.11536     0.14006
  24       0.33574    -0.04306    -0.00097     0.00067    -0.09560    -0.12236
  25       0.00686    -0.00135     0.03135    -0.02169    -0.00222    -0.00289

           25  
       -----------
   1       0.35627
   2       1.69492
   3       1.56920
   4      -0.00194
   5      -0.05103
   6      -0.00159
   7       0.00516
   8       0.12944
   9       0.00403
  10      -1.37382
  11      -0.00056
  12       0.00068
  13      -1.39209
  14       0.00227
  15      -1.42883
  16      -0.00035
  17      -0.13913
  18       0.09763
  19       0.06592
  20       0.00265
  21       0.00035
  22      -0.13841
  23      -0.09263
  24       0.07206
  25       0.00164

 center of mass
 --------------
 x =  -0.00607012 y =  -0.19152203 z =  -0.00594570

 moments of inertia (a.u.)
 ------------------
           8.489778083222           0.267957938547          -0.088896722541
           0.267957938547          15.446442418338          -0.259916186597
          -0.088896722541          -0.259916186597          23.919067287596
 
     Multipole analysis of the density
     ---------------------------------
 
     L   x y z        total         alpha         beta         nuclear
     -   - - -        -----         -----         ----         -------
     0   0 0 0     -0.000000     -5.000000     -5.000000     10.000000
 
     1   1 0 0      0.023387      0.011694      0.011694      0.000000
     1   0 1 0      0.671812      0.335906      0.335906      0.000000
     1   0 0 1      0.020869      0.010435      0.010435     -0.000000
 
     2   2 0 0     -2.382658     -8.849912     -8.849912     15.317166
     2   1 1 0     -0.066183      0.113046      0.113046     -0.292274
     2   1 0 1      0.021850     -0.032768     -0.032768      0.087387
     2   0 2 0     -4.284299     -5.933402     -5.933402      7.582505
     2   0 1 1      0.058017     -0.087013     -0.087013      0.232043
     2   0 0 2     -6.176793     -3.092250     -3.092250      0.007707
 

 Parallel integral file used       2 records with       0 large values


 Input for gennbo program written to file ./h2o-cart.gen.
 Reading MOs from: 
 ./h2o-cart.movecs                                                              
                                                                                
                                                                                
                   

 Task  times  cpu:       11.3s     wall:       12.4s
 
 
                                NWChem Input Module
                                -------------------
 
 
 Summary of allocated global arrays
-----------------------------------
  No active global arrays



                         GA Statistics for process    0
                         ------------------------------

       create   destroy   get      put      acc     scatter   gather  read&inc
calls:  199      199     1.04e+04  753     7721        2        0      461     
number of processes/call 1.00e+00 1.00e+00 1.00e+00 1.00e+00 0.00e+00
bytes total:             7.53e+06 1.04e+06 4.97e+06 4.00e+02 0.00e+00 3.69e+03
bytes remote:            0.00e+00 0.00e+00 0.00e+00 0.00e+00 0.00e+00 0.00e+00
Max memory consumed for GA by this process: 195000 bytes
 
MA_summarize_allocated_blocks: starting scan ...
MA_summarize_allocated_blocks: scan completed: 0 heap blocks, 0 stack blocks
MA usage statistics:

	allocation statistics:
					      heap	     stack
					      ----	     -----
	current number of blocks	         0	         0
	maximum number of blocks	        21	        51
	current total bytes		         0	         0
	maximum total bytes		  17120520	  22510872
	maximum total K-bytes		     17121	     22511
	maximum total M-bytes		        18	        23
 
 
                                     CITATION
                                     --------
                Please cite the following reference when publishing
                           results obtained with NWChem:
 
                 M. Valiev, E.J. Bylaska, N. Govind, K. Kowalski,
              T.P. Straatsma, H.J.J. van Dam, D. Wang, J. Nieplocha,
                        E. Apra, T.L. Windus, W.A. de Jong
                 "NWChem: a comprehensive and scalable open-source
                  solution for large scale molecular simulations"
                      Comput. Phys. Commun. 181, 1477 (2010)
                           doi:10.1016/j.cpc.2010.04.018
 
                                      AUTHORS
                                      -------
          E. Apra, E. J. Bylaska, W. A. de Jong, N. Govind, K. Kowalski,
       T. P. Straatsma, M. Valiev, H. J. J. van Dam, D. Wang, T. L. Windus,
        J. Hammond, J. Autschbach, K. Bhaskaran-Nair, J. Brabec, K. Lopata,
       S. A. Fischer, S. Krishnamoorthy, W. Ma, M. Klemm, O. Villa, Y. Chen,
    V. Anisimov, F. Aquino, S. Hirata, M. T. Hackler, T. Risthaus, M. Malagoli,
       A. Marenich, A. Otero-de-la-Roza, J. Mullin, P. Nichols, R. Peverati,
     J. Pittner, Y. Zhao, P.-D. Fan, A. Fonari, M. Williamson, R. J. Harrison,
       J. R. Rehr, M. Dupuis, D. Silverstein, D. M. A. Smith, J. Nieplocha,
        V. Tipparaju, M. Krishnan, B. E. Van Kuiken, A. Vazquez-Mayagoitia,
        L. Jensen, M. Swart, Q. Wu, T. Van Voorhis, A. A. Auer, M. Nooijen,
      L. D. Crosby, E. Brown, G. Cisneros, G. I. Fann, H. Fruchtl, J. Garza,
        K. Hirao, R. A. Kendall, J. A. Nichols, K. Tsemekhman, K. Wolinski,
     J. Anchell, D. E. Bernholdt, P. Borowski, T. Clark, D. Clerc, H. Dachsel,
   M. J. O. Deegan, K. Dyall, D. Elwood, E. Glendening, M. Gutowski, A. C. Hess,
         J. Jaffe, B. G. Johnson, J. Ju, R. Kobayashi, R. Kutteh, Z. Lin,
   R. Littlefield, X. Long, B. Meng, T. Nakajima, S. Niu, L. Pollack, M. Rosing,
   K. Glaesemann, G. Sandrone, M. Stave, H. Taylor, G. Thomas, J. H. van Lenthe,
                               A. T. Wong, Z. Zhang.

 Total times  cpu:       11.3s     wall:       13.1s
