 argument  1 = uo2-z.nw
 


============================== echo of input deck ==============================
echo
start uo2-z
title uo2-z

geometry nocenter noautoz
symmetry c1
U   0.0000  0.0000  0.0000
O   0.0000  0.0000  1.7951
O   0.0000  0.0000 -1.7951
end

basis spherical
 U library "Stuttgart RLC ECP"
 O library cc-pvtz
end

ecp
 U library stuttgart_rlc_ecp
end

charge 2

dft
 mult 1
 grid xfine
 print "final vectors" "final vectors analysis"
 xc b3lyp
end

property
 nbofile 2
end

task dft property

================================================================================


                                         
                                         
 
 
              Northwest Computational Chemistry Package (NWChem) 6.6
              ------------------------------------------------------
 
 
                    Environmental Molecular Sciences Laboratory
                       Pacific Northwest National Laboratory
                                Richland, WA 99352
 
                              Copyright (c) 1994-2015
                       Pacific Northwest National Laboratory
                            Battelle Memorial Institute
 
             NWChem is an open-source computational chemistry package
                        distributed under the terms of the
                      Educational Community License (ECL) 2.0
             A copy of the license is included with this distribution
                              in the LICENSE.TXT file
 
                                  ACKNOWLEDGMENT
                                  --------------

            This software and its documentation were developed at the
            EMSL at Pacific Northwest National Laboratory, a multiprogram
            national laboratory, operated for the U.S. Department of Energy
            by Battelle under Contract Number DE-AC05-76RL01830. Support
            for this work was provided by the Department of Energy Office
            of Biological and Environmental Research, Office of Basic
            Energy Sciences, and the Office of Advanced Scientific Computing.


           Job information
           ---------------

    hostname        = srv-k07-14.cbls.ccr.buffalo.edu
    program         = /projects/academic/jochena/software/nwchem-svn/bin/LINUX64/nwchem
    date            = Fri Sep 30 21:59:56 2016

    compiled        = Wed_Sep_14_13:31:52_2016
    source          = /projects/academic/jochena/software/nwchem-svn
    nwchem branch   = Development
    nwchem revision = 28323
    ga revision     = 10664
    input           = uo2-z.nw
    prefix          = uo2-z.
    data base       = ./uo2-z.db
    status          = startup
    nproc           =        1
    time left       =     -1s



           Memory information
           ------------------

    heap     =   13107194 doubles =    100.0 Mbytes
    stack    =   13107199 doubles =    100.0 Mbytes
    global   =   26214400 doubles =    200.0 Mbytes (distinct from heap & stack)
    total    =   52428793 doubles =    400.0 Mbytes
    verify   = yes
    hardfail = no 


           Directory information
           ---------------------
 
  0 permanent = .
  0 scratch   = .
 
 
 
 
                                NWChem Input Module
                                -------------------
 
 
                                       uo2-z
                                       -----

 Scaling coordinates for geometry "geometry" by  1.889725989
 (inverse scale =  0.529177249)

 Turning off AUTOSYM since
 SYMMETRY directive was detected!
 
 
 
                             Geometry "geometry" -> ""
                             -------------------------
 
 Output coordinates in angstroms (scale by  1.889725989 to convert to a.u.)
 
  No.       Tag          Charge          X              Y              Z
 ---- ---------------- ---------- -------------- -------------- --------------
    1 U                   92.0000     0.00000000     0.00000000     0.00000000
    2 O                    8.0000     0.00000000     0.00000000     1.79510000
    3 O                    8.0000     0.00000000     0.00000000    -1.79510000
 
      Atomic Mass 
      ----------- 
 
      U                238.050800
      O                 15.994910
 

 Effective nuclear repulsion energy (a.u.)     443.3639254056

            Nuclear Dipole moment (a.u.) 
            ----------------------------
        X                 Y               Z
 ---------------- ---------------- ----------------
     0.0000000000     0.0000000000     0.0000000000
 
 
            XYZ format geometry
            -------------------
     3
 geometry
 U                     0.00000000     0.00000000     0.00000000
 O                     0.00000000     0.00000000     1.79510000
 O                     0.00000000     0.00000000    -1.79510000
 
 ==============================================================================
                                internuclear distances
 ------------------------------------------------------------------------------
       center one      |      center two      | atomic units |  angstroms
 ------------------------------------------------------------------------------
    2 O                |   1 U                |     3.39225  |     1.79510
    3 O                |   1 U                |     3.39225  |     1.79510
 ------------------------------------------------------------------------------
                         number of included internuclear distances:          2
 ==============================================================================



 ==============================================================================
                                 internuclear angles
 ------------------------------------------------------------------------------
        center 1       |       center 2       |       center 3       |  degrees
 ------------------------------------------------------------------------------
    2 O                |   1 U                |   3 O                |   180.00
 ------------------------------------------------------------------------------
                            number of included internuclear angles:          1
 ==============================================================================



  library name resolved from: environment
  library file name is: <
 /projects/academic/jochena/software/nwchem-svn/src/basis/libraries/>
  
                      Basis "ao basis" -> "" (spherical)
                      -----
  U (Uranium)
  -----------
            Exponent  Coefficients 
       -------------- ---------------------------------------------------------
  1 S  1.21252530E+01  0.021921
  1 S  7.16154500E+00 -0.225160
  1 S  4.77483600E+00  0.560299
  1 S  2.01169300E+00 -1.071209
 
  2 S  5.86852000E-01  1.000000
 
  3 S  2.79115000E-01  1.000000
 
  4 S  6.33720000E-02  1.000000
 
  5 S  2.56110000E-02  1.000000
 
  6 P  1.72547700E+01  0.001398
  6 P  7.73535600E+00 -0.033346
  6 P  5.15587800E+00  0.110578
  6 P  2.24167000E+00 -0.317268
 
  7 P  5.81858000E-01  1.000000
 
  8 P  2.67908000E-01  1.000000
 
  9 P  8.34420000E-02  1.000000
 
 10 P  3.21300000E-02  1.000000
 
 11 D  4.84107000E+00  0.005731
 11 D  2.16016200E+00 -0.057236
 11 D  5.75630000E-01  0.238828
 
 12 D  2.78136000E-01  1.000000
 
 13 D  1.24879000E-01  1.000000
 
 14 D  5.15480000E-02  1.000000
 
 15 F  2.43644100E+00  0.355011
 15 F  1.14468200E+00  0.400846
 15 F  5.29693000E-01  0.304679
 
 16 F  2.40596000E-01  1.000000
 
 17 F  1.01867000E-01  1.000000
 
 18 G  1.18000000E+00  1.000000
 
 19 G  4.20000000E-01  1.000000
 
  O (Oxygen)
  ----------
            Exponent  Coefficients 
       -------------- ---------------------------------------------------------
  1 S  1.53300000E+04  0.000508
  1 S  2.29900000E+03  0.003929
  1 S  5.22400000E+02  0.020243
  1 S  1.47300000E+02  0.079181
  1 S  4.75500000E+01  0.230687
  1 S  1.67600000E+01  0.433118
  1 S  6.20700000E+00  0.350260
  1 S  6.88200000E-01 -0.008154
 
  2 S  1.53300000E+04 -0.000115
  2 S  2.29900000E+03 -0.000895
  2 S  5.22400000E+02 -0.004636
  2 S  1.47300000E+02 -0.018724
  2 S  4.75500000E+01 -0.058463
  2 S  1.67600000E+01 -0.136463
  2 S  6.20700000E+00 -0.175740
  2 S  6.88200000E-01  0.603418
 
  3 S  1.75200000E+00  1.000000
 
  4 S  2.38400000E-01  1.000000
 
  5 P  3.44600000E+01  0.015928
  5 P  7.74900000E+00  0.099740
  5 P  2.28000000E+00  0.310492
 
  6 P  7.15600000E-01  1.000000
 
  7 P  2.14000000E-01  1.000000
 
  8 D  2.31400000E+00  1.000000
 
  9 D  6.45000000E-01  1.000000
 
 10 F  1.42800000E+00  1.000000
 


 Summary of "ao basis" -> "" (spherical)
 ------------------------------------------------------------------------------
       Tag                 Description            Shells   Functions and Types
 ---------------- ------------------------------  ------  ---------------------
 U                     Stuttgart RLC ECP            19       79   5s5p4d3f2g
 O                          cc-pvtz                 10       30   4s3p2d1f


  library name resolved from: environment
  library file name is: <
 /projects/academic/jochena/software/nwchem-svn/src/basis/libraries/>
  

 **** WARNING Zero Coefficient **** on atom "               U"
 angular momentum value:-1  standard basis set name: "stuttgart rlc ecp"
 input line that generated warning:
  2118: 2      1.000000000            0.000000000
  
 Local ECP potential is zero and ignored
  
                 ECP       "ecp basis" -> "" (cartesian)
                -----
  U (Uranium) Replaces    78 electrons
  ------------------------------------
             Channel    R-exponent     Exponent     Coefficients
         ------------ ---------------------------------------------------------
  1 U-s       Both         2.00        4.063653     112.920103
  1 U-s       Both         2.00        1.883995      15.647500
  1 U-s       Both         2.00        0.886567      -3.689971
 
  2 U-p       Both         2.00        3.986181     118.758016
  2 U-p       Both         2.00        2.000160      15.077228
  2 U-p       Both         2.00        0.960841       0.556720
 
  3 U-d       Both         2.00        4.147972      60.855892
  3 U-d       Both         2.00        2.234563      29.280047
  3 U-d       Both         2.00        0.913695       4.998029
 
  4 U-f       Both         2.00        3.998938      49.924035
  4 U-f       Both         2.00        1.998840     -24.674042
  4 U-f       Both         2.00        0.995641       1.389480
 
  5 U-g       Both         2.00        3.817422     -36.040977
  5 U-g       Both         2.00        0.262501      -0.090511
 
                              NWChem Property Module
                              ----------------------
 
 
                                       uo2-z
 
  itol2e modified to match energy
  convergence criterion.
 
                                 NWChem DFT Module
                                 -----------------
 
 
                                       uo2-z
 
 


 Summary of "ao basis" -> "ao basis" (spherical)
 ------------------------------------------------------------------------------
       Tag                 Description            Shells   Functions and Types
 ---------------- ------------------------------  ------  ---------------------
 U                     Stuttgart RLC ECP            19       79   5s5p4d3f2g
 O                          cc-pvtz                 10       30   4s3p2d1f


  Caching 1-el integrals 
 
            General Information
            -------------------
          SCF calculation type: DFT
          Wavefunction type:  closed shell.
          No. of atoms     :     3
          No. of electrons :    28
           Alpha electrons :    14
            Beta electrons :    14
          Charge           :     2
          Spin multiplicity:     1
          Use of symmetry is: off; symmetry adaption is: off
          Maximum number of iterations:  30
          AO basis - number of functions:   139
                     number of shells:    39
          Convergence on energy requested:  1.00D-07
          Convergence on density requested:  1.00D-05
          Convergence on gradient requested:  5.00D-04
 
              XC Information
              --------------
                         B3LYP Method XC Potential
                     Hartree-Fock (Exact) Exchange  0.200          
                        Slater Exchange Functional  0.800 local    
                    Becke 1988 Exchange Functional  0.720 non-local
              Lee-Yang-Parr Correlation Functional  0.810          
                  VWN I RPA Correlation Functional  0.190 local    
 
             Grid Information
             ----------------
          Grid used for XC integration:  xfine     
          Radial quadrature: Mura-Knowles        
          Angular quadrature: Lebedev. 
          Tag              B.-S. Rad. Rad. Pts. Rad. Cut. Ang. Pts.
          ---              ---------- --------- --------- ---------
          U                   1.75      205          11.0      1454
          O                   0.60      100          10.0      1454
          Grid pruning is: on 
          Number of quadrature shells:   405
          Spatial weights used:  Erf1
 
          Convergence Information
          -----------------------
          Convergence aids based upon iterative change in 
          total energy or number of iterations. 
          Levelshifting, if invoked, occurs when the 
          HOMO/LUMO gap drops below (HL_TOL):  1.00D-02
          DIIS, if invoked, will attempt to extrapolate 
          using up to (NFOCK): 10 stored Fock matrices.

                    Damping( 0%)  Levelshifting(0.5)       DIIS
                  --------------- ------------------- ---------------
          dE  on:    start            ASAP                start   
          dE off:    2 iters         30 iters            30 iters 

 
      Screening Tolerance Information
      -------------------------------
          Density screening/tol_rho:  1.00D-11
          AO Gaussian exp screening on grid/accAOfunc:  16
          CD Gaussian exp screening on grid/accCDfunc:  20
          XC Gaussian exp screening on grid/accXCfunc:  20
          Schwarz screening/accCoul:  1.00D-08

 
      Superposition of Atomic Density Guess
      -------------------------------------
 
 Sum of atomic energies:        -201.95916065

 Renormalizing density from      30.00 to     28
 
      Non-variational initial energy
      ------------------------------

 Total energy =    -191.397696
 1-e energy   =    -414.318744
 2-e energy   =     147.454848
 HOMO         =      -1.019634
 LUMO         =      -0.603473
 
   Time after variat. SCF:      4.5
   Time prior to 1st pass:      4.5

 Integral file          = ./uo2-z.aoints.0
 Record size in doubles =    65536    No. of integs per rec  =    43688
 Max. records in memory =        0    Max. records in file   = ********
 No. of bits per label  =        8    No. of bits per value  =       64


 #quartets = 2.693D+05 #integrals = 7.987D+06 #direct =  0.0% #cached =100.0%


 Grid_pts file          = ./uo2-z.gridpts.0
 Record size in doubles =  12289        No. of grid_pts per rec  =   3070
 Max. records in memory =    212        Max. recs in file   = 940203338


           Memory utilization after 1st SCF pass: 
           Heap Space remaining (MW):       10.46            10464898
          Stack Space remaining (MW):       13.11            13106388

   convergence    iter        energy       DeltaE   RMS-Dens  Diis-err    time
 ---------------- ----- ----------------- --------- --------- ---------  ------
 d= 0,ls=0.0,diis     1   -198.8164175373 -2.74D+02  5.01D-02  2.05D+01    23.3
 d= 0,ls=0.0,diis     2   -162.8860763998  3.59D+01  4.52D-02  1.93D+02    29.9
 d= 0,ls=0.0,diis     3   -200.8061836926 -3.79D+01  9.75D-03  4.14D+00    36.6
 d= 0,ls=0.0,diis     4   -201.1492680469 -3.43D-01  1.90D-03  1.79D-01    43.2
 d= 0,ls=0.0,diis     5   -201.1643187780 -1.51D-02  2.18D-04  6.83D-03    49.8
 d= 0,ls=0.0,diis     6   -201.1643768631 -5.81D-05  8.35D-05  6.77D-03    56.9
  Resetting Diis
 d= 0,ls=0.0,diis     7   -201.1647495949 -3.73D-04  1.64D-04  2.77D-03    63.9
 d= 0,ls=0.0,diis     8   -201.1650022008 -2.53D-04  9.89D-05  5.46D-05    71.0
 d= 0,ls=0.0,diis     9   -201.1649143257  8.79D-05  7.85D-05  1.05D-03    78.0
 d= 0,ls=0.0,diis    10   -201.1650069963 -9.27D-05  2.12D-06  1.38D-07    85.1
 d= 0,ls=0.0,diis    11   -201.1650070037 -7.43D-09  6.23D-07  3.93D-08    92.1


         Total DFT energy =     -201.165007003712
      One electron energy =     -431.056594157173
           Coulomb energy =      177.187153210233
    Exchange-Corr. energy =      -22.761766125805
 Nuclear repulsion energy =       75.466200069034

 Numeric. integr. density =       28.000002534673

     Total iterative time =     87.6s


 
                       DFT Final Molecular Orbital Analysis
                       ------------------------------------
 
 Vector    1  Occ=2.000000D+00  E=-1.968732D+01
              MO Center=  3.3D-13, -1.4D-13,  1.4D-01, r^2= 3.2D+00
   Bfn.  Coefficient  Atom+Function         Bfn.  Coefficient  Atom+Function  
  ----- ------------  ---------------      ----- ------------  ---------------
    80      0.713205  2 O  s                110      0.657844  3 O  s          
    82      0.037745  2 O  s                112      0.034818  3 O  s          
 
 Vector    2  Occ=2.000000D+00  E=-1.968703D+01
              MO Center=  3.0D-13, -2.1D-13, -1.4D-01, r^2= 3.2D+00
   Bfn.  Coefficient  Atom+Function         Bfn.  Coefficient  Atom+Function  
  ----- ------------  ---------------      ----- ------------  ---------------
   110     -0.713211  3 O  s                 80      0.657851  2 O  s          
   112     -0.037707  3 O  s                 82      0.034777  2 O  s          
 
 Vector    3  Occ=2.000000D+00  E=-2.545368D+00
              MO Center= -4.0D-10, -1.3D-09,  8.2D-07, r^2= 7.1D-01
   Bfn.  Coefficient  Atom+Function         Bfn.  Coefficient  Atom+Function  
  ----- ------------  ---------------      ----- ------------  ---------------
     2      1.134092  1 U  s                  1      0.793474  1 U  s          
     3      0.357821  1 U  s                 81      0.025999  2 O  s          
   111      0.025998  3 O  s          
 
 Vector    4  Occ=2.000000D+00  E=-1.668581D+00
              MO Center= -6.6D-11, -8.3D-10,  4.2D-05, r^2= 1.9D+00
   Bfn.  Coefficient  Atom+Function         Bfn.  Coefficient  Atom+Function  
  ----- ------------  ---------------      ----- ------------  ---------------
    11      0.406545  1 U  pz                14      0.294510  1 U  pz         
    81      0.240271  2 O  s                111     -0.240256  3 O  s          
     8      0.170676  1 U  pz                83      0.131054  2 O  s          
   113     -0.131046  3 O  s                 89     -0.074962  2 O  pz         
   119     -0.074959  3 O  pz                82      0.067252  2 O  s          
 
 Vector    5  Occ=2.000000D+00  E=-1.472086D+00
              MO Center= -5.3D-10, -5.7D-10,  9.7D-07, r^2= 1.0D+00
   Bfn.  Coefficient  Atom+Function         Bfn.  Coefficient  Atom+Function  
  ----- ------------  ---------------      ----- ------------  ---------------
    10     -0.466475  1 U  py                 9      0.445716  1 U  px         
    13     -0.351341  1 U  py                12      0.335706  1 U  px         
     7     -0.191625  1 U  py                 6      0.183097  1 U  px         
    16     -0.025850  1 U  py         
 
 Vector    6  Occ=2.000000D+00  E=-1.472086D+00
              MO Center= -3.0D-10, -1.0D-09,  9.7D-07, r^2= 1.0D+00
   Bfn.  Coefficient  Atom+Function         Bfn.  Coefficient  Atom+Function  
  ----- ------------  ---------------      ----- ------------  ---------------
     9      0.466475  1 U  px                10      0.445716  1 U  py         
    12      0.351341  1 U  px                13      0.335706  1 U  py         
     6      0.191625  1 U  px                 7      0.183097  1 U  py         
    15      0.025850  1 U  px         
 
 Vector    7  Occ=2.000000D+00  E=-1.447975D+00
              MO Center=  2.6D-10, -2.1D-10,  5.5D-07, r^2= 3.2D+00
   Bfn.  Coefficient  Atom+Function         Bfn.  Coefficient  Atom+Function  
  ----- ------------  ---------------      ----- ------------  ---------------
    81      0.380159  2 O  s                111      0.380155  3 O  s          
     2     -0.339299  1 U  s                 83      0.253016  2 O  s          
   113      0.253013  3 O  s                  1     -0.193063  1 U  s          
    82      0.111033  2 O  s                112      0.111031  3 O  s          
    28      0.082410  1 U  d  0              23      0.054161  1 U  d  0       
 
 Vector    8  Occ=2.000000D+00  E=-1.212488D+00
              MO Center= -3.6D-11, -6.9D-10, -2.6D-05, r^2= 3.0D+00
   Bfn.  Coefficient  Atom+Function         Bfn.  Coefficient  Atom+Function  
  ----- ------------  ---------------      ----- ------------  ---------------
    11      0.486009  1 U  pz                14      0.330960  1 U  pz         
    81     -0.320003  2 O  s                111      0.320013  3 O  s          
    83     -0.242735  2 O  s                113      0.242743  3 O  s          
     8      0.189614  1 U  pz                44     -0.137049  1 U  f  0       
    82     -0.097141  2 O  s                112      0.097144  3 O  s          
 
 Vector    9  Occ=2.000000D+00  E=-8.859562D-01
              MO Center=  5.8D-10, -8.7D-10,  1.9D-03, r^2= 2.6D+00
   Bfn.  Coefficient  Atom+Function         Bfn.  Coefficient  Atom+Function  
  ----- ------------  ---------------      ----- ------------  ---------------
    43      0.344524  1 U  f -1              45      0.341519  1 U  f  1       
    88      0.184646  2 O  py               118      0.184366  3 O  py         
    87     -0.183035  2 O  px               117     -0.182758  3 O  px         
    85      0.152102  2 O  py               115      0.151872  3 O  py         
    84     -0.150776  2 O  px               114     -0.150547  3 O  px         
 
 Vector   10  Occ=2.000000D+00  E=-8.859562D-01
              MO Center=  8.8D-11, -1.7D-10,  1.9D-03, r^2= 2.6D+00
   Bfn.  Coefficient  Atom+Function         Bfn.  Coefficient  Atom+Function  
  ----- ------------  ---------------      ----- ------------  ---------------
    45     -0.344524  1 U  f  1              43      0.341519  1 U  f -1       
    87      0.184646  2 O  px               117      0.184366  3 O  px         
    88      0.183035  2 O  py               118      0.182758  3 O  py         
    84      0.152102  2 O  px               114      0.151872  3 O  px         
    85      0.150776  2 O  py               115      0.150547  3 O  py         
 
 Vector   11  Occ=2.000000D+00  E=-8.801577D-01
              MO Center=  3.9D-08, -7.5D-09,  8.2D-04, r^2= 2.0D+00
   Bfn.  Coefficient  Atom+Function         Bfn.  Coefficient  Atom+Function  
  ----- ------------  ---------------      ----- ------------  ---------------
    44      0.698389  1 U  f  0              89     -0.204645  2 O  pz         
   119     -0.204430  3 O  pz                11     -0.179841  1 U  pz         
    86     -0.173740  2 O  pz               116     -0.173559  3 O  pz         
    51      0.112664  1 U  f  0              14     -0.092397  1 U  pz         
    92     -0.088411  2 O  pz               122     -0.088297  3 O  pz         
 
 Vector   12  Occ=2.000000D+00  E=-8.793237D-01
              MO Center= -2.3D-08,  2.3D-08, -1.9D-03, r^2= 3.3D+00
   Bfn.  Coefficient  Atom+Function         Bfn.  Coefficient  Atom+Function  
  ----- ------------  ---------------      ----- ------------  ---------------
    87      0.204865  2 O  px                88     -0.205444  2 O  py         
   117     -0.205109  3 O  px               118      0.205688  3 O  py         
    84      0.168496  2 O  px                85     -0.168973  2 O  py         
   114     -0.168697  3 O  px               115      0.169174  3 O  py         
    27     -0.129962  1 U  d -1              29     -0.129596  1 U  d  1       
 
 Vector   13  Occ=2.000000D+00  E=-8.793237D-01
              MO Center= -1.5D-08, -1.5D-08, -1.9D-03, r^2= 3.3D+00
   Bfn.  Coefficient  Atom+Function         Bfn.  Coefficient  Atom+Function  
  ----- ------------  ---------------      ----- ------------  ---------------
    87      0.205444  2 O  px                88      0.204865  2 O  py         
   117     -0.205688  3 O  px               118     -0.205109  3 O  py         
    84      0.168973  2 O  px                85      0.168496  2 O  py         
   114     -0.169174  3 O  px               115     -0.168697  3 O  py         
    27      0.129596  1 U  d -1              29     -0.129962  1 U  d  1       
 
 Vector   14  Occ=2.000000D+00  E=-8.695487D-01
              MO Center=  7.9D-10,  4.5D-10, -8.2D-04, r^2= 3.9D+00
   Bfn.  Coefficient  Atom+Function         Bfn.  Coefficient  Atom+Function  
  ----- ------------  ---------------      ----- ------------  ---------------
    89      0.306851  2 O  pz               119     -0.306989  3 O  pz         
    86      0.256873  2 O  pz               116     -0.256990  3 O  pz         
     2      0.246260  1 U  s                 28     -0.195477  1 U  d  0       
    92      0.164359  2 O  pz               122     -0.164419  3 O  pz         
     1      0.124272  1 U  s                 83      0.117551  2 O  s          
 
 Vector   15  Occ=0.000000D+00  E=-6.922699D-01
              MO Center= -3.4D-10, -4.2D-09,  6.3D-08, r^2= 7.0D-01
   Bfn.  Coefficient  Atom+Function         Bfn.  Coefficient  Atom+Function  
  ----- ------------  ---------------      ----- ------------  ---------------
    41      0.695689  1 U  f -3              47     -0.619825  1 U  f  3       
    48      0.101391  1 U  f -3              54     -0.090334  1 U  f  3       
 
 Vector   16  Occ=0.000000D+00  E=-6.922699D-01
              MO Center= -3.3D-10, -3.7D-09,  6.3D-08, r^2= 7.0D-01
   Bfn.  Coefficient  Atom+Function         Bfn.  Coefficient  Atom+Function  
  ----- ------------  ---------------      ----- ------------  ---------------
    47      0.695689  1 U  f  3              41      0.619825  1 U  f -3       
    54      0.101391  1 U  f  3              48      0.090334  1 U  f -3       
 
 Vector   17  Occ=0.000000D+00  E=-6.769703D-01
              MO Center= -7.9D-11, -1.4D-09,  1.2D-06, r^2= 7.2D-01
   Bfn.  Coefficient  Atom+Function         Bfn.  Coefficient  Atom+Function  
  ----- ------------  ---------------      ----- ------------  ---------------
    46      0.926983  1 U  f  2              53      0.139492  1 U  f  2       
    60      0.036412  1 U  f  2       
 
 Vector   18  Occ=0.000000D+00  E=-6.766065D-01
              MO Center= -2.6D-10, -1.6D-09,  1.2D-06, r^2= 7.2D-01
   Bfn.  Coefficient  Atom+Function         Bfn.  Coefficient  Atom+Function  
  ----- ------------  ---------------      ----- ------------  ---------------
    42      0.926866  1 U  f -2              49      0.139698  1 U  f -2       
    56      0.036431  1 U  f -2       
 
 Vector   19  Occ=0.000000D+00  E=-6.004914D-01
              MO Center=  1.3D-09, -1.9D-09, -4.8D-06, r^2= 1.8D+00
   Bfn.  Coefficient  Atom+Function         Bfn.  Coefficient  Atom+Function  
  ----- ------------  ---------------      ----- ------------  ---------------
    43      0.577425  1 U  f -1              45      0.572071  1 U  f  1       
    88     -0.144966  2 O  py               118     -0.144967  3 O  py         
    87      0.143622  2 O  px               117      0.143623  3 O  px         
    91     -0.128751  2 O  py               121     -0.128751  3 O  py         
    90      0.127557  2 O  px               120      0.127558  3 O  px         
 
 Vector   20  Occ=0.000000D+00  E=-6.004914D-01
              MO Center= -1.0D-09, -1.6D-09, -4.8D-06, r^2= 1.8D+00
   Bfn.  Coefficient  Atom+Function         Bfn.  Coefficient  Atom+Function  
  ----- ------------  ---------------      ----- ------------  ---------------
    45     -0.577425  1 U  f  1              43      0.572071  1 U  f -1       
    87     -0.144966  2 O  px               117     -0.144967  3 O  px         
    88     -0.143622  2 O  py               118     -0.143623  3 O  py         
    90     -0.128751  2 O  px               120     -0.128751  3 O  px         
    91     -0.127557  2 O  py               121     -0.127558  3 O  py         
 
 Vector   21  Occ=0.000000D+00  E=-5.390809D-01
              MO Center= -2.5D-09, -4.5D-09,  1.0D-05, r^2= 3.7D+00
   Bfn.  Coefficient  Atom+Function         Bfn.  Coefficient  Atom+Function  
  ----- ------------  ---------------      ----- ------------  ---------------
     4      1.073422  1 U  s                  2     -0.880958  1 U  s          
     1     -0.436800  1 U  s                 33     -0.256366  1 U  d  0       
    28     -0.203894  1 U  d  0               3     -0.189846  1 U  s          
    92     -0.115495  2 O  pz               122      0.115491  3 O  pz         
     5     -0.061604  1 U  s                 81     -0.054980  2 O  s          
 
 Vector   22  Occ=0.000000D+00  E=-5.241395D-01
              MO Center= -3.0D-09,  1.5D-09,  1.5D-07, r^2= 2.4D+00
   Bfn.  Coefficient  Atom+Function         Bfn.  Coefficient  Atom+Function  
  ----- ------------  ---------------      ----- ------------  ---------------
    30      0.442003  1 U  d  2              35      0.439583  1 U  d  2       
    25      0.195543  1 U  d  2              40      0.057127  1 U  d  2       
 
 Vector   23  Occ=0.000000D+00  E=-5.241330D-01
              MO Center= -4.6D-09,  1.5D-09,  1.4D-07, r^2= 2.4D+00
   Bfn.  Coefficient  Atom+Function         Bfn.  Coefficient  Atom+Function  
  ----- ------------  ---------------      ----- ------------  ---------------
    26      0.442002  1 U  d -2              31      0.439590  1 U  d -2       
    21      0.195533  1 U  d -2              36      0.057131  1 U  d -2       
 
 Vector   24  Occ=0.000000D+00  E=-4.510565D-01
              MO Center=  6.7D-10,  1.1D-10, -1.9D-05, r^2= 2.5D+00
   Bfn.  Coefficient  Atom+Function         Bfn.  Coefficient  Atom+Function  
  ----- ------------  ---------------      ----- ------------  ---------------
    44      0.631385  1 U  f  0              11      0.471158  1 U  pz         
    14      0.392681  1 U  pz                92      0.284573  2 O  pz         
   122      0.284577  3 O  pz                89      0.281020  2 O  pz         
   119      0.281024  3 O  pz                86      0.225878  2 O  pz         
   116      0.225881  3 O  pz                 8      0.167849  1 U  pz         
 
 Vector   25  Occ=0.000000D+00  E=-3.811114D-01
              MO Center= -7.6D-10,  3.8D-10,  2.6D-05, r^2= 2.7D+00
   Bfn.  Coefficient  Atom+Function         Bfn.  Coefficient  Atom+Function  
  ----- ------------  ---------------      ----- ------------  ---------------
    32      0.452367  1 U  d -1              34      0.389401  1 U  d  1       
    27      0.323262  1 U  d -1              29      0.278266  1 U  d  1       
    91     -0.217670  2 O  py               121      0.217669  3 O  py         
    90      0.187372  2 O  px               120     -0.187371  3 O  px         
    88     -0.153290  2 O  py               118      0.153288  3 O  py         
 
 Vector   26  Occ=0.000000D+00  E=-3.811114D-01
              MO Center= -5.2D-09, -4.0D-09,  2.6D-05, r^2= 2.7D+00
   Bfn.  Coefficient  Atom+Function         Bfn.  Coefficient  Atom+Function  
  ----- ------------  ---------------      ----- ------------  ---------------
    34      0.452367  1 U  d  1              32     -0.389401  1 U  d -1       
    29      0.323262  1 U  d  1              27     -0.278266  1 U  d -1       
    90      0.217670  2 O  px               120     -0.217669  3 O  px         
    91      0.187372  2 O  py               121     -0.187371  3 O  py         
    87      0.153290  2 O  px               117     -0.153288  3 O  px         
 
 Vector   27  Occ=0.000000D+00  E=-3.548541D-01
              MO Center=  1.5D-08, -5.9D-09, -3.0D-05, r^2= 6.4D+00
   Bfn.  Coefficient  Atom+Function         Bfn.  Coefficient  Atom+Function  
  ----- ------------  ---------------      ----- ------------  ---------------
    15      0.621224  1 U  px                16     -0.620959  1 U  py         
    18      0.250871  1 U  px                19     -0.250765  1 U  py         
     9     -0.231917  1 U  px                10      0.231818  1 U  py         
    12     -0.197300  1 U  px                13      0.197216  1 U  py         
    43     -0.088739  1 U  f -1              45     -0.088777  1 U  f  1       
 
 Vector   28  Occ=0.000000D+00  E=-3.548541D-01
              MO Center=  3.0D-08,  2.2D-08, -3.0D-05, r^2= 6.4D+00
   Bfn.  Coefficient  Atom+Function         Bfn.  Coefficient  Atom+Function  
  ----- ------------  ---------------      ----- ------------  ---------------
    15      0.620959  1 U  px                16      0.621224  1 U  py         
    18      0.250765  1 U  px                19      0.250871  1 U  py         
     9     -0.231818  1 U  px                10     -0.231917  1 U  py         
    12     -0.197216  1 U  px                13     -0.197300  1 U  py         
    43      0.088777  1 U  f -1              45     -0.088739  1 U  f  1       
 
 Vector   29  Occ=0.000000D+00  E=-2.973443D-01
              MO Center=  4.7D-08, -8.0D-09,  7.0D-05, r^2= 8.5D+00
   Bfn.  Coefficient  Atom+Function         Bfn.  Coefficient  Atom+Function  
  ----- ------------  ---------------      ----- ------------  ---------------
    17      0.720251  1 U  pz                20      0.652870  1 U  pz         
    83     -0.303854  2 O  s                113      0.303830  3 O  s          
    44      0.211331  1 U  f  0              14     -0.173330  1 U  pz         
    11     -0.149110  1 U  pz                58     -0.137198  1 U  f  0       
    81     -0.122546  2 O  s                111      0.122541  3 O  s          
 
 Vector   30  Occ=0.000000D+00  E=-2.468969D-01
              MO Center=  3.4D-08, -3.1D-08, -5.1D-05, r^2= 1.3D+01
   Bfn.  Coefficient  Atom+Function         Bfn.  Coefficient  Atom+Function  
  ----- ------------  ---------------      ----- ------------  ---------------
     5      1.716948  1 U  s                  4     -1.025539  1 U  s          
     2      0.438079  1 U  s                 83     -0.378486  2 O  s          
   113     -0.378491  3 O  s                 33      0.324585  1 U  d  0       
    38      0.249004  1 U  d  0              28      0.198733  1 U  d  0       
     1      0.186975  1 U  s                 81     -0.086610  2 O  s          
 
 Vector   31  Occ=0.000000D+00  E=-2.023075D-01
              MO Center= -4.0D-09, -1.1D-08,  2.4D-05, r^2= 1.1D+01
   Bfn.  Coefficient  Atom+Function         Bfn.  Coefficient  Atom+Function  
  ----- ------------  ---------------      ----- ------------  ---------------
    39     -0.868315  1 U  d  1              37      0.790854  1 U  d -1       
    34      0.231025  1 U  d  1              32     -0.210416  1 U  d -1       
    29      0.163170  1 U  d  1              27     -0.148614  1 U  d -1       
    24      0.078649  1 U  d  1              22     -0.071632  1 U  d -1       
    87     -0.032433  2 O  px               117      0.032432  3 O  px         
 
 Vector   32  Occ=0.000000D+00  E=-2.023075D-01
              MO Center=  1.8D-08, -1.2D-08,  2.4D-05, r^2= 1.1D+01
   Bfn.  Coefficient  Atom+Function         Bfn.  Coefficient  Atom+Function  
  ----- ------------  ---------------      ----- ------------  ---------------
    37      0.868315  1 U  d -1              39      0.790854  1 U  d  1       
    32     -0.231025  1 U  d -1              34     -0.210416  1 U  d  1       
    27     -0.163170  1 U  d -1              29     -0.148614  1 U  d  1       
    22     -0.078649  1 U  d -1              24     -0.071632  1 U  d  1       
    88     -0.032433  2 O  py               118      0.032432  3 O  py         
 
 Vector   33  Occ=0.000000D+00  E=-1.864473D-01
              MO Center=  5.1D-08,  6.8D-09,  9.4D-06, r^2= 1.0D+01
   Bfn.  Coefficient  Atom+Function         Bfn.  Coefficient  Atom+Function  
  ----- ------------  ---------------      ----- ------------  ---------------
    40      1.174862  1 U  d  2              35     -0.328226  1 U  d  2       
    30     -0.256171  1 U  d  2              25     -0.131317  1 U  d  2       
 
 Vector   34  Occ=0.000000D+00  E=-1.864442D-01
              MO Center=  6.5D-08, -6.0D-10,  9.4D-06, r^2= 1.0D+01
   Bfn.  Coefficient  Atom+Function         Bfn.  Coefficient  Atom+Function  
  ----- ------------  ---------------      ----- ------------  ---------------
    36      1.174866  1 U  d -2              31     -0.328236  1 U  d -2       
    26     -0.256176  1 U  d -2              21     -0.131313  1 U  d -2       
 
 Vector   35  Occ=0.000000D+00  E=-1.768867D-01
              MO Center=  1.5D-08,  3.4D-08,  7.6D-06, r^2= 1.2D+01
   Bfn.  Coefficient  Atom+Function         Bfn.  Coefficient  Atom+Function  
  ----- ------------  ---------------      ----- ------------  ---------------
    38      1.261568  1 U  d  0               4      1.170983  1 U  s          
     5     -0.710685  1 U  s                 83     -0.323434  2 O  s          
   113     -0.323422  3 O  s                  3     -0.278997  1 U  s          
     2     -0.252914  1 U  s                  1     -0.143485  1 U  s          
    33     -0.128049  1 U  d  0              92     -0.121384  2 O  pz         
 
 Vector   36  Occ=0.000000D+00  E=-1.524654D-01
              MO Center= -5.5D-08, -2.5D-08, -1.8D-05, r^2= 1.4D+01
   Bfn.  Coefficient  Atom+Function         Bfn.  Coefficient  Atom+Function  
  ----- ------------  ---------------      ----- ------------  ---------------
    15      1.340880  1 U  px                18     -1.246370  1 U  px         
    16      1.056249  1 U  py                19     -0.981801  1 U  py         
    12     -0.277835  1 U  px                 9     -0.225591  1 U  px         
    13     -0.218859  1 U  py                10     -0.177705  1 U  py         
    59      0.151312  1 U  f  1              57     -0.119193  1 U  f -1       
 
 Vector   37  Occ=0.000000D+00  E=-1.524654D-01
              MO Center= -4.8D-08,  2.8D-08, -1.8D-05, r^2= 1.4D+01
   Bfn.  Coefficient  Atom+Function         Bfn.  Coefficient  Atom+Function  
  ----- ------------  ---------------      ----- ------------  ---------------
    16      1.340880  1 U  py                19     -1.246370  1 U  py         
    15     -1.056249  1 U  px                18      0.981801  1 U  px         
    13     -0.277835  1 U  py                10     -0.225591  1 U  py         
    12      0.218859  1 U  px                 9      0.177705  1 U  px         
    57     -0.151312  1 U  f -1              59     -0.119193  1 U  f  1       
 
 Vector   38  Occ=0.000000D+00  E=-1.392154D-01
              MO Center= -2.5D-08,  1.5D-08,  1.7D-05, r^2= 1.3D+01
   Bfn.  Coefficient  Atom+Function         Bfn.  Coefficient  Atom+Function  
  ----- ------------  ---------------      ----- ------------  ---------------
    17      1.955116  1 U  pz                20     -1.550549  1 U  pz         
    58     -0.397396  1 U  f  0              83     -0.261486  2 O  s          
   113      0.261450  3 O  s                 44      0.243702  1 U  f  0       
    92      0.196856  2 O  pz               122      0.196850  3 O  pz         
    11     -0.156011  1 U  pz                14     -0.155939  1 U  pz         
 
 Vector   39  Occ=0.000000D+00  E=-1.202728D-01
              MO Center= -7.2D-09,  1.7D-09, -8.4D-06, r^2= 6.1D+00
   Bfn.  Coefficient  Atom+Function         Bfn.  Coefficient  Atom+Function  
  ----- ------------  ---------------      ----- ------------  ---------------
    60      0.993944  1 U  f  2              46     -0.244080  1 U  f  2       
   102      0.029509  2 O  d  2             132     -0.029508  3 O  d  2       
 
 Vector   40  Occ=0.000000D+00  E=-1.202506D-01
              MO Center= -1.7D-08,  2.1D-11, -8.4D-06, r^2= 6.1D+00
   Bfn.  Coefficient  Atom+Function         Bfn.  Coefficient  Atom+Function  
  ----- ------------  ---------------      ----- ------------  ---------------
    56      0.994004  1 U  f -2              42     -0.244182  1 U  f -2       
    98      0.029507  2 O  d -2             128     -0.029506  3 O  d -2       
 
 Vector   41  Occ=0.000000D+00  E=-1.032249D-01
              MO Center= -2.0D-08, -4.1D-09,  8.7D-08, r^2= 6.1D+00
   Bfn.  Coefficient  Atom+Function         Bfn.  Coefficient  Atom+Function  
  ----- ------------  ---------------      ----- ------------  ---------------
    55      0.716523  1 U  f -3              61      0.694950  1 U  f  3       
    41     -0.169632  1 U  f -3              47     -0.164525  1 U  f  3       
 
 Vector   42  Occ=0.000000D+00  E=-1.032249D-01
              MO Center= -2.9D-08, -1.3D-08,  8.7D-08, r^2= 6.1D+00
   Bfn.  Coefficient  Atom+Function         Bfn.  Coefficient  Atom+Function  
  ----- ------------  ---------------      ----- ------------  ---------------
    61     -0.716523  1 U  f  3              55      0.694950  1 U  f -3       
    47      0.169632  1 U  f  3              41     -0.164525  1 U  f -3       
 
 Vector   43  Occ=0.000000D+00  E=-4.175406D-02
              MO Center= -4.4D-08,  4.4D-08, -2.9D-05, r^2= 9.7D+00
   Bfn.  Coefficient  Atom+Function         Bfn.  Coefficient  Atom+Function  
  ----- ------------  ---------------      ----- ------------  ---------------
     4      4.131978  1 U  s                 33      2.472139  1 U  d  0       
     5     -1.787486  1 U  s                 83     -1.760253  2 O  s          
   113     -1.760240  3 O  s                  3     -1.025851  1 U  s          
    38     -0.957644  1 U  d  0              92      0.703927  2 O  pz         
   122     -0.703935  3 O  pz                 2      0.586903  1 U  s          
 
 Vector   44  Occ=0.000000D+00  E=-3.195809D-02
              MO Center=  2.6D-08, -2.9D-08, -3.1D-06, r^2= 7.4D+00
   Bfn.  Coefficient  Atom+Function         Bfn.  Coefficient  Atom+Function  
  ----- ------------  ---------------      ----- ------------  ---------------
    57      1.053362  1 U  f -1              59      1.058361  1 U  f  1       
    15     -0.631755  1 U  px                16      0.628771  1 U  py         
    90      0.332808  2 O  px                91     -0.331236  2 O  py         
   120      0.332817  3 O  px               121     -0.331245  3 O  py         
    18      0.256545  1 U  px                19     -0.255334  1 U  py         
 
 Vector   45  Occ=0.000000D+00  E=-3.195809D-02
              MO Center= -2.9D-08, -2.8D-08, -3.1D-06, r^2= 7.4D+00
   Bfn.  Coefficient  Atom+Function         Bfn.  Coefficient  Atom+Function  
  ----- ------------  ---------------      ----- ------------  ---------------
    57      1.058361  1 U  f -1              59     -1.053362  1 U  f  1       
    15      0.628771  1 U  px                16      0.631755  1 U  py         
    90     -0.331236  2 O  px                91     -0.332808  2 O  py         
   120     -0.331245  3 O  px               121     -0.332817  3 O  py         
    18     -0.255334  1 U  px                19     -0.256545  1 U  py         
 
 Vector   46  Occ=0.000000D+00  E= 3.689908D-02
              MO Center=  1.1D-08,  9.7D-09, -2.7D-06, r^2= 1.0D+01
   Bfn.  Coefficient  Atom+Function         Bfn.  Coefficient  Atom+Function  
  ----- ------------  ---------------      ----- ------------  ---------------
    17      3.757331  1 U  pz                83     -2.236608  2 O  s          
   113      2.236631  3 O  s                 58      1.799157  1 U  f  0       
    20     -1.017092  1 U  pz                92      0.364665  2 O  pz         
   122      0.364655  3 O  pz                51      0.199053  1 U  f  0       
    11     -0.130632  1 U  pz                89     -0.093394  2 O  pz         
 
 Vector   47  Occ=0.000000D+00  E= 1.517881D-01
              MO Center=  4.1D-09,  4.8D-09,  1.3D-05, r^2= 6.3D+00
   Bfn.  Coefficient  Atom+Function         Bfn.  Coefficient  Atom+Function  
  ----- ------------  ---------------      ----- ------------  ---------------
    33      1.913960  1 U  d  0              28     -1.587130  1 U  d  0       
     4     -0.971124  1 U  s                 92     -0.825113  2 O  pz         
   122      0.825089  3 O  pz                 5      0.778575  1 U  s          
    38     -0.360923  1 U  d  0               2     -0.329436  1 U  s          
     1     -0.174335  1 U  s                  3     -0.125007  1 U  s          
 
 Vector   48  Occ=0.000000D+00  E= 1.628506D-01
              MO Center=  4.5D-10,  4.4D-09, -3.6D-07, r^2= 6.8D+00
   Bfn.  Coefficient  Atom+Function         Bfn.  Coefficient  Atom+Function  
  ----- ------------  ---------------      ----- ------------  ---------------
    35      2.256025  1 U  d  2              30     -1.374563  1 U  d  2       
    40     -1.142148  1 U  d  2              25     -0.126862  1 U  d  2       
 
 Vector   49  Occ=0.000000D+00  E= 1.628561D-01
              MO Center= -1.3D-10,  4.7D-09, -3.6D-07, r^2= 6.8D+00
   Bfn.  Coefficient  Atom+Function         Bfn.  Coefficient  Atom+Function  
  ----- ------------  ---------------      ----- ------------  ---------------
    31      2.256028  1 U  d -2              26     -1.374585  1 U  d -2       
    36     -1.142145  1 U  d -2              21     -0.126851  1 U  d -2       
 
 Vector   50  Occ=0.000000D+00  E= 1.638525D-01
              MO Center=  1.2D-09,  5.2D-10, -2.4D-06, r^2= 6.8D+00
   Bfn.  Coefficient  Atom+Function         Bfn.  Coefficient  Atom+Function  
  ----- ------------  ---------------      ----- ------------  ---------------
    34     -1.833415  1 U  d  1              32      1.701450  1 U  d -1       
    29      1.008128  1 U  d  1              27     -0.935566  1 U  d -1       
    39      0.824853  1 U  d  1              37     -0.765482  1 U  d -1       
    90     -0.147526  2 O  px               120      0.147530  3 O  px         
    91     -0.136907  2 O  py               121      0.136911  3 O  py         
 
 Vector   51  Occ=0.000000D+00  E= 1.638525D-01
              MO Center= -1.1D-08,  1.2D-08, -2.4D-06, r^2= 6.8D+00
   Bfn.  Coefficient  Atom+Function         Bfn.  Coefficient  Atom+Function  
  ----- ------------  ---------------      ----- ------------  ---------------
    32      1.833415  1 U  d -1              34      1.701450  1 U  d  1       
    27     -1.008128  1 U  d -1              29     -0.935566  1 U  d  1       
    37     -0.824853  1 U  d -1              39     -0.765482  1 U  d  1       
    91     -0.147526  2 O  py               121      0.147530  3 O  py         
    90      0.136907  2 O  px               120     -0.136911  3 O  px         
 
 Vector   52  Occ=0.000000D+00  E= 2.795888D-01
              MO Center=  2.9D-09, -1.3D-10,  1.4D-04, r^2= 6.2D+00
   Bfn.  Coefficient  Atom+Function         Bfn.  Coefficient  Atom+Function  
  ----- ------------  ---------------      ----- ------------  ---------------
     4      2.686855  1 U  s                 33      2.052388  1 U  d  0       
    83     -1.612736  2 O  s                113     -1.612657  3 O  s          
    92      1.265839  2 O  pz               122     -1.265634  3 O  pz         
     5     -1.078924  1 U  s                 38     -0.813790  1 U  d  0       
    75      0.359251  1 U  g  0              89     -0.322275  2 O  pz         
 
 Vector   53  Occ=0.000000D+00  E= 3.053156D-01
              MO Center= -5.5D-09, -3.2D-09, -1.6D-04, r^2= 7.7D+00
   Bfn.  Coefficient  Atom+Function         Bfn.  Coefficient  Atom+Function  
  ----- ------------  ---------------      ----- ------------  ---------------
    92      1.755143  2 O  pz               122      1.755296  3 O  pz         
    14      1.698337  1 U  pz                51      1.409406  1 U  f  0       
    58     -1.368602  1 U  f  0              17      1.188853  1 U  pz         
    83     -1.071732  2 O  s                113      1.071916  3 O  s          
    20     -0.923694  1 U  pz                44     -0.304183  1 U  f  0       
 
 Vector   54  Occ=0.000000D+00  E= 3.514906D-01
              MO Center=  1.3D-10, -2.0D-09,  7.6D-05, r^2= 6.4D+00
   Bfn.  Coefficient  Atom+Function         Bfn.  Coefficient  Atom+Function  
  ----- ------------  ---------------      ----- ------------  ---------------
    90      1.033593  2 O  px               120     -1.033522  3 O  px         
    91     -1.018559  2 O  py               121      1.018490  3 O  py         
    34      0.807200  1 U  d  1              32      0.795460  1 U  d -1       
    87     -0.356790  2 O  px               117      0.356779  3 O  px         
    88      0.351601  2 O  py               118     -0.351590  3 O  py         
 
 Vector   55  Occ=0.000000D+00  E= 3.514906D-01
              MO Center= -2.8D-09, -4.3D-09,  7.6D-05, r^2= 6.4D+00
   Bfn.  Coefficient  Atom+Function         Bfn.  Coefficient  Atom+Function  
  ----- ------------  ---------------      ----- ------------  ---------------
    91      1.033593  2 O  py               121     -1.033522  3 O  py         
    90      1.018559  2 O  px               120     -1.018490  3 O  px         
    32     -0.807200  1 U  d -1              34      0.795460  1 U  d  1       
    88     -0.356790  2 O  py               118      0.356779  3 O  py         
    87     -0.351601  2 O  px               117      0.351590  3 O  px         
 
 Vector   56  Occ=0.000000D+00  E= 4.142934D-01
              MO Center=  2.6D-10, -1.6D-09, -4.9D-05, r^2= 4.4D+00
   Bfn.  Coefficient  Atom+Function         Bfn.  Coefficient  Atom+Function  
  ----- ------------  ---------------      ----- ------------  ---------------
    50      0.983855  1 U  f -1              52      0.972129  1 U  f  1       
    91     -0.903147  2 O  py               121     -0.903194  3 O  py         
    90      0.892383  2 O  px               120      0.892429  3 O  px         
    16      0.768135  1 U  py                15     -0.758980  1 U  px         
    43     -0.358036  1 U  f -1              45     -0.353769  1 U  f  1       
 
 Vector   57  Occ=0.000000D+00  E= 4.142934D-01
              MO Center= -9.8D-10, -1.4D-09, -4.9D-05, r^2= 4.4D+00
   Bfn.  Coefficient  Atom+Function         Bfn.  Coefficient  Atom+Function  
  ----- ------------  ---------------      ----- ------------  ---------------
    52     -0.983855  1 U  f  1              50      0.972129  1 U  f -1       
    90     -0.903147  2 O  px               120     -0.903194  3 O  px         
    91     -0.892383  2 O  py               121     -0.892429  3 O  py         
    15      0.768135  1 U  px                16      0.758980  1 U  py         
    45      0.358036  1 U  f  1              43     -0.353769  1 U  f -1       
 
 Vector   58  Occ=0.000000D+00  E= 4.237356D-01
              MO Center= -1.3D-09,  1.1D-09,  3.4D-06, r^2= 4.0D+00
   Bfn.  Coefficient  Atom+Function         Bfn.  Coefficient  Atom+Function  
  ----- ------------  ---------------      ----- ------------  ---------------
    53      1.442779  1 U  f  2              60     -0.953074  1 U  f  2       
    46     -0.558943  1 U  f  2             102      0.073348  2 O  d  2       
   132     -0.073345  3 O  d  2       
 
 Vector   59  Occ=0.000000D+00  E= 4.238067D-01
              MO Center= -2.0D-09,  2.6D-09,  3.4D-06, r^2= 4.0D+00
   Bfn.  Coefficient  Atom+Function         Bfn.  Coefficient  Atom+Function  
  ----- ------------  ---------------      ----- ------------  ---------------
    49      1.442751  1 U  f -2              56     -0.953011  1 U  f -2       
    42     -0.559086  1 U  f -2              98      0.073363  2 O  d -2       
   128     -0.073359  3 O  d -2       
 
 Vector   60  Occ=0.000000D+00  E= 4.341700D-01
              MO Center= -3.4D-09, -1.4D-09,  5.9D-07, r^2= 3.9D+00
   Bfn.  Coefficient  Atom+Function         Bfn.  Coefficient  Atom+Function  
  ----- ------------  ---------------      ----- ------------  ---------------
    48      1.114654  1 U  f -3              54      0.974525  1 U  f  3       
    55     -0.711949  1 U  f -3              61     -0.622446  1 U  f  3       
    41     -0.424259  1 U  f -3              47     -0.370923  1 U  f  3       
 
 Vector   61  Occ=0.000000D+00  E= 4.341700D-01
              MO Center= -4.1D-09, -2.7D-09,  5.9D-07, r^2= 3.9D+00
   Bfn.  Coefficient  Atom+Function         Bfn.  Coefficient  Atom+Function  
  ----- ------------  ---------------      ----- ------------  ---------------
    54      1.114654  1 U  f  3              48     -0.974525  1 U  f -3       
    61     -0.711949  1 U  f  3              55      0.622446  1 U  f -3       
    47     -0.424259  1 U  f  3              41      0.370923  1 U  f -3       
 
 Vector   62  Occ=0.000000D+00  E= 5.183882D-01
              MO Center=  2.0D-08, -1.6D-08,  1.1D-04, r^2= 5.8D+00
   Bfn.  Coefficient  Atom+Function         Bfn.  Coefficient  Atom+Function  
  ----- ------------  ---------------      ----- ------------  ---------------
     3     -4.029659  1 U  s                  2      3.765828  1 U  s          
     4      1.962411  1 U  s                  1      1.052062  1 U  s          
    83     -0.988075  2 O  s                113     -0.987860  3 O  s          
    38      0.761471  1 U  d  0              92     -0.630065  2 O  pz         
   122      0.629994  3 O  pz                 5     -0.466060  1 U  s          
 
 Vector   63  Occ=0.000000D+00  E= 5.427233D-01
              MO Center= -1.1D-09, -1.1D-09, -1.2D-04, r^2= 4.9D+00
   Bfn.  Coefficient  Atom+Function         Bfn.  Coefficient  Atom+Function  
  ----- ------------  ---------------      ----- ------------  ---------------
    17      2.940091  1 U  pz                14     -1.936964  1 U  pz         
    83     -1.687333  2 O  s                113      1.687425  3 O  s          
    51      1.254667  1 U  f  0              11      1.176865  1 U  pz         
    92     -0.795909  2 O  pz               122     -0.795991  3 O  pz         
    58      0.710334  1 U  f  0              89      0.446424  2 O  pz         
 
 Vector   64  Occ=0.000000D+00  E= 5.777858D-01
              MO Center=  1.3D-09, -6.0D-10, -2.9D-05, r^2= 5.6D+00
   Bfn.  Coefficient  Atom+Function         Bfn.  Coefficient  Atom+Function  
  ----- ------------  ---------------      ----- ------------  ---------------
    90      1.273746  2 O  px               120      1.273771  3 O  px         
    59      1.265615  1 U  f  1              91      1.093928  2 O  py         
   121      1.093949  3 O  py                57     -1.086944  1 U  f -1       
    15     -0.622490  1 U  px                16     -0.534612  1 U  py         
    12     -0.505674  1 U  px                52     -0.496448  1 U  f  1       
 
 Vector   65  Occ=0.000000D+00  E= 5.777858D-01
              MO Center= -6.6D-09,  3.4D-09, -2.9D-05, r^2= 5.6D+00
   Bfn.  Coefficient  Atom+Function         Bfn.  Coefficient  Atom+Function  
  ----- ------------  ---------------      ----- ------------  ---------------
    91     -1.273746  2 O  py               121     -1.273771  3 O  py         
    57      1.265615  1 U  f -1              90      1.093928  2 O  px         
   120      1.093949  3 O  px                59      1.086944  1 U  f  1       
    16      0.622490  1 U  py                15     -0.534612  1 U  px         
    13      0.505675  1 U  py                50     -0.496448  1 U  f -1       
 
 Vector   66  Occ=0.000000D+00  E= 6.399058D-01
              MO Center= -1.5D-08,  1.3D-08, -2.4D-08, r^2= 4.0D+00
   Bfn.  Coefficient  Atom+Function         Bfn.  Coefficient  Atom+Function  
  ----- ------------  ---------------      ----- ------------  ---------------
    12      2.165664  1 U  px                13     -2.082632  1 U  py         
     9     -1.827605  1 U  px                10      1.757535  1 U  py         
    15     -1.479062  1 U  px                16      1.422355  1 U  py         
    18      0.508653  1 U  px                19     -0.489151  1 U  py         
    90      0.380221  2 O  px               120      0.380225  3 O  px         
 
 Vector   67  Occ=0.000000D+00  E= 6.399058D-01
              MO Center= -8.1D-09, -1.0D-08, -2.4D-08, r^2= 4.0D+00
   Bfn.  Coefficient  Atom+Function         Bfn.  Coefficient  Atom+Function  
  ----- ------------  ---------------      ----- ------------  ---------------
    13      2.165664  1 U  py                12      2.082632  1 U  px         
    10     -1.827605  1 U  py                 9     -1.757535  1 U  px         
    16     -1.479062  1 U  py                15     -1.422355  1 U  px         
    19      0.508653  1 U  py                18      0.489151  1 U  px         
    91      0.380221  2 O  py               121      0.380225  3 O  py         
 
 Vector   68  Occ=0.000000D+00  E= 6.592397D-01
              MO Center=  1.6D-09,  4.7D-09,  6.0D-06, r^2= 2.5D+00
   Bfn.  Coefficient  Atom+Function         Bfn.  Coefficient  Atom+Function  
  ----- ------------  ---------------      ----- ------------  ---------------
    77      0.708617  1 U  g  2             102      0.350952  2 O  d  2       
   132      0.350945  3 O  d  2              35     -0.174006  1 U  d  2       
    30      0.069669  1 U  d  2              40      0.050957  1 U  d  2       
    68      0.029369  1 U  g  2       
 
 Vector   69  Occ=0.000000D+00  E= 6.592566D-01
              MO Center=  1.9D-09,  5.1D-09,  6.0D-06, r^2= 2.5D+00
   Bfn.  Coefficient  Atom+Function         Bfn.  Coefficient  Atom+Function  
  ----- ------------  ---------------      ----- ------------  ---------------
    73      0.708619  1 U  g -2              98      0.350969  2 O  d -2       
   128      0.350962  3 O  d -2              31     -0.174096  1 U  d -2       
    26      0.069763  1 U  d -2              36      0.050990  1 U  d -2       
    64      0.029318  1 U  g -2       
 
 Vector   70  Occ=0.000000D+00  E= 8.187902D-01
              MO Center=  2.4D-09,  2.1D-09, -1.7D-16, r^2= 1.8D+00
   Bfn.  Coefficient  Atom+Function         Bfn.  Coefficient  Atom+Function  
  ----- ------------  ---------------      ----- ------------  ---------------
    79      0.971308  1 U  g  4              70      0.055603  1 U  g  4       
 
 Vector   71  Occ=0.000000D+00  E= 8.187902D-01
              MO Center=  3.4D-09,  2.2D-09,  2.4D-16, r^2= 1.8D+00
   Bfn.  Coefficient  Atom+Function         Bfn.  Coefficient  Atom+Function  
  ----- ------------  ---------------      ----- ------------  ---------------
    71      0.971308  1 U  g -4              62      0.055602  1 U  g -4       
 
 Vector   72  Occ=0.000000D+00  E= 8.303823D-01
              MO Center=  5.2D-10,  1.2D-09, -7.0D-07, r^2= 1.8D+00
   Bfn.  Coefficient  Atom+Function         Bfn.  Coefficient  Atom+Function  
  ----- ------------  ---------------      ----- ------------  ---------------
    72      0.928327  1 U  g -3              78      0.285196  1 U  g  3       
    63      0.051988  1 U  g -3       
 
 Vector   73  Occ=0.000000D+00  E= 8.303823D-01
              MO Center=  8.1D-10,  1.3D-09, -7.0D-07, r^2= 1.8D+00
   Bfn.  Coefficient  Atom+Function         Bfn.  Coefficient  Atom+Function  
  ----- ------------  ---------------      ----- ------------  ---------------
    78      0.928327  1 U  g  3              72     -0.285196  1 U  g -3       
    69      0.051988  1 U  g  3       
 
 Vector   74  Occ=0.000000D+00  E= 8.854416D-01
              MO Center= -1.2D-10, -6.8D-11, -6.7D-07, r^2= 2.4D+00
   Bfn.  Coefficient  Atom+Function         Bfn.  Coefficient  Atom+Function  
  ----- ------------  ---------------      ----- ------------  ---------------
    74      0.518402  1 U  g -1              76      0.499903  1 U  g  1       
    99     -0.210907  2 O  d -1             129     -0.210903  3 O  d -1       
   101     -0.203381  2 O  d  1             131     -0.203377  3 O  d  1       
    32      0.181367  1 U  d -1              27     -0.180463  1 U  d -1       
    34      0.174895  1 U  d  1              29     -0.174023  1 U  d  1       
 
 Vector   75  Occ=0.000000D+00  E= 8.854416D-01
              MO Center=  2.0D-10, -1.0D-11, -6.7D-07, r^2= 2.4D+00
   Bfn.  Coefficient  Atom+Function         Bfn.  Coefficient  Atom+Function  
  ----- ------------  ---------------      ----- ------------  ---------------
    76     -0.518402  1 U  g  1              74      0.499903  1 U  g -1       
   101      0.210907  2 O  d  1             131      0.210903  3 O  d  1       
    99     -0.203381  2 O  d -1             129     -0.203377  3 O  d -1       
    34     -0.181367  1 U  d  1              29      0.180463  1 U  d  1       
    32      0.174895  1 U  d -1              27     -0.174023  1 U  d -1       
 
 Vector   76  Occ=0.000000D+00  E= 1.035221D+00
              MO Center= -2.4D-09,  3.3D-09,  5.4D-05, r^2= 4.7D+00
   Bfn.  Coefficient  Atom+Function         Bfn.  Coefficient  Atom+Function  
  ----- ------------  ---------------      ----- ------------  ---------------
    83     -3.731223  2 O  s                113     -3.731054  3 O  s          
     4      3.452681  1 U  s                 33      3.123959  1 U  d  0       
     2     -2.757253  1 U  s                  3      2.241300  1 U  s          
     5     -0.793897  1 U  s                 92      0.772881  2 O  pz         
   122     -0.772878  3 O  pz                81      0.760158  2 O  s          
 
 Vector   77  Occ=0.000000D+00  E= 1.110013D+00
              MO Center=  3.1D-10,  6.3D-10,  3.5D-05, r^2= 4.0D+00
   Bfn.  Coefficient  Atom+Function         Bfn.  Coefficient  Atom+Function  
  ----- ------------  ---------------      ----- ------------  ---------------
   102      0.741111  2 O  d  2             132     -0.741094  3 O  d  2       
    53     -0.436219  1 U  f  2              46      0.119114  1 U  f  2       
    60     -0.034263  1 U  f  2       
 
 Vector   78  Occ=0.000000D+00  E= 1.110015D+00
              MO Center=  2.4D-10,  7.9D-10,  3.5D-05, r^2= 4.0D+00
   Bfn.  Coefficient  Atom+Function         Bfn.  Coefficient  Atom+Function  
  ----- ------------  ---------------      ----- ------------  ---------------
    98      0.741110  2 O  d -2             128     -0.741093  3 O  d -2       
    49     -0.436243  1 U  f -2              42      0.119139  1 U  f -2       
    56     -0.034251  1 U  f -2       
 
 Vector   79  Occ=0.000000D+00  E= 1.192711D+00
              MO Center=  1.2D-09,  1.8D-10, -4.1D-05, r^2= 6.0D+00
   Bfn.  Coefficient  Atom+Function         Bfn.  Coefficient  Atom+Function  
  ----- ------------  ---------------      ----- ------------  ---------------
    17      4.450740  1 U  pz                83     -4.314868  2 O  s          
   113      4.314988  3 O  s                 58      1.722487  1 U  f  0       
    81      1.236869  2 O  s                111     -1.236887  3 O  s          
    20     -0.591756  1 U  pz                80      0.450423  2 O  s          
   110     -0.450431  3 O  s                 82      0.380973  2 O  s          
 
 Vector   80  Occ=0.000000D+00  E= 1.319838D+00
              MO Center= -5.9D-11,  6.6D-11, -4.6D-05, r^2= 3.3D+00
   Bfn.  Coefficient  Atom+Function         Bfn.  Coefficient  Atom+Function  
  ----- ------------  ---------------      ----- ------------  ---------------
    77      0.702471  1 U  g  2             102     -0.656961  2 O  d  2       
   132     -0.656985  3 O  d  2              35      0.256288  1 U  d  2       
    30     -0.110583  1 U  d  2              68      0.104898  1 U  g  2       
    40     -0.067375  1 U  d  2              25      0.058433  1 U  d  2       
 
 Vector   81  Occ=0.000000D+00  E= 1.319876D+00
              MO Center= -9.5D-11,  8.5D-11, -4.6D-05, r^2= 3.3D+00
   Bfn.  Coefficient  Atom+Function         Bfn.  Coefficient  Atom+Function  
  ----- ------------  ---------------      ----- ------------  ---------------
    73      0.702561  1 U  g -2              98     -0.656963  2 O  d -2       
   128     -0.656988  3 O  d -2              31      0.256200  1 U  d -2       
    26     -0.110459  1 U  d -2              64      0.104795  1 U  g -2       
    36     -0.067345  1 U  d -2              21      0.058374  1 U  d -2       
 
 Vector   82  Occ=0.000000D+00  E= 1.390847D+00
              MO Center=  5.8D-10,  4.4D-10, -4.8D-06, r^2= 2.5D+00
   Bfn.  Coefficient  Atom+Function         Bfn.  Coefficient  Atom+Function  
  ----- ------------  ---------------      ----- ------------  ---------------
    14      4.418496  1 U  pz                11     -3.191947  1 U  pz         
    51      1.931202  1 U  f  0              83     -1.927989  2 O  s          
   113      1.928076  3 O  s                 17      1.161028  1 U  pz         
    92      0.706662  2 O  pz               122      0.706703  3 O  pz         
    89      0.535876  2 O  pz               119      0.535865  3 O  pz         
 
 Vector   83  Occ=0.000000D+00  E= 1.424521D+00
              MO Center= -6.6D-10, -1.3D-09, -1.1D-05, r^2= 2.7D+00
   Bfn.  Coefficient  Atom+Function         Bfn.  Coefficient  Atom+Function  
  ----- ------------  ---------------      ----- ------------  ---------------
    83      1.397890  2 O  s                113      1.397864  3 O  s          
     4     -1.162674  1 U  s                 75      0.937000  1 U  g  0       
    28     -0.893465  1 U  d  0              81     -0.817487  2 O  s          
   111     -0.817520  3 O  s                 92     -0.754104  2 O  pz         
   122      0.754070  3 O  pz                 3     -0.647686  1 U  s          
 
 Vector   84  Occ=0.000000D+00  E= 1.610608D+00
              MO Center= -5.6D-10,  8.4D-10,  4.4D-05, r^2= 4.1D+00
   Bfn.  Coefficient  Atom+Function         Bfn.  Coefficient  Atom+Function  
  ----- ------------  ---------------      ----- ------------  ---------------
    50      0.932165  1 U  f -1              52      0.926037  1 U  f  1       
    13      0.786351  1 U  py                12     -0.781181  1 U  px         
    91     -0.737199  2 O  py               121     -0.737177  3 O  py         
    90      0.732353  2 O  px               120      0.732331  3 O  px         
    99      0.677629  2 O  d -1             129     -0.677606  3 O  d -1       
 
 Vector   85  Occ=0.000000D+00  E= 1.610608D+00
              MO Center=  2.1D-09,  2.2D-09,  4.4D-05, r^2= 4.1D+00
   Bfn.  Coefficient  Atom+Function         Bfn.  Coefficient  Atom+Function  
  ----- ------------  ---------------      ----- ------------  ---------------
    52     -0.932165  1 U  f  1              50      0.926037  1 U  f -1       
    12      0.786351  1 U  px                13      0.781181  1 U  py         
    90     -0.737199  2 O  px               120     -0.737177  3 O  px         
    91     -0.732353  2 O  py               121     -0.732331  3 O  py         
   101     -0.677629  2 O  d  1             131      0.677606  3 O  d  1       
 
 Vector   86  Occ=0.000000D+00  E= 1.737882D+00
              MO Center= -5.8D-10,  7.7D-10, -4.8D-05, r^2= 3.5D+00
   Bfn.  Coefficient  Atom+Function         Bfn.  Coefficient  Atom+Function  
  ----- ------------  ---------------      ----- ------------  ---------------
    32      1.069350  1 U  d -1              34      1.067527  1 U  d  1       
    22      0.661254  1 U  d -1              74      0.664277  1 U  g -1       
    24      0.660127  1 U  d  1              76      0.663145  1 U  g  1       
    27     -0.626835  1 U  d -1              29     -0.625766  1 U  d  1       
    99      0.553228  2 O  d -1             101      0.552285  2 O  d  1       
 
 Vector   87  Occ=0.000000D+00  E= 1.737882D+00
              MO Center=  4.3D-09,  4.3D-09, -4.8D-05, r^2= 3.5D+00
   Bfn.  Coefficient  Atom+Function         Bfn.  Coefficient  Atom+Function  
  ----- ------------  ---------------      ----- ------------  ---------------
    32      1.067527  1 U  d -1              34     -1.069350  1 U  d  1       
    76     -0.664277  1 U  g  1              22      0.660127  1 U  d -1       
    24     -0.661254  1 U  d  1              74      0.663145  1 U  g -1       
    27     -0.625766  1 U  d -1              29      0.626835  1 U  d  1       
    99      0.552285  2 O  d -1             101     -0.553228  2 O  d  1       
 
 Vector   88  Occ=0.000000D+00  E= 1.745942D+00
              MO Center= -3.8D-09, -3.9D-09,  1.2D-04, r^2= 5.6D+00
   Bfn.  Coefficient  Atom+Function         Bfn.  Coefficient  Atom+Function  
  ----- ------------  ---------------      ----- ------------  ---------------
    14      6.013996  1 U  pz                83     -3.143760  2 O  s          
   113      3.143550  3 O  s                 11     -2.530451  1 U  pz         
    92      2.132247  2 O  pz               122      2.132128  3 O  pz         
    51      1.434427  1 U  f  0              17      1.088945  1 U  pz         
   100     -1.082300  2 O  d  0             130      1.082230  3 O  d  0       
 
 Vector   89  Occ=0.000000D+00  E= 1.853913D+00
              MO Center= -5.4D-10, -6.4D-10, -1.2D-04, r^2= 5.3D+00
   Bfn.  Coefficient  Atom+Function         Bfn.  Coefficient  Atom+Function  
  ----- ------------  ---------------      ----- ------------  ---------------
     3      6.011861  1 U  s                  2     -5.056432  1 U  s          
    83     -3.121445  2 O  s                113     -3.121657  3 O  s          
    28      2.126715  1 U  d  0               4      2.106763  1 U  s          
    92      1.761114  2 O  pz               122     -1.761252  3 O  pz         
     1     -1.079079  1 U  s                100     -1.064138  2 O  d  0       
 
 Vector   90  Occ=0.000000D+00  E= 2.225903D+00
              MO Center=  1.4D-10,  7.0D-10, -1.4D-07, r^2= 3.0D+00
   Bfn.  Coefficient  Atom+Function         Bfn.  Coefficient  Atom+Function  
  ----- ------------  ---------------      ----- ------------  ---------------
    30      3.276666  1 U  d  2              25     -2.308470  1 U  d  2       
    35     -1.926693  1 U  d  2              40      0.617335  1 U  d  2       
   102     -0.032371  2 O  d  2             132     -0.032371  3 O  d  2       
    68      0.030574  1 U  g  2       
 
 Vector   91  Occ=0.000000D+00  E= 2.225907D+00
              MO Center= -1.8D-10,  6.0D-10, -1.4D-07, r^2= 3.0D+00
   Bfn.  Coefficient  Atom+Function         Bfn.  Coefficient  Atom+Function  
  ----- ------------  ---------------      ----- ------------  ---------------
    26      3.276652  1 U  d -2              21     -2.308466  1 U  d -2       
    31     -1.926690  1 U  d -2              36      0.617333  1 U  d -2       
    98     -0.032338  2 O  d -2             128     -0.032338  3 O  d -2       
    64      0.030717  1 U  g -2       
 
 Vector   92  Occ=0.000000D+00  E= 2.491857D+00
              MO Center= -9.1D-11,  1.6D-10, -3.3D-07, r^2= 3.3D+00
   Bfn.  Coefficient  Atom+Function         Bfn.  Coefficient  Atom+Function  
  ----- ------------  ---------------      ----- ------------  ---------------
    27      2.232020  1 U  d -1              29      2.224762  1 U  d  1       
    22     -1.435251  1 U  d -1              24     -1.430583  1 U  d  1       
    32     -1.002459  1 U  d -1              34     -0.999199  1 U  d  1       
    37      0.370107  1 U  d -1              39      0.368904  1 U  d  1       
    99      0.345717  2 O  d -1             101      0.344593  2 O  d  1       
 
 Vector   93  Occ=0.000000D+00  E= 2.491857D+00
              MO Center= -2.5D-10, -2.2D-10, -3.3D-07, r^2= 3.3D+00
   Bfn.  Coefficient  Atom+Function         Bfn.  Coefficient  Atom+Function  
  ----- ------------  ---------------      ----- ------------  ---------------
    27      2.224762  1 U  d -1              29     -2.232020  1 U  d  1       
    22     -1.430583  1 U  d -1              24      1.435251  1 U  d  1       
    32     -0.999199  1 U  d -1              34      1.002459  1 U  d  1       
    37      0.368904  1 U  d -1              39     -0.370107  1 U  d  1       
    99      0.344593  2 O  d -1             101     -0.345717  2 O  d  1       
 
 Vector   94  Occ=0.000000D+00  E= 2.716184D+00
              MO Center=  1.2D-10,  2.5D-10,  1.9D-06, r^2= 2.4D+00
   Bfn.  Coefficient  Atom+Function         Bfn.  Coefficient  Atom+Function  
  ----- ------------  ---------------      ----- ------------  ---------------
    28      2.810487  1 U  d  0              23     -1.697405  1 U  d  0       
     3      1.360173  1 U  s                 33     -1.197817  1 U  d  0       
     2     -1.138262  1 U  s                 66      0.619916  1 U  g  0       
    92      0.569546  2 O  pz               122     -0.569552  3 O  pz         
     4      0.393583  1 U  s                 86      0.392392  2 O  pz         
 
 Vector   95  Occ=0.000000D+00  E= 2.977679D+00
              MO Center=  1.4D-10,  2.8D-10,  1.4D-13, r^2= 8.8D-01
   Bfn.  Coefficient  Atom+Function         Bfn.  Coefficient  Atom+Function  
  ----- ------------  ---------------      ----- ------------  ---------------
    70      1.149555  1 U  g  4              79     -0.617356  1 U  g  4       
 
 Vector   96  Occ=0.000000D+00  E= 2.977683D+00
              MO Center=  2.1D-10,  2.9D-10,  8.2D-18, r^2= 8.8D-01
   Bfn.  Coefficient  Atom+Function         Bfn.  Coefficient  Atom+Function  
  ----- ------------  ---------------      ----- ------------  ---------------
    62      1.149555  1 U  g -4              71     -0.617356  1 U  g -4       
 
 Vector   97  Occ=0.000000D+00  E= 2.987834D+00
              MO Center=  6.6D-11,  2.1D-10,  2.0D-08, r^2= 8.9D-01
   Bfn.  Coefficient  Atom+Function         Bfn.  Coefficient  Atom+Function  
  ----- ------------  ---------------      ----- ------------  ---------------
    63      0.865274  1 U  g -3              69     -0.753081  1 U  g  3       
    72     -0.461376  1 U  g -3              78      0.401553  1 U  g  3       
 
 Vector   98  Occ=0.000000D+00  E= 2.987834D+00
              MO Center=  6.7D-11,  1.7D-10,  2.0D-08, r^2= 8.9D-01
   Bfn.  Coefficient  Atom+Function         Bfn.  Coefficient  Atom+Function  
  ----- ------------  ---------------      ----- ------------  ---------------
    69      0.865274  1 U  g  3              63      0.753081  1 U  g -3       
    78     -0.461376  1 U  g  3              72     -0.401553  1 U  g -3       
 
 Vector   99  Occ=0.000000D+00  E= 3.069526D+00
              MO Center=  2.0D-11,  1.5D-10,  1.6D-07, r^2= 1.0D+00
   Bfn.  Coefficient  Atom+Function         Bfn.  Coefficient  Atom+Function  
  ----- ------------  ---------------      ----- ------------  ---------------
    68      1.144524  1 U  g  2              77     -0.679300  1 U  g  2       
   102      0.144771  2 O  d  2             132      0.144772  3 O  d  2       
   108      0.059069  2 O  f  2             138     -0.059068  3 O  f  2       
    30     -0.053754  1 U  d  2              25      0.049090  1 U  d  2       
 
 Vector  100  Occ=0.000000D+00  E= 3.070258D+00
              MO Center=  3.8D-11,  1.2D-10,  1.6D-07, r^2= 1.0D+00
   Bfn.  Coefficient  Atom+Function         Bfn.  Coefficient  Atom+Function  
  ----- ------------  ---------------      ----- ------------  ---------------
    64      1.144519  1 U  g -2              73     -0.679185  1 U  g -2       
    98      0.144720  2 O  d -2             128      0.144721  3 O  d -2       
   104      0.059111  2 O  f -2             134     -0.059111  3 O  f -2       
    26     -0.054107  1 U  d -2              21      0.049390  1 U  d -2       
 
 Vector  101  Occ=0.000000D+00  E= 3.125192D+00
              MO Center=  5.4D-11,  1.2D-10,  3.8D-05, r^2= 2.5D+00
   Bfn.  Coefficient  Atom+Function         Bfn.  Coefficient  Atom+Function  
  ----- ------------  ---------------      ----- ------------  ---------------
    65      0.631140  1 U  g -1              67      0.627934  1 U  g  1       
    91      0.474753  2 O  py               121     -0.474728  3 O  py         
    90     -0.472341  2 O  px               120      0.472316  3 O  px         
    74     -0.463959  1 U  g -1              76     -0.461602  1 U  g  1       
    88     -0.447835  2 O  py               118      0.447807  3 O  py         
 
 Vector  102  Occ=0.000000D+00  E= 3.125192D+00
              MO Center= -5.1D-11, -3.5D-11,  3.8D-05, r^2= 2.5D+00
   Bfn.  Coefficient  Atom+Function         Bfn.  Coefficient  Atom+Function  
  ----- ------------  ---------------      ----- ------------  ---------------
    67     -0.631140  1 U  g  1              65      0.627934  1 U  g -1       
    90      0.474753  2 O  px               120     -0.474728  3 O  px         
    91      0.472341  2 O  py               121     -0.472316  3 O  py         
    76      0.463959  1 U  g  1              74     -0.461602  1 U  g -1       
    87     -0.447835  2 O  px               117      0.447807  3 O  px         
 
 Vector  103  Occ=0.000000D+00  E= 3.421020D+00
              MO Center= -8.2D-12,  2.1D-10, -1.5D-05, r^2= 4.0D+00
   Bfn.  Coefficient  Atom+Function         Bfn.  Coefficient  Atom+Function  
  ----- ------------  ---------------      ----- ------------  ---------------
    87      0.889398  2 O  px               117      0.889395  3 O  px         
    88     -0.882015  2 O  py               118     -0.882011  3 O  py         
    90     -0.769223  2 O  px               120     -0.769237  3 O  px         
    91      0.762837  2 O  py               121      0.762851  3 O  py         
    84     -0.626653  2 O  px               114     -0.626656  3 O  px         
 
 Vector  104  Occ=0.000000D+00  E= 3.421020D+00
              MO Center= -2.8D-10, -2.7D-10, -1.5D-05, r^2= 4.0D+00
   Bfn.  Coefficient  Atom+Function         Bfn.  Coefficient  Atom+Function  
  ----- ------------  ---------------      ----- ------------  ---------------
    88      0.889398  2 O  py               118      0.889395  3 O  py         
    87      0.882015  2 O  px               117      0.882011  3 O  px         
    91     -0.769223  2 O  py               121     -0.769237  3 O  py         
    90     -0.762837  2 O  px               120     -0.762851  3 O  px         
    85     -0.626653  2 O  py               115     -0.626656  3 O  py         
 
 Vector  105  Occ=0.000000D+00  E= 3.497748D+00
              MO Center=  9.0D-10,  6.8D-10,  7.2D-06, r^2= 2.0D+00
   Bfn.  Coefficient  Atom+Function         Bfn.  Coefficient  Atom+Function  
  ----- ------------  ---------------      ----- ------------  ---------------
    28      1.707451  1 U  d  0              75      1.114102  1 U  g  0       
    23     -1.048428  1 U  d  0              66     -0.969628  1 U  g  0       
     4      0.731034  1 U  s                  2     -0.696342  1 U  s          
     3      0.475604  1 U  s                 83     -0.367323  2 O  s          
   113     -0.367356  3 O  s                 81     -0.346146  2 O  s          
 
 Vector  106  Occ=0.000000D+00  E= 3.779042D+00
              MO Center= -3.8D-11,  7.3D-11, -2.5D-05, r^2= 2.5D+00
   Bfn.  Coefficient  Atom+Function         Bfn.  Coefficient  Atom+Function  
  ----- ------------  ---------------      ----- ------------  ---------------
    27      1.121237  1 U  d -1              29      1.103280  1 U  d  1       
    74      0.809579  1 U  g -1              76      0.796614  1 U  g  1       
    88     -0.715277  2 O  py               118      0.715299  3 O  py         
    87      0.703822  2 O  px               117     -0.703843  3 O  px         
[...]
 135      -0.00000     0.07904     0.07880     0.00000     0.24618     0.24553
 136       0.00000    -0.00000    -0.00000     0.13224     0.00000     0.00000
 137       0.00000     0.07880    -0.07904    -0.00000     0.24553    -0.24618
 138      -0.00000    -0.00000    -0.00000     0.00000    -0.00000    -0.00000
 139       0.00000    -0.00000     0.00000    -0.00000     0.00000    -0.00000

          133         134         135         136         137         138  
       ----------- ----------- ----------- ----------- ----------- -----------
   1      -0.28761    -0.00000     0.31353     0.00000    -0.00000    -0.00000
   2      -1.76739    -0.00001     1.17425    -0.00000    -0.00000    -0.00000
   3       2.52288     0.00001    -0.86579     0.00000     0.00000     0.00000
   4       0.13870    -0.00001     1.65541    -0.00000     0.00000    -0.00000
   5      -0.10455     0.00000    -0.37696     0.00000    -0.00000     0.00000
   6       0.00000    -0.00000    -0.00000     1.08165    -0.93492     0.00000
   7      -0.00000    -0.00000     0.00000     0.93492     1.08165    -0.00000
   8       0.00000    -0.02223    -0.00000    -0.00000     0.00000     1.54171
   9       0.00000     0.00000    -0.00000     0.96054    -0.83023     0.00000
  10      -0.00000    -0.00000     0.00000     0.83023     0.96054    -0.00000
  11       0.00002    -0.04540    -0.00000    -0.00000     0.00000     1.94286
  12      -0.00000    -0.00000     0.00000    -0.67022     0.57930    -0.00000
  13       0.00000     0.00000    -0.00000    -0.57930    -0.67022     0.00000
  14      -0.00006    -0.42027    -0.00000     0.00000    -0.00000    -2.06735
  15       0.00000    -0.00000    -0.00000     0.22846    -0.19747     0.00000
  16       0.00000     0.00000     0.00000     0.19747     0.22846    -0.00000
  17       0.00001    -2.97893    -0.00002     0.00000    -0.00000    -0.26951
  18      -0.00000    -0.00000    -0.00000    -0.08749     0.07562    -0.00000
  19      -0.00000     0.00000     0.00000    -0.07562    -0.08749     0.00000
  20       0.00000     0.42301     0.00000    -0.00000     0.00000     0.08450
  21      -0.00000     0.00000     0.00000    -0.00000    -0.00000     0.00000
  22      -0.00000     0.00000     0.00000    -0.00000    -0.00000     0.00000
  23       0.40444    -0.00001     1.24645     0.00000    -0.00000    -0.00000
  24       0.00000     0.00000     0.00000     0.00000    -0.00000     0.00000
  25       0.00000    -0.00000     0.00000    -0.00000     0.00000     0.00000
  26       0.00000    -0.00000    -0.00000     0.00000     0.00000    -0.00000
  27       0.00000    -0.00000    -0.00000     0.00000     0.00000    -0.00000
  28       0.73129     0.00002    -2.57330    -0.00000     0.00000     0.00000
  29      -0.00000    -0.00000    -0.00000    -0.00000     0.00000    -0.00000
  30      -0.00000    -0.00000    -0.00000     0.00000    -0.00000    -0.00000
  31      -0.00000     0.00000     0.00000    -0.00000    -0.00000    -0.00000
  32      -0.00000     0.00000     0.00000    -0.00000    -0.00000     0.00000
  33      -0.10016    -0.00001     1.84522     0.00000    -0.00000    -0.00000
  34       0.00000     0.00000     0.00000     0.00000    -0.00000     0.00000
  35       0.00000     0.00000     0.00000    -0.00000     0.00000     0.00000
  36       0.00000    -0.00000    -0.00000    -0.00000     0.00000     0.00000
  37       0.00000    -0.00000    -0.00000     0.00000     0.00000    -0.00000
  38      -0.08378     0.00000    -0.24613     0.00000    -0.00000     0.00000
  39      -0.00000    -0.00000    -0.00000    -0.00000     0.00000    -0.00000
  40       0.00000    -0.00000    -0.00000     0.00000     0.00000     0.00000
  41      -0.00000     0.00000     0.00000     0.00000     0.00000     0.00000
  42      -0.00000     0.00000     0.00000     0.00000     0.00000     0.00000
  43       0.00000    -0.00000     0.00000     0.00265     0.00306     0.00000
  44      -0.00001    -0.06487    -0.00000    -0.00000     0.00000     0.03705
  45       0.00000     0.00000     0.00000    -0.00306     0.00265    -0.00000
  46      -0.00000     0.00000     0.00000     0.00000     0.00000    -0.00000
  47       0.00000    -0.00000    -0.00000     0.00000    -0.00000     0.00000
  48       0.00000    -0.00000    -0.00000    -0.00000    -0.00000    -0.00000
  49      -0.00000    -0.00000    -0.00000    -0.00000    -0.00000    -0.00000
  50       0.00000     0.00000    -0.00000    -0.03537    -0.04092     0.00000
  51      -0.00001     0.11975     0.00000     0.00000    -0.00000    -0.52601
  52      -0.00000     0.00000    -0.00000     0.04092    -0.03537     0.00000
  53       0.00000    -0.00000    -0.00000    -0.00000     0.00000     0.00000
  54      -0.00000     0.00000     0.00000    -0.00000     0.00000    -0.00000
  55      -0.00000     0.00000     0.00000     0.00000     0.00000     0.00000
  56       0.00000     0.00000     0.00000     0.00000     0.00000     0.00000
  57       0.00000     0.00000     0.00000    -0.00244    -0.00282     0.00000
  58       0.00001    -1.00409    -0.00001     0.00000     0.00000     0.07735
  59      -0.00000     0.00000     0.00000     0.00282    -0.00244    -0.00000
  60       0.00000     0.00000     0.00000     0.00000    -0.00000    -0.00000
  61       0.00000    -0.00000    -0.00000     0.00000    -0.00000     0.00000
  62      -0.00000    -0.00000     0.00000     0.00000     0.00000    -0.00000
  63       0.00000    -0.00000    -0.00000     0.00000     0.00000    -0.00000
  64      -0.00000     0.00000    -0.00000     0.00000     0.00000     0.00000
  65      -0.00000    -0.00000    -0.00000    -0.00000    -0.00000     0.00000
  66       0.26781    -0.00000     0.27014     0.00000    -0.00000    -0.00000
  67       0.00000    -0.00000     0.00000     0.00000    -0.00000    -0.00000
  68       0.00000     0.00000     0.00000     0.00000    -0.00000     0.00000
  69      -0.00000     0.00000     0.00000     0.00000    -0.00000    -0.00000
  70      -0.00000    -0.00000     0.00000     0.00000    -0.00000    -0.00000
  71      -0.00000     0.00000    -0.00000    -0.00000    -0.00000     0.00000
  72      -0.00000    -0.00000     0.00000    -0.00000    -0.00000     0.00000
  73       0.00000    -0.00000    -0.00000    -0.00000    -0.00000    -0.00000
  74       0.00000     0.00000    -0.00000     0.00000     0.00000    -0.00000
  75       0.01553     0.00001    -1.10245    -0.00000     0.00000     0.00000
  76      -0.00000     0.00000    -0.00000    -0.00000     0.00000     0.00000
  77      -0.00000    -0.00000     0.00000    -0.00000     0.00000    -0.00000
  78       0.00000    -0.00000    -0.00000    -0.00000    -0.00000     0.00000
  79       0.00000     0.00000    -0.00000    -0.00000     0.00000     0.00000
  80      -0.16898    -2.24111     2.37885    -0.00000     0.00000     0.02373
  81      -0.14024    -3.21187     3.51788    -0.00000     0.00000     0.03815
  82       0.33267     1.81735    -1.82329     0.00000    -0.00000    -0.03213
  83      -0.67660     3.83909    -2.50893    -0.00000     0.00000     0.73588
  84       0.00000     0.00000     0.00000    -0.00385     0.00333    -0.00000
  85       0.00000    -0.00000    -0.00000    -0.00333    -0.00385    -0.00000
  86      -0.16478     0.00598     0.19659    -0.00000     0.00000     0.03053
  87      -0.00000    -0.00000    -0.00000     0.01186    -0.01025     0.00000
  88      -0.00000     0.00000     0.00000     0.01025     0.01186     0.00000
  89       0.29583     0.04308    -1.01005     0.00000    -0.00000    -0.19725
  90      -0.00000     0.00000     0.00000     0.02254    -0.01948     0.00000
  91      -0.00000    -0.00000    -0.00000     0.01948     0.02254     0.00000
  92       0.61642    -0.50598     0.71319     0.00000    -0.00000    -0.35529
  93      -0.00000     0.00000     0.00000    -0.00000    -0.00000     0.00000
  94      -0.00000    -0.00000     0.00000     0.00696     0.00805     0.00000
  95       0.82148    -0.08808     0.15280    -0.00000     0.00000     0.01480
  96       0.00000    -0.00000     0.00000    -0.00805     0.00696    -0.00000
  97      -0.00000    -0.00000     0.00000    -0.00000     0.00000     0.00000
  98       0.00000    -0.00000    -0.00000     0.00000     0.00000     0.00000
  99       0.00000     0.00000    -0.00000    -0.02571    -0.02975    -0.00000
 100      -0.85079     0.14564     0.05397    -0.00000     0.00000     0.04917
 101      -0.00000     0.00000    -0.00000     0.02975    -0.02571     0.00000
 102       0.00000     0.00000    -0.00000     0.00000    -0.00000     0.00000
 103      -0.00000     0.00000    -0.00000     0.00000     0.00000     0.00000
 104       0.00000    -0.00000    -0.00000    -0.00000    -0.00000    -0.00000
 105      -0.00000    -0.00000     0.00000     0.00093     0.00108     0.00000
 106       0.28230    -0.03902     0.01070    -0.00000     0.00000     0.05372
 107       0.00000    -0.00000     0.00000    -0.00108     0.00093    -0.00000
 108      -0.00000    -0.00000    -0.00000    -0.00000     0.00000    -0.00000
 109      -0.00000     0.00000     0.00000     0.00000    -0.00000    -0.00000
 110      -0.16899     2.24108     2.37888     0.00000    -0.00000    -0.02373
 111      -0.14024     3.21183     3.51791     0.00000    -0.00000    -0.03815
 112       0.33268    -1.81733    -1.82331    -0.00000     0.00000     0.03213
 113      -0.67664    -3.83907    -2.50897     0.00000    -0.00000    -0.73588
 114      -0.00000     0.00000     0.00000    -0.00385     0.00333    -0.00000
 115      -0.00000    -0.00000    -0.00000    -0.00333    -0.00385     0.00000
 116       0.16479     0.00599    -0.19659    -0.00000     0.00000     0.03053
 117       0.00000    -0.00000    -0.00000     0.01186    -0.01025     0.00000
 118       0.00000     0.00000     0.00000     0.01025     0.01186    -0.00000
 119      -0.29584     0.04306     1.01005     0.00000    -0.00000    -0.19725
 120       0.00000     0.00000     0.00000     0.02254    -0.01948     0.00000
 121       0.00000    -0.00000    -0.00000     0.01948     0.02254    -0.00000
 122      -0.61647    -0.50598    -0.71319     0.00000    -0.00000    -0.35529
 123       0.00000    -0.00000    -0.00000    -0.00000     0.00000    -0.00000
 124      -0.00000    -0.00000    -0.00000    -0.00696    -0.00805     0.00000
 125       0.82154     0.08808     0.15281     0.00000    -0.00000    -0.01480
 126       0.00000     0.00000     0.00000     0.00805    -0.00696     0.00000
 127      -0.00000    -0.00000     0.00000     0.00000     0.00000    -0.00000
 128      -0.00000     0.00000     0.00000    -0.00000    -0.00000     0.00000
 129       0.00000     0.00000     0.00000     0.02571     0.02975    -0.00000
 130      -0.85084    -0.14564     0.05397     0.00000    -0.00000    -0.04917
 131      -0.00000    -0.00000    -0.00000    -0.02975     0.02571    -0.00000
 132       0.00000     0.00000    -0.00000    -0.00000     0.00000     0.00000
 133       0.00000    -0.00000    -0.00000     0.00000     0.00000     0.00000
 134      -0.00000    -0.00000    -0.00000    -0.00000    -0.00000     0.00000
 135       0.00000     0.00000    -0.00000     0.00093     0.00108    -0.00000
 136      -0.28231    -0.03902    -0.01070    -0.00000     0.00000     0.05372
 137      -0.00000    -0.00000    -0.00000    -0.00108     0.00093    -0.00000
 138       0.00000    -0.00000    -0.00000    -0.00000     0.00000     0.00000
 139      -0.00000     0.00000     0.00000     0.00000    -0.00000     0.00000

          139  
       -----------
   1       2.21352
   2       3.20191
   3      -2.41010
   4      -0.35271
   5       0.10092
   6      -0.00000
   7       0.00000
   8       0.00000
   9      -0.00000
  10       0.00000
  11      -0.00000
  12       0.00000
  13      -0.00000
  14       0.00000
  15      -0.00000
  16       0.00000
  17      -0.00000
  18       0.00000
  19      -0.00000
  20       0.00000
  21      -0.00000
  22       0.00000
  23       0.34559
  24      -0.00000
  25      -0.00000
  26       0.00000
  27      -0.00000
  28      -1.06051
  29       0.00000
  30       0.00000
  31       0.00000
  32       0.00000
  33      -0.13905
  34      -0.00000
  35      -0.00000
  36      -0.00000
  37      -0.00000
  38       0.04260
  39       0.00000
  40       0.00000
  41      -0.00000
  42       0.00000
  43      -0.00000
  44      -0.00000
  45      -0.00000
  46       0.00000
  47      -0.00000
  48       0.00000
  49      -0.00000
  50      -0.00000
  51       0.00000
  52       0.00000
  53      -0.00000
  54       0.00000
  55      -0.00000
  56       0.00000
  57       0.00000
  58      -0.00000
  59       0.00000
  60       0.00000
  61      -0.00000
  62      -0.00000
  63       0.00000
  64       0.00000
  65      -0.00000
  66       0.05845
  67       0.00000
  68      -0.00000
  69       0.00000
  70      -0.00000
  71       0.00000
  72      -0.00000
  73      -0.00000
  74       0.00000
  75      -0.32125
  76      -0.00000
  77       0.00000
  78      -0.00000
  79       0.00000
  80       0.10807
  81       0.16826
  82      -0.10005
  83       0.66075
  84       0.00000
  85       0.00000
  86       0.06256
  87      -0.00000
  88      -0.00000
  89      -0.32181
  90      -0.00000
  91       0.00000
  92      -0.29857
  93       0.00000
  94       0.00000
  95       0.00043
  96       0.00000
  97      -0.00000
  98       0.00000
  99      -0.00000
 100       0.14598
 101      -0.00000
 102       0.00000
 103       0.00000
 104      -0.00000
 105       0.00000
 106      -0.00132
 107       0.00000
 108      -0.00000
 109       0.00000
 110       0.10807
 111       0.16826
 112      -0.10005
 113       0.66075
 114      -0.00000
 115      -0.00000
 116      -0.06256
 117       0.00000
 118       0.00000
 119       0.32181
 120       0.00000
 121      -0.00000
 122       0.29857
 123       0.00000
 124      -0.00000
 125       0.00043
 126       0.00000
 127       0.00000
 128      -0.00000
 129       0.00000
 130       0.14598
 131      -0.00000
 132      -0.00000
 133      -0.00000
 134      -0.00000
 135       0.00000
 136       0.00132
 137      -0.00000
 138      -0.00000
 139      -0.00000

 center of mass
 --------------
 x =   0.00000000 y =   0.00000000 z =   0.00000000

 moments of inertia (a.u.)
 ------------------
         368.117752469984           0.000000000000           0.000000000000
           0.000000000000         368.117752469984           0.000000000000
           0.000000000000           0.000000000000           0.000000000000
 
     Multipole analysis of the density
     ---------------------------------
 
     L   x y z        total         alpha         beta         nuclear
     -   - - -        -----         -----         ----         -------
     0   0 0 0      2.000000    -14.000000    -14.000000     30.000000
 
     1   1 0 0     -0.000000     -0.000000     -0.000000      0.000000
     1   0 1 0      0.000000      0.000000      0.000000      0.000000
     1   0 0 1     -0.000215     -0.000107     -0.000107      0.000000
 
     2   2 0 0    -20.461323    -10.230661    -10.230661      0.000000
     2   1 1 0     -0.000000     -0.000000     -0.000000      0.000000
     2   1 0 1      0.000000      0.000000      0.000000      0.000000
     2   0 2 0    -20.461323    -10.230661    -10.230661      0.000000
     2   0 1 1      0.000000      0.000000      0.000000      0.000000
     2   0 0 2    -25.371785   -104.744617   -104.744617    184.117449
 

------------------------------------------------------------
EAF file 0: "./uo2-z.aoints.0" size=95944704 bytes
------------------------------------------------------------
               write      read    awrite     aread      wait
               -----      ----    ------     -----      ----
     calls:      183        10         0      1820      1820
   data(b): 9.59e+07  5.24e+06  0.00e+00  9.54e+08
   time(s): 0.00e+00  0.00e+00  0.00e+00  0.00e+00  0.00e+00
rate(mb/s): 0.00e+00  0.00e+00
------------------------------------------------------------


 Parallel integral file used     183 records with       0 large values


 Input for gennbo program written to file ./uo2-z.gen.
 Reading MOs from: 
 ./uo2-z.movecs                                                                 
                                                                                
                                                                                
                   

 Task  times  cpu:       92.3s     wall:       94.3s
 
 
                                NWChem Input Module
                                -------------------
 
 
 Summary of allocated global arrays
-----------------------------------
  No active global arrays



                         GA Statistics for process    0
                         ------------------------------

       create   destroy   get      put      acc     scatter   gather  read&inc
calls:  181      181     1.55e+04 6933     6704        2        0      560     
number of processes/call 1.00e+00 1.00e+00 1.00e+00 1.00e+00 0.00e+00
bytes total:             2.35e+08 2.80e+07 1.59e+08 2.22e+03 0.00e+00 4.48e+03
bytes remote:            0.00e+00 0.00e+00 0.00e+00 0.00e+00 0.00e+00 0.00e+00
Max memory consumed for GA by this process: 6028152 bytes
 
MA_summarize_allocated_blocks: starting scan ...
MA_summarize_allocated_blocks: scan completed: 0 heap blocks, 0 stack blocks
MA usage statistics:

	allocation statistics:
					      heap	     stack
					      ----	     -----
	current number of blocks	         0	         0
	maximum number of blocks	        40	        52
	current total bytes		         0	         0
	maximum total bytes		  21138424	  43152920
	maximum total K-bytes		     21139	     43153
	maximum total M-bytes		        22	        44
 
 
                                     CITATION
                                     --------
                Please cite the following reference when publishing
                           results obtained with NWChem:
 
                 M. Valiev, E.J. Bylaska, N. Govind, K. Kowalski,
              T.P. Straatsma, H.J.J. van Dam, D. Wang, J. Nieplocha,
                        E. Apra, T.L. Windus, W.A. de Jong
                 "NWChem: a comprehensive and scalable open-source
                  solution for large scale molecular simulations"
                      Comput. Phys. Commun. 181, 1477 (2010)
                           doi:10.1016/j.cpc.2010.04.018
 
                                      AUTHORS
                                      -------
          E. Apra, E. J. Bylaska, W. A. de Jong, N. Govind, K. Kowalski,
       T. P. Straatsma, M. Valiev, H. J. J. van Dam, D. Wang, T. L. Windus,
        J. Hammond, J. Autschbach, K. Bhaskaran-Nair, J. Brabec, K. Lopata,
       S. A. Fischer, S. Krishnamoorthy, W. Ma, M. Klemm, O. Villa, Y. Chen,
    V. Anisimov, F. Aquino, S. Hirata, M. T. Hackler, T. Risthaus, M. Malagoli,
       A. Marenich, A. Otero-de-la-Roza, J. Mullin, P. Nichols, R. Peverati,
     J. Pittner, Y. Zhao, P.-D. Fan, A. Fonari, M. Williamson, R. J. Harrison,
       J. R. Rehr, M. Dupuis, D. Silverstein, D. M. A. Smith, J. Nieplocha,
        V. Tipparaju, M. Krishnan, B. E. Van Kuiken, A. Vazquez-Mayagoitia,
        L. Jensen, M. Swart, Q. Wu, T. Van Voorhis, A. A. Auer, M. Nooijen,
      L. D. Crosby, E. Brown, G. Cisneros, G. I. Fann, H. Fruchtl, J. Garza,
        K. Hirao, R. A. Kendall, J. A. Nichols, K. Tsemekhman, K. Wolinski,
     J. Anchell, D. E. Bernholdt, P. Borowski, T. Clark, D. Clerc, H. Dachsel,
   M. J. O. Deegan, K. Dyall, D. Elwood, E. Glendening, M. Gutowski, A. C. Hess,
         J. Jaffe, B. G. Johnson, J. Ju, R. Kobayashi, R. Kutteh, Z. Lin,
   R. Littlefield, X. Long, B. Meng, T. Nakajima, S. Niu, L. Pollack, M. Rosing,
   K. Glaesemann, G. Sandrone, M. Stave, H. Taylor, G. Thomas, J. H. van Lenthe,
                               A. T. Wong, Z. Zhang.

 Total times  cpu:       92.3s     wall:       95.4s
