 argument  1 = methyloxirane_blyp-def2-tzvp_488.9_25.inp
 


============================== echo of input deck ==============================
echo
start methyloxirane_blyp-def2-tzvp_488.9_25.inp
title "methyloxirane roa calculations at 488.9 nm, input generated in va  with delta_type=2"
charge 0



geometry units angstrom nocenter noautoz noautosym nucleus point;symmetry c1
 O -0.878129 -0.181504  0.206015
 C  0.575027 -0.156171  0.122498
 C -0.187081  1.088597  0.339509
 C  1.185228 -0.520514 -1.211541
 H  1.060610 -0.601029  0.998084
 H -0.230095  1.539058  1.334595
 H -0.328617  1.781704 -0.494282
 H  2.247170 -0.235456 -1.239186
 H  1.123085 -1.604478 -1.381324
 H  0.664412 -0.012646 -2.032928
end

basis spherical
* library def2-TZVP
end

 set prop:newaoresp 1
 set aor:roadata T
 set cphf:maxsub 100
 set cphf:acc 1.0d-10
 set cphf:maxiter 100

property
    response 1   0.093196
    bdtensor
    convergence 1e-7
    damping 0.0037
    giao
end

dft
 direct
 mult 1
 xc becke88 lyp
 iterations 250
 tolerances tight
 grid xfine
 convergence nolevelshifting
 convergence energy 1e-8
 convergence gradient 1e-7


end

task dft gradient
task dft property
================================================================================


                                         
                                         
 
 
              Northwest Computational Chemistry Package (NWChem) 6.8
              ------------------------------------------------------
 
 
                    Environmental Molecular Sciences Laboratory
                       Pacific Northwest National Laboratory
                                Richland, WA 99352
 
                              Copyright (c) 1994-2017
                       Pacific Northwest National Laboratory
                            Battelle Memorial Institute
 
             NWChem is an open-source computational chemistry package
                        distributed under the terms of the
                      Educational Community License (ECL) 2.0
             A copy of the license is included with this distribution
                              in the LICENSE.TXT file
 
                                  ACKNOWLEDGMENT
                                  --------------

            This software and its documentation were developed at the
            EMSL at Pacific Northwest National Laboratory, a multiprogram
            national laboratory, operated for the U.S. Department of Energy
            by Battelle under Contract Number DE-AC05-76RL01830. Support
            for this work was provided by the Department of Energy Office
            of Biological and Environmental Research, Office of Basic
            Energy Sciences, and the Office of Advanced Scientific Computing.


           Job information
           ---------------

    hostname        = cpn-f11-19-02.cbls.ccr.buffalo.edu
    program         = /util/academic/nwchem/nwchem-6.8/bin/LINUX64/nwchem
    date            = Fri Mar  1 10:18:46 2019

    compiled        = Tue_Nov_06_14:59:08_2018
    source          = /util/academic/nwchem/nwchem-6.8
    nwchem branch   = 6.8
    nwchem revision = v6.8-47-gdf6c956
    ga revision     = ga-5.6.3
    use scalapack   = F
    input           = methyloxirane_blyp-def2-tzvp_488.9_25.inp
    prefix          = methyloxirane_blyp-def2-tzvp_488.9_25.inp.
    data base       = ./methyloxirane_blyp-def2-tzvp_488.9_25.inp.db
    status          = startup
    nproc           =        7
    time left       =     -1s



           Memory information
           ------------------

    heap     =   13107196 doubles =    100.0 Mbytes
    stack    =   13107201 doubles =    100.0 Mbytes
    global   =   26214400 doubles =    200.0 Mbytes (distinct from heap & stack)
    total    =   52428797 doubles =    400.0 Mbytes
    verify   = yes
    hardfail = no 


           Directory information
           ---------------------
 
  0 permanent = .
  0 scratch   = .
 
 
 
 
                                NWChem Input Module
                                -------------------
 
 
                    methyloxirane roa calculations at 488.9 nm, input generated in va  with delta_type=2
                    ------------------------------------------

 Scaling coordinates for geometry "geometry" by  1.889725989
 (inverse scale =  0.529177249)

 
 
                             Geometry "geometry" -> ""
                             -------------------------
 
 Output coordinates in angstroms (scale by  1.889725989 to convert to a.u.)
 
  No.       Tag          Charge          X              Y              Z
 ---- ---------------- ---------- -------------- -------------- --------------
    1 O                    8.0000    -0.87812900    -0.18150400     0.20601500
    2 C                    6.0000     0.57502700    -0.15617100     0.12249800
    3 C                    6.0000    -0.18708100     1.08859700     0.33950900
    4 C                    6.0000     1.18522800    -0.52051400    -1.21154100
    5 H                    1.0000     1.06061000    -0.60102900     0.99808400
    6 H                    1.0000    -0.23009500     1.53905800     1.33459500
    7 H                    1.0000    -0.32861700     1.78170400    -0.49428200
    8 H                    1.0000     2.24717000    -0.23545600    -1.23918600
    9 H                    1.0000     1.12308500    -1.60447800    -1.38132400
   10 H                    1.0000     0.66441200    -0.01264600    -2.03292800
 
      Atomic Mass 
      ----------- 
 
      O                 15.994910
      C                 12.000000
      H                  1.007825
 

 Effective nuclear repulsion energy (a.u.)     123.5320099980

            Nuclear Dipole moment (a.u.) 
            ----------------------------
        X                 Y               Z
 ---------------- ---------------- ----------------
    13.1346859925     3.5651438220   -10.7036442151
 
 
            XYZ format geometry
            -------------------
    10
 geometry
 O                    -0.87812900    -0.18150400     0.20601500
 C                     0.57502700    -0.15617100     0.12249800
 C                    -0.18708100     1.08859700     0.33950900
 C                     1.18522800    -0.52051400    -1.21154100
 H                     1.06061000    -0.60102900     0.99808400
 H                    -0.23009500     1.53905800     1.33459500
 H                    -0.32861700     1.78170400    -0.49428200
 H                     2.24717000    -0.23545600    -1.23918600
 H                     1.12308500    -1.60447800    -1.38132400
 H                     0.66441200    -0.01264600    -2.03292800
 
 ==============================================================================
                                internuclear distances
 ------------------------------------------------------------------------------
       center one      |      center two      | atomic units |  angstroms
 ------------------------------------------------------------------------------
    2 C                |   1 O                |     2.75101  |     1.45577
    3 C                |   1 O                |     2.74403  |     1.45208
    3 C                |   2 C                |     2.78845  |     1.47558
    4 C                |   2 C                |     2.85640  |     1.51154
    5 H                |   2 C                |     2.07038  |     1.09560
    6 H                |   3 C                |     2.06574  |     1.09314
    7 H                |   3 C                |     2.06632  |     1.09345
    8 H                |   4 C                |     2.07848  |     1.09988
    9 H                |   4 C                |     2.07669  |     1.09894
   10 H                |   4 C                |     2.07341  |     1.09720
 ------------------------------------------------------------------------------
                         number of included internuclear distances:         10
 ==============================================================================



 ==============================================================================
                                 internuclear angles
 ------------------------------------------------------------------------------
        center 1       |       center 2       |       center 3       |  degrees
 ------------------------------------------------------------------------------
    2 C                |   1 O                |   3 C                |    60.99
    2 C                |   1 O                |   3 C                |    60.99
    1 O                |   2 C                |   4 C                |   116.71
    1 O                |   2 C                |   5 H                |   112.92
    3 C                |   2 C                |   4 C                |   122.79
    3 C                |   2 C                |   5 H                |   116.99
    4 C                |   2 C                |   5 H                |   115.37
    3 C                |   1 O                |   2 C                |    60.99
    1 O                |   3 C                |   6 H                |   115.18
    1 O                |   3 C                |   7 H                |   115.01
    2 C                |   3 C                |   6 H                |   120.12
    2 C                |   3 C                |   7 H                |   119.30
    6 H                |   3 C                |   7 H                |   115.33
    2 C                |   4 C                |   8 H                |   110.46
    2 C                |   4 C                |   9 H                |   110.57
    2 C                |   4 C                |  10 H                |   110.95
    8 H                |   4 C                |   9 H                |   107.84
    8 H                |   4 C                |  10 H                |   108.63
    9 H                |   4 C                |  10 H                |   108.30
 ------------------------------------------------------------------------------
                            number of included internuclear angles:         19
 ==============================================================================



  warning:::::::::::::: from_environment
  NWCHEM_BASIS_LIBRARY set to: <
 /util/academic/nwchem/nwchem-6.8/src/basis/libraries>
  but file does not exist !
  using .nwchemrc or compiled library


 Summary of "ao basis" -> "" (spherical)
 ------------------------------------------------------------------------------
       Tag                 Description            Shells   Functions and Types
 ---------------- ------------------------------  ------  ---------------------
 *                         def2-TZVP                  on all atoms 


 
                                 NWChem DFT Module
                                 -----------------
 
 
                    methyloxirane roa calculations at 488.9 nm, input generated in va  with delta_type=2
 
 
                      Basis "ao basis" -> "ao basis" (spherical)
                      -----
  O (Oxygen)
  ----------
            Exponent  Coefficients 
       -------------- ---------------------------------------------------------
  1 S  2.70323826E+04  0.000217
  1 S  4.05238714E+03  0.001684
  1 S  9.22327227E+02  0.008740
  1 S  2.61240710E+02  0.035240
  1 S  8.53546414E+01  0.111535
  1 S  3.10350352E+01  0.255890
 
  2 S  1.22608607E+01  0.397687
  2 S  4.99870760E+00  0.246278
 
  3 S  1.17031082E+00  1.000000
 
  4 S  4.64747410E-01  1.000000
 
  5 S  1.85045364E-01  1.000000
 
  6 P  6.32749548E+01  0.006069
  6 P  1.46270494E+01  0.041913
  6 P  4.45012235E+00  0.161538
  6 P  1.52757996E+00  0.357070
 
  7 P  5.29351179E-01  1.000000
 
  8 P  1.74784213E-01  1.000000
 
  9 D  2.31400000E+00  1.000000
 
 10 D  6.45000000E-01  1.000000
 
 11 F  1.42800000E+00  1.000000
 
  C (Carbon)
  ----------
            Exponent  Coefficients 
       -------------- ---------------------------------------------------------
  1 S  1.35753497E+04  0.000222
  1 S  2.03523337E+03  0.001723
  1 S  4.63225624E+02  0.008926
  1 S  1.31200196E+02  0.035728
  1 S  4.28530159E+01  0.110763
  1 S  1.55841858E+01  0.242956
 
  2 S  6.20671385E+00  0.414403
  2 S  2.57648965E+00  0.237450
 
  3 S  5.76963394E-01  1.000000
 
  4 S  2.29728314E-01  1.000000
 
  5 S  9.51644400E-02  1.000000
 
  6 P  3.46972322E+01  0.005333
  6 P  7.95826228E+00  0.035864
  6 P  2.37808269E+00  0.142159
  6 P  8.14332082E-01  0.342705
 
  7 P  2.88875473E-01  1.000000
 
  8 P  1.00568237E-01  1.000000
 
  9 D  1.09700000E+00  1.000000
 
 10 D  3.18000000E-01  1.000000
 
 11 F  7.61000000E-01  1.000000
 
  H (Hydrogen)
  ------------
            Exponent  Coefficients 
       -------------- ---------------------------------------------------------
  1 S  3.40613410E+01  0.006025
  1 S  5.12357460E+00  0.045021
  1 S  1.16466260E+00  0.201897
 
  2 S  3.27230410E-01  1.000000
 
  3 S  1.03072410E-01  1.000000
 
  4 P  8.00000000E-01  1.000000
 


 Summary of "ao basis" -> "ao basis" (spherical)
 ------------------------------------------------------------------------------
       Tag                 Description            Shells   Functions and Types
 ---------------- ------------------------------  ------  ---------------------
 O                         def2-TZVP                11       31   5s3p2d1f
 C                         def2-TZVP                11       31   5s3p2d1f
 H                         def2-TZVP                 4        6   3s1p




 Summary of "ao basis" -> "ao basis" (spherical)
 ------------------------------------------------------------------------------
       Tag                 Description            Shells   Functions and Types
 ---------------- ------------------------------  ------  ---------------------
 O                         def2-TZVP                11       31   5s3p2d1f
 C                         def2-TZVP                11       31   5s3p2d1f
 H                         def2-TZVP                 4        6   3s1p


  Caching 1-el integrals 
  itol2e modified to match energy
  convergence criterion.
  tol_rho modified to match energy
  convergence criterion.
 
            General Information
            -------------------
          SCF calculation type: DFT
          Wavefunction type:  closed shell.
          No. of atoms     :    10
          No. of electrons :    32
           Alpha electrons :    16
            Beta electrons :    16
          Charge           :     0
          Spin multiplicity:     1
          Use of symmetry is: off; symmetry adaption is: off
          Maximum number of iterations: 250
          This is a Direct SCF calculation.
          AO basis - number of functions:   160
                     number of shells:    68
          Convergence on energy requested:  1.00D-08
          Convergence on density requested:  1.00D-05
          Convergence on gradient requested:  1.00D-07
 
              XC Information
              --------------
                    Becke 1988 Exchange Functional  1.000          
              Lee-Yang-Parr Correlation Functional  1.000          
 
             Grid Information
             ----------------
          Grid used for XC integration:  xfine     
          Radial quadrature: Mura-Knowles        
          Angular quadrature: Lebedev. 
          Tag              B.-S. Rad. Rad. Pts. Rad. Cut. Ang. Pts.
          ---              ---------- --------- --------- ---------
          O                   0.60      100          11.0      1454
          C                   0.70      100          11.0      1454
          H                   0.35      100          12.0      1202
          Grid pruning is: on 
          Number of quadrature shells:  1000
          Spatial weights used:  Erf1
 
          Convergence Information
          -----------------------
          Convergence aids based upon iterative change in 
          total energy or number of iterations. 
          Levelshifting, if invoked, occurs when the 
          HOMO/LUMO gap drops below (HL_TOL):  1.00D-02
          DIIS, if invoked, will attempt to extrapolate 
          using up to (NFOCK): 10 stored Fock matrices.

                    Damping( 0%)  Levelshifting(0.0)       DIIS
                  --------------- ------------------- ---------------
          dE  on:    start             N/A                start   
          dE off:    2 iters           N/A              250 iters 

 
      Screening Tolerance Information
      -------------------------------
          Density screening/tol_rho:  1.00D-11
          AO Gaussian exp screening on grid/accAOfunc:  18
          CD Gaussian exp screening on grid/accCDfunc:  20
          XC Gaussian exp screening on grid/accXCfunc:  20
          Schwarz screening/accCoul:  1.00D-09

 
      Superposition of Atomic Density Guess
      -------------------------------------
 
 Sum of atomic energies:        -190.79714706
 
      Non-variational initial energy
      ------------------------------

 Total energy =    -193.161434
 1-e energy   =    -502.026227
 2-e energy   =     185.332783
 HOMO         =      -0.351605
 LUMO         =       0.090504
 
   Time after variat. SCF:      0.6
   Time prior to 1st pass:      0.6

 Grid_pts file          = ./methyloxirane_blyp-def2-tzvp_488.9_25.inp.gridpts.0
 Record size in doubles =  12289        No. of grid_pts per rec  =   3070
 Max. records in memory =     76        Max. recs in file   =    554542


           Memory utilization after 1st SCF pass: 
           Heap Space remaining (MW):       12.17            12167540
          Stack Space remaining (MW):       13.11            13106124

   convergence    iter        energy       DeltaE   RMS-Dens  Diis-err    time
 ---------------- ----- ----------------- --------- --------- ---------  ------
 d= 0,ls=0.0,diis     1   -193.0201839578 -3.17D+02  9.13D-03  1.06D+00     6.9
 d= 0,ls=0.0,diis     2   -192.8582294368  1.62D-01  7.55D-03  2.56D+00    13.1
 d= 0,ls=0.0,diis     3   -193.0771181423 -2.19D-01  1.82D-03  3.87D-01    19.1
 d= 0,ls=0.0,diis     4   -193.1072962756 -3.02D-02  6.85D-04  1.82D-02    25.1
 d= 0,ls=0.0,diis     5   -193.1089711083 -1.67D-03  2.92D-04  2.71D-03    31.1
 d= 0,ls=0.0,diis     6   -193.1093083238 -3.37D-04  3.02D-05  3.55D-05    37.2
 d= 0,ls=0.0,diis     7   -193.1093125504 -4.23D-06  8.55D-06  4.07D-06    43.3
 d= 0,ls=0.0,diis     8   -193.1093130050 -4.55D-07  1.96D-06  2.85D-07    49.3
 d= 0,ls=0.0,diis     9   -193.1093130363 -3.13D-08  6.29D-07  1.40D-08    55.3
 d= 0,ls=0.0,diis    10   -193.1093130380 -1.65D-09  1.68D-07  1.44D-09    61.3


         Total DFT energy =     -193.109313037963
      One electron energy =     -505.681026799583
           Coulomb energy =      216.060248290689
    Exchange-Corr. energy =      -27.020544527050
 Nuclear repulsion energy =      123.532009997981

 Numeric. integr. density =       31.999999936918

     Total iterative time =     60.7s


 
                       DFT Final Molecular Orbital Analysis
                       ------------------------------------
 
 Vector    1  Occ=2.000000D+00  E=-1.877971D+01
              MO Center= -8.8D-01, -1.8D-01,  2.1D-01, r^2= 1.5D-02
   Bfn.  Coefficient  Atom+Function         Bfn.  Coefficient  Atom+Function  
  ----- ------------  ---------------      ----- ------------  ---------------
     2      0.638477   1 O  s                 1      0.435422   1 O  s         
     3      0.039884   1 O  s                 4     -0.033228   1 O  s         
 
 Vector    2  Occ=2.000000D+00  E=-9.963244D+00
              MO Center=  5.7D-01, -1.6D-01,  1.2D-01, r^2= 2.8D-02
   Bfn.  Coefficient  Atom+Function         Bfn.  Coefficient  Atom+Function  
  ----- ------------  ---------------      ----- ------------  ---------------
    33      0.606914   2 C  s                32      0.467263   2 C  s         
    34      0.042508   2 C  s                36      0.037459   2 C  s         
    35     -0.027312   2 C  s         
 
 Vector    3  Occ=2.000000D+00  E=-9.955640D+00
              MO Center= -1.9D-01,  1.1D+00,  3.4D-01, r^2= 2.8D-02
   Bfn.  Coefficient  Atom+Function         Bfn.  Coefficient  Atom+Function  
  ----- ------------  ---------------      ----- ------------  ---------------
    64      0.607027   3 C  s                63      0.467224   3 C  s         
    65      0.039713   3 C  s         
 
 Vector    4  Occ=2.000000D+00  E=-9.908031D+00
              MO Center=  1.2D+00, -5.2D-01, -1.2D+00, r^2= 2.8D-02
   Bfn.  Coefficient  Atom+Function         Bfn.  Coefficient  Atom+Function  
  ----- ------------  ---------------      ----- ------------  ---------------
    95      0.606962   4 C  s                94      0.467215   4 C  s         
    96      0.040595   4 C  s                98      0.035696   4 C  s         
 
 Vector    5  Occ=2.000000D+00  E=-9.624865D-01
              MO Center= -4.7D-01,  5.6D-02,  2.1D-01, r^2= 6.5D-01
   Bfn.  Coefficient  Atom+Function         Bfn.  Coefficient  Atom+Function  
  ----- ------------  ---------------      ----- ------------  ---------------
     4      0.375246   1 O  s                 3      0.277440   1 O  s         
     2     -0.192793   1 O  s                34      0.139793   2 C  s         
    65      0.139140   3 C  s                 5      0.122754   1 O  s         
    35      0.105089   2 C  s                 6      0.093174   1 O  px        
    66      0.093596   3 C  s                69     -0.091434   3 C  py        
 
 Vector    6  Occ=2.000000D+00  E=-6.697415D-01
              MO Center=  9.4D-01, -3.9D-01, -7.7D-01, r^2= 1.5D+00
   Bfn.  Coefficient  Atom+Function         Bfn.  Coefficient  Atom+Function  
  ----- ------------  ---------------      ----- ------------  ---------------
    97      0.285281   4 C  s                96      0.276341   4 C  s         
    35      0.185181   2 C  s                34      0.174447   2 C  s         
    95     -0.173997   4 C  s                 4     -0.147495   1 O  s         
    33     -0.108995   2 C  s                 3     -0.103122   1 O  s         
    94     -0.083369   4 C  s                 5     -0.073101   1 O  s         
 
 Vector    7  Occ=2.000000D+00  E=-5.898100D-01
              MO Center= -1.3D-01,  7.2D-01,  2.2D-01, r^2= 2.0D+00
   Bfn.  Coefficient  Atom+Function         Bfn.  Coefficient  Atom+Function  
  ----- ------------  ---------------      ----- ------------  ---------------
    66      0.326129   3 C  s                65      0.278279   3 C  s         
     4     -0.238290   1 O  s                64     -0.171982   3 C  s         
     3     -0.168324   1 O  s                 5     -0.147965   1 O  s         
     2      0.111134   1 O  s                38      0.104926   2 C  py        
   132      0.102800   6 H  s                97     -0.099153   4 C  s         
 
 Vector    8  Occ=2.000000D+00  E=-5.299265D-01
              MO Center=  4.1D-01,  1.5D-02, -9.7D-02, r^2= 2.7D+00
   Bfn.  Coefficient  Atom+Function         Bfn.  Coefficient  Atom+Function  
  ----- ------------  ---------------      ----- ------------  ---------------
    35      0.303124   2 C  s                34      0.225091   2 C  s         
    97     -0.155068   4 C  s                66     -0.152454   3 C  s         
    33     -0.138435   2 C  s               126      0.132888   5 H  s         
    96     -0.128755   4 C  s                 6      0.107040   1 O  px        
   125      0.106231   5 H  s                65     -0.099022   3 C  s         
 
 Vector    9  Occ=2.000000D+00  E=-4.477294D-01
              MO Center=  1.2D-01,  2.8D-01,  2.5D-01, r^2= 2.5D+00
   Bfn.  Coefficient  Atom+Function         Bfn.  Coefficient  Atom+Function  
  ----- ------------  ---------------      ----- ------------  ---------------
    70      0.209818   3 C  pz               39      0.155414   2 C  pz        
   132      0.145056   6 H  s                73      0.131869   3 C  pz        
     8      0.127153   1 O  pz              126      0.115763   5 H  s         
     6     -0.110670   1 O  px              131      0.107615   6 H  s         
    38     -0.106558   2 C  py               37      0.104833   2 C  px        
 
 Vector   10  Occ=2.000000D+00  E=-4.136070D-01
              MO Center=  4.7D-02,  2.8D-01, -2.4D-01, r^2= 2.6D+00
   Bfn.  Coefficient  Atom+Function         Bfn.  Coefficient  Atom+Function  
  ----- ------------  ---------------      ----- ------------  ---------------
    69      0.215272   3 C  py              101      0.155054   4 C  pz        
   138      0.153996   7 H  s                 6     -0.142957   1 O  px        
    38     -0.139647   2 C  py               37      0.128795   2 C  px        
     7     -0.122598   1 O  py               72      0.121368   3 C  py        
    70     -0.116954   3 C  pz                9     -0.114264   1 O  px        
 
 Vector   11  Occ=2.000000D+00  E=-3.768430D-01
              MO Center=  9.0D-01, -3.3D-01, -7.4D-01, r^2= 2.7D+00
   Bfn.  Coefficient  Atom+Function         Bfn.  Coefficient  Atom+Function  
  ----- ------------  ---------------      ----- ------------  ---------------
    99      0.210062   4 C  px              144      0.184537   8 H  s         
   100      0.165113   4 C  py              150     -0.143431   9 H  s         
   102      0.134666   4 C  px              143      0.129108   8 H  s         
    37      0.127863   2 C  px                6     -0.118068   1 O  px        
     7      0.115530   1 O  py              103      0.109142   4 C  py        
 
 Vector   12  Occ=2.000000D+00  E=-3.559368D-01
              MO Center=  6.0D-01, -3.4D-01, -8.9D-01, r^2= 2.8D+00
   Bfn.  Coefficient  Atom+Function         Bfn.  Coefficient  Atom+Function  
  ----- ------------  ---------------      ----- ------------  ---------------
   100      0.256192   4 C  py              150     -0.184052   9 H  s         
   156      0.178968  10 H  s                 7     -0.167418   1 O  py        
   103      0.166067   4 C  py               10     -0.133958   1 O  py        
   149     -0.128259   9 H  s               155      0.126523  10 H  s         
    70      0.116038   3 C  pz              106      0.104055   4 C  py        
 
 Vector   13  Occ=2.000000D+00  E=-3.291125D-01
              MO Center=  3.3D-01,  2.5D-01, -2.2D-01, r^2= 2.8D+00
   Bfn.  Coefficient  Atom+Function         Bfn.  Coefficient  Atom+Function  
  ----- ------------  ---------------      ----- ------------  ---------------
    39      0.216764   2 C  pz              101     -0.193711   4 C  pz        
    70     -0.171438   3 C  pz                7     -0.168595   1 O  py        
   138      0.162446   7 H  s                42      0.147284   2 C  pz        
    10     -0.135994   1 O  py              104     -0.135683   4 C  pz        
    99      0.130784   4 C  px              137      0.109305   7 H  s         
 
 Vector   14  Occ=2.000000D+00  E=-3.211783D-01
              MO Center=  4.1D-01, -5.7D-02, -2.3D-01, r^2= 3.0D+00
   Bfn.  Coefficient  Atom+Function         Bfn.  Coefficient  Atom+Function  
  ----- ------------  ---------------      ----- ------------  ---------------
     7      0.203930   1 O  py               10      0.167209   1 O  py        
   126      0.162502   5 H  s                99     -0.157784   4 C  px        
   156      0.150838  10 H  s                 6     -0.147985   1 O  px        
   144     -0.133872   8 H  s                37      0.132835   2 C  px        
    39      0.131186   2 C  pz                9     -0.121279   1 O  px        
 
 Vector   15  Occ=2.000000D+00  E=-2.634552D-01
              MO Center=  1.4D-02,  1.5D-01,  3.4D-02, r^2= 2.3D+00
   Bfn.  Coefficient  Atom+Function         Bfn.  Coefficient  Atom+Function  
  ----- ------------  ---------------      ----- ------------  ---------------
    68      0.264347   3 C  px               38      0.256578   2 C  py        
     6     -0.237059   1 O  px               41      0.199948   2 C  py        
    71      0.196490   3 C  px                9     -0.185427   1 O  px        
    12     -0.156827   1 O  px              150      0.114880   9 H  s         
   100     -0.110952   4 C  py               67      0.107750   3 C  s         
 
 Vector   16  Occ=2.000000D+00  E=-2.196584D-01
              MO Center= -5.8D-01, -2.6D-02,  2.0D-01, r^2= 1.6D+00
   Bfn.  Coefficient  Atom+Function         Bfn.  Coefficient  Atom+Function  
  ----- ------------  ---------------      ----- ------------  ---------------
     8      0.449007   1 O  pz               11      0.357617   1 O  pz        
    14      0.296375   1 O  pz              133     -0.131170   6 H  s         
   139      0.116947   7 H  s               132     -0.104029   6 H  s         
   138      0.103862   7 H  s               145     -0.102687   8 H  s         
   126     -0.096879   5 H  s                98      0.085060   4 C  s         
 
 Vector   17  Occ=0.000000D+00  E= 2.571654D-02
              MO Center=  1.2D+00, -9.7D-02, -6.1D-01, r^2= 7.2D+00
   Bfn.  Coefficient  Atom+Function         Bfn.  Coefficient  Atom+Function  
  ----- ------------  ---------------      ----- ------------  ---------------
    98      4.484849   4 C  s               145     -1.528440   8 H  s         
   151     -1.498221   9 H  s               157     -1.351852  10 H  s         
   127     -1.241250   5 H  s                45      1.131718   2 C  pz        
   139     -0.875212   7 H  s                67      0.708489   3 C  s         
   133     -0.608302   6 H  s                75      0.324636   3 C  py        
 
 Vector   18  Occ=0.000000D+00  E= 4.276104D-02
              MO Center= -1.3D-01,  6.6D-01,  1.0D-01, r^2= 4.5D+00
   Bfn.  Coefficient  Atom+Function         Bfn.  Coefficient  Atom+Function  
  ----- ------------  ---------------      ----- ------------  ---------------
    98     -2.127874   4 C  s                36      1.947066   2 C  s         
     5     -1.269688   1 O  s                74     -0.939076   3 C  px        
   151      0.809193   9 H  s                45     -0.491938   2 C  pz        
    13     -0.438822   1 O  py               44      0.403357   2 C  py        
   157      0.404298  10 H  s                67     -0.383704   3 C  s         
 
 Vector   19  Occ=0.000000D+00  E= 5.007964D-02
              MO Center=  4.0D-01,  4.5D-01, -1.3D-01, r^2= 6.6D+00
   Bfn.  Coefficient  Atom+Function         Bfn.  Coefficient  Atom+Function  
  ----- ------------  ---------------      ----- ------------  ---------------
    36      2.776118   2 C  s                67     -2.609689   3 C  s         
   127     -1.841427   5 H  s               139      1.619540   7 H  s         
   157      0.897192  10 H  s                98     -0.659973   4 C  s         
    76      0.551118   3 C  pz               45      0.519863   2 C  pz        
     5      0.465704   1 O  s                43      0.452600   2 C  px        
 
 Vector   20  Occ=0.000000D+00  E= 5.100185D-02
              MO Center=  5.6D-01,  6.0D-01,  4.4D-01, r^2= 7.6D+00
   Bfn.  Coefficient  Atom+Function         Bfn.  Coefficient  Atom+Function  
  ----- ------------  ---------------      ----- ------------  ---------------
    98      3.357357   4 C  s                67     -2.807918   3 C  s         
   133      1.871203   6 H  s               145     -1.169046   8 H  s         
    44      1.101811   2 C  py              127      1.081670   5 H  s         
   157     -1.064754  10 H  s                36     -0.748155   2 C  s         
   151     -0.708467   9 H  s                43     -0.621632   2 C  px        
 
 Vector   21  Occ=0.000000D+00  E= 6.432192D-02
              MO Center=  2.7D-01,  1.0D-01, -1.9D-01, r^2= 4.8D+00
   Bfn.  Coefficient  Atom+Function         Bfn.  Coefficient  Atom+Function  
  ----- ------------  ---------------      ----- ------------  ---------------
   139      1.232928   7 H  s                98      1.209707   4 C  s         
   151     -0.984867   9 H  s                67     -0.962481   3 C  s         
     5     -0.894200   1 O  s                43     -0.846835   2 C  px        
    75     -0.577584   3 C  py              133      0.563321   6 H  s         
    12     -0.484399   1 O  px               35      0.378068   2 C  s         
 
 Vector   22  Occ=0.000000D+00  E= 8.618822D-02
              MO Center=  1.3D+00,  1.5D-01, -5.2D-01, r^2= 7.0D+00
   Bfn.  Coefficient  Atom+Function         Bfn.  Coefficient  Atom+Function  
  ----- ------------  ---------------      ----- ------------  ---------------
    36      2.825203   2 C  s               145      2.065481   8 H  s         
    67     -1.370980   3 C  s               127     -1.314447   5 H  s         
   157     -1.287829  10 H  s               133      1.146103   6 H  s         
   107     -1.105249   4 C  pz              105     -1.038127   4 C  px        
    98     -0.948613   4 C  s                75      0.748090   3 C  py        
 
 Vector   23  Occ=0.000000D+00  E= 9.139381D-02
              MO Center=  1.1D+00, -5.9D-01, -4.9D-01, r^2= 6.8D+00
   Bfn.  Coefficient  Atom+Function         Bfn.  Coefficient  Atom+Function  
  ----- ------------  ---------------      ----- ------------  ---------------
    36      2.608587   2 C  s               151      2.021178   9 H  s         
   145     -1.499602   8 H  s                98     -1.344776   4 C  s         
   105      1.119933   4 C  px              106      1.087208   4 C  py        
   133      1.029055   6 H  s                67     -0.949754   3 C  s         
   127     -0.841003   5 H  s               107     -0.707944   4 C  pz        
 
 Vector   24  Occ=0.000000D+00  E= 1.027267D-01
              MO Center=  4.4D-01,  4.0D-01, -1.1D+00, r^2= 6.7D+00
   Bfn.  Coefficient  Atom+Function         Bfn.  Coefficient  Atom+Function  
  ----- ------------  ---------------      ----- ------------  ---------------
   157      2.048701  10 H  s               133      1.558630   6 H  s         
   106     -1.512319   4 C  py               98     -1.478523   4 C  s         
   139     -1.481621   7 H  s               151     -1.433796   9 H  s         
    36      1.289239   2 C  s                76     -1.130628   3 C  pz        
   105      0.965562   4 C  px               45     -0.561850   2 C  pz        
 
 Vector   25  Occ=0.000000D+00  E= 1.388976D-01
              MO Center=  7.9D-01,  2.0D-01, -4.3D-01, r^2= 7.9D+00
   Bfn.  Coefficient  Atom+Function         Bfn.  Coefficient  Atom+Function  
  ----- ------------  ---------------      ----- ------------  ---------------
    36      4.708596   2 C  s                98     -3.560196   4 C  s         
    45     -3.420150   2 C  pz               67     -2.812520   3 C  s         
   127      2.736797   5 H  s                76      2.175995   3 C  pz        
   105      2.087118   4 C  px              133     -1.800199   6 H  s         
   139      1.692659   7 H  s               107     -1.560290   4 C  pz        
 
 Vector   26  Occ=0.000000D+00  E= 1.705371D-01
              MO Center=  4.5D-01,  5.2D-01, -1.2D-01, r^2= 7.3D+00
   Bfn.  Coefficient  Atom+Function         Bfn.  Coefficient  Atom+Function  
  ----- ------------  ---------------      ----- ------------  ---------------
    75      2.282276   3 C  py              107      1.623641   4 C  pz        
    67     -1.460048   3 C  s                36      1.411101   2 C  s         
   139     -1.201590   7 H  s               157      1.052723  10 H  s         
    74     -0.966103   3 C  px               44      0.679323   2 C  py        
    43     -0.564904   2 C  px              106     -0.564691   4 C  py        
 
 Vector   27  Occ=0.000000D+00  E= 1.973821D-01
              MO Center=  8.6D-01, -5.4D-02, -1.0D+00, r^2= 5.1D+00
   Bfn.  Coefficient  Atom+Function         Bfn.  Coefficient  Atom+Function  
  ----- ------------  ---------------      ----- ------------  ---------------
    67      2.958316   3 C  s                44     -2.526094   2 C  py        
   106      2.033488   4 C  py               36     -1.412413   2 C  s         
    43      0.900556   2 C  px               74      0.708184   3 C  px        
   105      0.690998   4 C  px               45     -0.659178   2 C  pz        
   150      0.660633   9 H  s               157     -0.659322  10 H  s         
 
 Vector   28  Occ=0.000000D+00  E= 2.022307D-01
              MO Center=  9.0D-01, -4.4D-01, -7.1D-01, r^2= 6.7D+00
   Bfn.  Coefficient  Atom+Function         Bfn.  Coefficient  Atom+Function  
  ----- ------------  ---------------      ----- ------------  ---------------
    36      2.644430   2 C  s                75      1.730607   3 C  py        
   105     -1.460258   4 C  px              133     -1.227047   6 H  s         
   107     -0.829715   4 C  pz               45      0.820117   2 C  pz        
   139     -0.794843   7 H  s               106      0.741618   4 C  py        
   156     -0.713640  10 H  s                76      0.659152   3 C  pz        
 
 Vector   29  Occ=0.000000D+00  E= 2.367632D-01
              MO Center= -3.1D-01,  4.0D-01, -3.8D-02, r^2= 5.4D+00
   Bfn.  Coefficient  Atom+Function         Bfn.  Coefficient  Atom+Function  
  ----- ------------  ---------------      ----- ------------  ---------------
    67      4.563016   3 C  s                36     -3.157293   2 C  s         
   139     -1.491649   7 H  s                66     -1.446284   3 C  s         
    98      1.280486   4 C  s               133     -1.229880   6 H  s         
   107      0.998297   4 C  pz               74     -0.794147   3 C  px        
     5     -0.772417   1 O  s               106      0.707187   4 C  py        
 
 Vector   30  Occ=0.000000D+00  E= 2.473705D-01
              MO Center=  5.6D-01, -2.6D-03, -1.1D-01, r^2= 5.8D+00
   Bfn.  Coefficient  Atom+Function         Bfn.  Coefficient  Atom+Function  
  ----- ------------  ---------------      ----- ------------  ---------------
    67      6.018338   3 C  s                43      4.218309   2 C  px        
    75     -3.005318   3 C  py               44     -2.697837   2 C  py        
    36     -2.184447   2 C  s               107     -2.094892   4 C  pz        
   157     -1.883757  10 H  s                45     -1.479038   2 C  pz        
    98     -1.343720   4 C  s               105     -1.215618   4 C  px        
 
 Vector   31  Occ=0.000000D+00  E= 2.685365D-01
              MO Center=  2.9D-01, -1.3D-01,  2.5D-01, r^2= 5.6D+00
   Bfn.  Coefficient  Atom+Function         Bfn.  Coefficient  Atom+Function  
  ----- ------------  ---------------      ----- ------------  ---------------
    36      4.325505   2 C  s                 5     -2.213643   1 O  s         
    67      2.185635   3 C  s                43     -1.536750   2 C  px        
   105      1.470873   4 C  px               66     -1.170076   3 C  s         
    98     -1.120098   4 C  s               139     -0.932110   7 H  s         
   133     -0.892915   6 H  s               106     -0.859407   4 C  py        
 
 Vector   32  Occ=0.000000D+00  E= 2.777169D-01
              MO Center=  4.0D-01,  3.1D-01,  3.0D-01, r^2= 4.2D+00
   Bfn.  Coefficient  Atom+Function         Bfn.  Coefficient  Atom+Function  
  ----- ------------  ---------------      ----- ------------  ---------------
    36      2.549508   2 C  s                 5     -1.743845   1 O  s         
    67     -1.610472   3 C  s                43     -1.271007   2 C  px        
    74     -0.718505   3 C  px               98     -0.691442   4 C  s         
    45     -0.645930   2 C  pz              145      0.563136   8 H  s         
     4      0.493036   1 O  s                66      0.388730   3 C  s         
 
 Vector   33  Occ=0.000000D+00  E= 3.007213D-01
              MO Center=  4.5D-01,  3.8D-01, -3.8D-01, r^2= 5.0D+00
   Bfn.  Coefficient  Atom+Function         Bfn.  Coefficient  Atom+Function  
  ----- ------------  ---------------      ----- ------------  ---------------
    98     -1.862781   4 C  s                43      1.842777   2 C  px        
   106      1.736836   4 C  py              151      1.687529   9 H  s         
    76      1.396104   3 C  pz               44     -1.200025   2 C  py        
    66      1.075657   3 C  s                36     -1.042343   2 C  s         
   139      1.030454   7 H  s               107     -1.024070   4 C  pz        
 
 Vector   34  Occ=0.000000D+00  E= 3.370900D-01
              MO Center=  1.2D-01,  4.2D-01, -4.2D-01, r^2= 5.8D+00
   Bfn.  Coefficient  Atom+Function         Bfn.  Coefficient  Atom+Function  
  ----- ------------  ---------------      ----- ------------  ---------------
    67      4.559527   3 C  s                76     -3.962537   3 C  pz        
   139     -3.155098   7 H  s                36     -2.479344   2 C  s         
   133      2.006940   6 H  s               157     -1.823421  10 H  s         
    98      1.787625   4 C  s               107     -1.765590   4 C  pz        
    43      1.374246   2 C  px               44     -1.145772   2 C  py        
 
 Vector   35  Occ=0.000000D+00  E= 3.628592D-01
              MO Center=  7.7D-01, -1.3D-02, -3.3D-01, r^2= 6.8D+00
   Bfn.  Coefficient  Atom+Function         Bfn.  Coefficient  Atom+Function  
  ----- ------------  ---------------      ----- ------------  ---------------
    98      7.681493   4 C  s                76      3.305540   3 C  pz        
   145     -3.249170   8 H  s                97     -3.113569   4 C  s         
   133     -2.358161   6 H  s               151     -1.891733   9 H  s         
   139      1.663138   7 H  s                45     -1.513251   2 C  pz        
    44      1.479644   2 C  py              157     -1.341501  10 H  s         
 
 Vector   36  Occ=0.000000D+00  E= 3.720760D-01
              MO Center=  5.6D-01,  2.4D-01, -6.6D-02, r^2= 6.4D+00
   Bfn.  Coefficient  Atom+Function         Bfn.  Coefficient  Atom+Function  
  ----- ------------  ---------------      ----- ------------  ---------------
    36     12.835841   2 C  s                98     -8.863983   4 C  s         
    67     -8.350137   3 C  s               127     -3.103976   5 H  s         
    97      2.449363   4 C  s               157      2.308776  10 H  s         
    44      1.970192   2 C  py               35     -1.865511   2 C  s         
   151      1.657209   9 H  s                74     -1.604817   3 C  px        
 
 Vector   37  Occ=0.000000D+00  E= 3.849089D-01
              MO Center=  8.9D-01, -3.5D-01, -1.1D-01, r^2= 6.1D+00
   Bfn.  Coefficient  Atom+Function         Bfn.  Coefficient  Atom+Function  
  ----- ------------  ---------------      ----- ------------  ---------------
    36      6.023756   2 C  s               127     -4.125867   5 H  s         
    98      3.995429   4 C  s                45      2.891565   2 C  pz        
    67     -2.385134   3 C  s                35     -2.242286   2 C  s         
   151     -2.212410   9 H  s                76     -2.017947   3 C  pz        
   145     -2.019296   8 H  s               133      1.656395   6 H  s         
 
 Vector   38  Occ=0.000000D+00  E= 3.945950D-01
              MO Center=  1.9D-01,  1.6D-01, -1.2D-01, r^2= 6.5D+00
   Bfn.  Coefficient  Atom+Function         Bfn.  Coefficient  Atom+Function  
  ----- ------------  ---------------      ----- ------------  ---------------
    98     12.436612   4 C  s                67     -5.902267   3 C  s         
    45      5.470340   2 C  pz               76     -3.077641   3 C  pz        
   157     -2.702739  10 H  s               133      2.558693   6 H  s         
    44      2.351674   2 C  py               36     -2.135278   2 C  s         
    43     -1.913670   2 C  px               75      1.820145   3 C  py        
 
 Vector   39  Occ=0.000000D+00  E= 4.016618D-01
              MO Center= -2.0D-01,  2.1D-01,  2.1D-01, r^2= 6.5D+00
   Bfn.  Coefficient  Atom+Function         Bfn.  Coefficient  Atom+Function  
  ----- ------------  ---------------      ----- ------------  ---------------
    67    -12.497605   3 C  s                36     12.073258   2 C  s         
    45     -5.099454   2 C  pz               98     -4.650836   4 C  s         
    44      4.036641   2 C  py              127      2.939830   5 H  s         
    66      2.694104   3 C  s                43     -2.594801   2 C  px        
   139      2.405291   7 H  s               105      2.382957   4 C  px        
 
 Vector   40  Occ=0.000000D+00  E= 4.151534D-01
              MO Center=  7.7D-01, -3.8D-01, -8.2D-01, r^2= 5.9D+00
   Bfn.  Coefficient  Atom+Function         Bfn.  Coefficient  Atom+Function  
  ----- ------------  ---------------      ----- ------------  ---------------
    98      6.928995   4 C  s                36     -3.039685   2 C  s         
    45      2.899238   2 C  pz              105     -2.488148   4 C  px        
   151     -2.450171   9 H  s               157     -1.987371  10 H  s         
   145      1.730477   8 H  s                97     -1.188760   4 C  s         
   127     -0.994217   5 H  s               144     -0.953088   8 H  s         
 
 Vector   41  Occ=0.000000D+00  E= 4.269365D-01
              MO Center=  4.6D-01,  2.0D-01, -1.7D-01, r^2= 6.8D+00
   Bfn.  Coefficient  Atom+Function         Bfn.  Coefficient  Atom+Function  
  ----- ------------  ---------------      ----- ------------  ---------------
    36      9.204430   2 C  s                67     -4.676273   3 C  s         
    98     -3.964612   4 C  s                44      2.602082   2 C  py        
    75      2.555971   3 C  py              151      2.366186   9 H  s         
    43     -1.769260   2 C  px               74     -1.453985   3 C  px        
    45     -1.441935   2 C  pz              132      1.309081   6 H  s         
 
 Vector   42  Occ=0.000000D+00  E= 4.467963D-01
              MO Center=  1.0D-01, -8.4D-02, -1.6D-01, r^2= 6.1D+00
   Bfn.  Coefficient  Atom+Function         Bfn.  Coefficient  Atom+Function  
  ----- ------------  ---------------      ----- ------------  ---------------
    36      9.755128   2 C  s                98     -9.009798   4 C  s         
    45     -5.558590   2 C  pz               67     -3.022959   3 C  s         
   127      2.905131   5 H  s                76      2.628947   3 C  pz        
    44      2.314215   2 C  py              157      2.189012  10 H  s         
   133     -2.089179   6 H  s               106     -2.075496   4 C  py        
 
 Vector   43  Occ=0.000000D+00  E= 4.597552D-01
              MO Center=  7.3D-02,  8.1D-01, -5.3D-01, r^2= 5.1D+00
   Bfn.  Coefficient  Atom+Function         Bfn.  Coefficient  Atom+Function  
  ----- ------------  ---------------      ----- ------------  ---------------
   139      3.200452   7 H  s               157     -2.427325  10 H  s         
   107     -2.230208   4 C  pz               75     -2.160450   3 C  py        
    43      1.615933   2 C  px               44     -1.623946   2 C  py        
    45     -1.580874   2 C  pz              138     -1.447492   7 H  s         
    76      1.077328   3 C  pz               74      0.825383   3 C  px        
 
 Vector   44  Occ=0.000000D+00  E= 4.693952D-01
              MO Center=  4.8D-01,  1.6D-01, -3.0D-02, r^2= 5.7D+00
   Bfn.  Coefficient  Atom+Function         Bfn.  Coefficient  Atom+Function  
  ----- ------------  ---------------      ----- ------------  ---------------
    98     -5.177842   4 C  s                36      4.874917   2 C  s         
    45     -2.304995   2 C  pz              145      1.741589   8 H  s         
   107     -1.704375   4 C  pz               67     -1.467137   3 C  s         
   133      1.464718   6 H  s                35     -1.281747   2 C  s         
   132     -1.110466   6 H  s               157     -1.055093  10 H  s         
 
 Vector   45  Occ=0.000000D+00  E= 5.073424D-01
              MO Center=  8.9D-01, -3.8D-01, -9.2D-01, r^2= 4.8D+00
   Bfn.  Coefficient  Atom+Function         Bfn.  Coefficient  Atom+Function  
  ----- ------------  ---------------      ----- ------------  ---------------
    98     11.227941   4 C  s                36     -7.241617   2 C  s         
    45      4.492195   2 C  pz              107      3.044419   4 C  pz        
   144     -1.344701   8 H  s               106      1.293628   4 C  py        
   156     -1.204332  10 H  s               127     -1.151947   5 H  s         
    14     -1.067707   1 O  pz              150     -1.058464   9 H  s         
 
 Vector   46  Occ=0.000000D+00  E= 5.367593D-01
              MO Center=  1.2D-01, -4.1D-01, -5.0D-01, r^2= 4.4D+00
   Bfn.  Coefficient  Atom+Function         Bfn.  Coefficient  Atom+Function  
  ----- ------------  ---------------      ----- ------------  ---------------
    98     -7.341763   4 C  s                36      6.825830   2 C  s         
    45     -3.703357   2 C  pz               76      3.194544   3 C  pz        
   133     -1.758956   6 H  s               105      1.518150   4 C  px        
   107     -1.489233   4 C  pz              139      1.442979   7 H  s         
     5     -1.182009   1 O  s                14     -1.133785   1 O  pz        
 
 Vector   47  Occ=0.000000D+00  E= 6.588027D-01
              MO Center= -4.0D-01,  4.1D-02, -1.7D-02, r^2= 4.3D+00
   Bfn.  Coefficient  Atom+Function         Bfn.  Coefficient  Atom+Function  
  ----- ------------  ---------------      ----- ------------  ---------------
    36     11.988945   2 C  s                67     -9.251948   3 C  s         
    98     -4.259109   4 C  s                43     -2.649771   2 C  px        
    75      2.527354   3 C  py               13      2.278506   1 O  py        
    76      2.078120   3 C  pz              105      1.594603   4 C  px        
    44      1.530958   2 C  py              139      1.525989   7 H  s         
 
 Vector   48  Occ=0.000000D+00  E= 6.743745D-01
              MO Center= -2.7D-01,  3.5D-01,  1.2D-01, r^2= 3.9D+00
   Bfn.  Coefficient  Atom+Function         Bfn.  Coefficient  Atom+Function  
  ----- ------------  ---------------      ----- ------------  ---------------
    36      7.889975   2 C  s                67     -7.657387   3 C  s         
     5      2.963770   1 O  s                75      2.502589   3 C  py        
    98     -2.190444   4 C  s                13      2.055130   1 O  py        
    45     -1.309960   2 C  pz               43     -1.224664   2 C  px        
     4     -1.100281   1 O  s                44      0.936349   2 C  py        
 
 Vector   49  Occ=0.000000D+00  E= 7.070221D-01
              MO Center=  1.6D-01, -3.1D-01, -2.6D-01, r^2= 4.5D+00
   Bfn.  Coefficient  Atom+Function         Bfn.  Coefficient  Atom+Function  
  ----- ------------  ---------------      ----- ------------  ---------------
    67      9.365425   3 C  s                36     -7.077135   2 C  s         
    43      3.592014   2 C  px               44     -3.431557   2 C  py        
    75     -2.719939   3 C  py               98     -2.707683   4 C  s         
     5      2.201006   1 O  s                12      1.675634   1 O  px        
   106      1.632419   4 C  py               13     -1.298613   1 O  py        
 
 Vector   50  Occ=0.000000D+00  E= 7.612487D-01
              MO Center=  6.5D-01, -4.2D-02, -3.6D-01, r^2= 4.0D+00
   Bfn.  Coefficient  Atom+Function         Bfn.  Coefficient  Atom+Function  
  ----- ------------  ---------------      ----- ------------  ---------------
    45      2.423821   2 C  pz              127     -1.700122   5 H  s         
   105     -1.674241   4 C  px                5     -1.475339   1 O  s         
    43      1.471860   2 C  px               36      1.395897   2 C  s         
   126     -1.362003   5 H  s               144      1.249822   8 H  s         
    66      1.043008   3 C  s                76     -0.955824   3 C  pz        
 
 Vector   51  Occ=0.000000D+00  E= 7.938583D-01
              MO Center=  2.7D-01,  7.7D-02, -1.8D-01, r^2= 4.4D+00
   Bfn.  Coefficient  Atom+Function         Bfn.  Coefficient  Atom+Function  
  ----- ------------  ---------------      ----- ------------  ---------------
     5      4.106649   1 O  s                36     -2.905218   2 C  s         
    76     -2.589459   3 C  pz               45      1.699894   2 C  pz        
     4     -1.589902   1 O  s               133      1.349467   6 H  s         
    12      1.341344   1 O  px               43      1.316410   2 C  px        
    35     -1.021177   2 C  s                66     -0.987353   3 C  s         
 
 Vector   52  Occ=0.000000D+00  E= 8.315603D-01
              MO Center=  3.2D-01,  1.6D-01, -4.0D-03, r^2= 4.4D+00
   Bfn.  Coefficient  Atom+Function         Bfn.  Coefficient  Atom+Function  
  ----- ------------  ---------------      ----- ------------  ---------------
    36      6.600830   2 C  s                 5     -3.993782   1 O  s         
    98     -4.000713   4 C  s                43     -2.581420   2 C  px        
   105      1.914532   4 C  px               35     -1.833771   2 C  s         
    45     -1.642241   2 C  pz               44      1.457078   2 C  py        
    66     -1.153352   3 C  s                97      1.078988   4 C  s         
 
 Vector   53  Occ=0.000000D+00  E= 8.566793D-01
              MO Center=  5.9D-01,  1.3D-01, -4.0D-01, r^2= 4.2D+00
   Bfn.  Coefficient  Atom+Function         Bfn.  Coefficient  Atom+Function  
  ----- ------------  ---------------      ----- ------------  ---------------
    36      4.815592   2 C  s                98     -4.730734   4 C  s         
    45     -4.557149   2 C  pz               76      1.970321   3 C  pz        
   127      1.767210   5 H  s               106     -1.610970   4 C  py        
    44      1.480064   2 C  py              105      1.359841   4 C  px        
     5     -1.256879   1 O  s               150     -1.212892   9 H  s         
 
 Vector   54  Occ=0.000000D+00  E= 8.712884D-01
              MO Center=  1.9D-01, -4.1D-02, -1.1D-01, r^2= 4.2D+00
   Bfn.  Coefficient  Atom+Function         Bfn.  Coefficient  Atom+Function  
  ----- ------------  ---------------      ----- ------------  ---------------
     5      4.558024   1 O  s                 4     -1.559816   1 O  s         
    36     -1.496348   2 C  s               138      1.404676   7 H  s         
    76      1.387401   3 C  pz               98     -1.257145   4 C  s         
    67     -1.233959   3 C  s                12      1.193410   1 O  px        
    66     -1.169345   3 C  s                44      0.847738   2 C  py        
 
 Vector   55  Occ=0.000000D+00  E= 9.201354D-01
              MO Center=  5.0D-01,  3.2D-01, -4.7D-01, r^2= 4.5D+00
   Bfn.  Coefficient  Atom+Function         Bfn.  Coefficient  Atom+Function  
  ----- ------------  ---------------      ----- ------------  ---------------
    35      4.914087   2 C  s                36     -1.732348   2 C  s         
    67      1.414590   3 C  s               132     -1.349684   6 H  s         
    72      1.281221   3 C  py               66     -1.250386   3 C  s         
    84      1.167835   3 C  d  0            156     -1.171070  10 H  s         
    41      1.141653   2 C  py              116     -1.064616   4 C  d  1      
 
 Vector   56  Occ=0.000000D+00  E= 9.610269D-01
              MO Center=  4.5D-01,  3.0D-01, -5.4D-01, r^2= 4.7D+00
   Bfn.  Coefficient  Atom+Function         Bfn.  Coefficient  Atom+Function  
  ----- ------------  ---------------      ----- ------------  ---------------
    35      4.262121   2 C  s                67      2.581902   3 C  s         
   138     -2.356306   7 H  s                76     -1.828015   3 C  pz        
    42     -1.750502   2 C  pz               83     -1.650946   3 C  d -1      
    36     -1.501464   2 C  s               115     -1.459750   4 C  d  0      
    98     -1.383300   4 C  s               132      1.363889   6 H  s         
 
 Vector   57  Occ=0.000000D+00  E= 9.914284D-01
              MO Center=  3.2D-01,  5.2D-01, -1.1D-01, r^2= 4.0D+00
   Bfn.  Coefficient  Atom+Function         Bfn.  Coefficient  Atom+Function  
  ----- ------------  ---------------      ----- ------------  ---------------
    36      7.332542   2 C  s                98     -4.872795   4 C  s         
    67     -3.809306   3 C  s                45     -3.732598   2 C  pz        
    43     -2.261286   2 C  px               44      2.086431   2 C  py        
    66     -1.558846   3 C  s               127      1.554805   5 H  s         
    75      1.406673   3 C  py               35     -1.318667   2 C  s         
 
 Vector   58  Occ=0.000000D+00  E= 1.012975D+00
              MO Center=  4.1D-01,  5.0D-01, -8.1D-02, r^2= 4.3D+00
   Bfn.  Coefficient  Atom+Function         Bfn.  Coefficient  Atom+Function  
  ----- ------------  ---------------      ----- ------------  ---------------
    36      5.752950   2 C  s                67     -4.640052   3 C  s         
    45     -2.305356   2 C  pz               44      1.922954   2 C  py        
    98     -1.902818   4 C  s               156     -1.536222  10 H  s         
    43     -1.424810   2 C  px              144      1.393305   8 H  s         
    76      1.343969   3 C  pz               74     -1.328982   3 C  px        
 
 Vector   59  Occ=0.000000D+00  E= 1.041475D+00
              MO Center=  7.0D-01, -1.7D-01, -4.7D-01, r^2= 4.2D+00
   Bfn.  Coefficient  Atom+Function         Bfn.  Coefficient  Atom+Function  
  ----- ------------  ---------------      ----- ------------  ---------------
    36      2.798061   2 C  s                35      2.671696   2 C  s         
    66     -2.267056   3 C  s               150      1.952333   9 H  s         
     5     -1.904845   1 O  s               144     -1.912427   8 H  s         
   117      1.731301   4 C  d  2             41      1.489914   2 C  py        
    67     -1.418857   3 C  s                44      1.394617   2 C  py        
 
 Vector   60  Occ=0.000000D+00  E= 1.078462D+00
              MO Center=  6.8D-01,  2.0D-02, -6.8D-02, r^2= 4.1D+00
   Bfn.  Coefficient  Atom+Function         Bfn.  Coefficient  Atom+Function  
  ----- ------------  ---------------      ----- ------------  ---------------
    66      4.072281   3 C  s                98     -4.020863   4 C  s         
    45     -3.701201   2 C  pz               97     -3.685839   4 C  s         
    36      3.266909   2 C  s                41     -2.583963   2 C  py        
   104     -2.497704   4 C  pz               72     -2.367275   3 C  py        
    42     -2.341827   2 C  pz               53      2.251764   2 C  d  0      
 
 Vector   61  Occ=0.000000D+00  E= 1.105778D+00
              MO Center=  3.6D-01,  6.8D-02,  6.1D-02, r^2= 3.8D+00
   Bfn.  Coefficient  Atom+Function         Bfn.  Coefficient  Atom+Function  
  ----- ------------  ---------------      ----- ------------  ---------------
    36      7.607738   2 C  s                67     -5.329386   3 C  s         
    98     -2.973157   4 C  s                66      2.152796   3 C  s         
   126     -1.989767   5 H  s                45     -1.946427   2 C  pz        
   132      1.674875   6 H  s                72     -1.593329   3 C  py        
    41     -1.475536   2 C  py               53      1.440971   2 C  d  0      
 
 Vector   62  Occ=0.000000D+00  E= 1.147026D+00
              MO Center=  6.2D-01,  1.2D-02, -3.2D-02, r^2= 3.6D+00
   Bfn.  Coefficient  Atom+Function         Bfn.  Coefficient  Atom+Function  
  ----- ------------  ---------------      ----- ------------  ---------------
    67      5.164400   3 C  s                36     -3.896778   2 C  s         
    44     -2.416612   2 C  py               97     -1.864156   4 C  s         
   126      1.843592   5 H  s                54      1.604605   2 C  d  1      
    43      1.585404   2 C  px               42     -1.466653   2 C  pz        
    55      1.464022   2 C  d  2             75     -1.438542   3 C  py        
 
 Vector   63  Occ=0.000000D+00  E= 1.215319D+00
              MO Center=  5.6D-01,  2.1D-01, -1.4D-01, r^2= 3.8D+00
   Bfn.  Coefficient  Atom+Function         Bfn.  Coefficient  Atom+Function  
  ----- ------------  ---------------      ----- ------------  ---------------
    36      6.844454   2 C  s                66     -5.046384   3 C  s         
    97     -3.357515   4 C  s                67     -3.338039   3 C  s         
    35      3.152640   2 C  s                72      1.921034   3 C  py        
    51     -1.773223   2 C  d -2             52      1.679878   2 C  d -1      
   138      1.661274   7 H  s                41      1.497721   2 C  py        
 
 Vector   64  Occ=0.000000D+00  E= 1.348652D+00
              MO Center=  3.4D-01,  5.5D-01,  2.3D-01, r^2= 3.6D+00
   Bfn.  Coefficient  Atom+Function         Bfn.  Coefficient  Atom+Function  
  ----- ------------  ---------------      ----- ------------  ---------------
    66      4.674107   3 C  s                35      3.938738   2 C  s         
    67     -3.062879   3 C  s                36     -2.776395   2 C  s         
    65     -2.406867   3 C  s               132     -2.080254   6 H  s         
   133      1.458792   6 H  s                34     -1.441579   2 C  s         
    72      1.378425   3 C  py              139      1.056221   7 H  s         
 
 Vector   65  Occ=0.000000D+00  E= 1.415489D+00
              MO Center=  1.5D-01,  5.1D-01, -4.3D-02, r^2= 3.4D+00
   Bfn.  Coefficient  Atom+Function         Bfn.  Coefficient  Atom+Function  
  ----- ------------  ---------------      ----- ------------  ---------------
    36      4.195512   2 C  s                66      3.747809   3 C  s         
    67     -3.757770   3 C  s                35     -3.693924   2 C  s         
    73     -2.327533   3 C  pz              138     -2.233193   7 H  s         
   139      2.200414   7 H  s               126      1.793559   5 H  s         
    76      1.693631   3 C  pz               65     -1.530975   3 C  s         
 
 Vector   66  Occ=0.000000D+00  E= 1.432840D+00
              MO Center=  1.1D+00, -4.7D-01, -1.1D+00, r^2= 3.5D+00
   Bfn.  Coefficient  Atom+Function         Bfn.  Coefficient  Atom+Function  
  ----- ------------  ---------------      ----- ------------  ---------------
    98     10.002294   4 C  s                97     -7.552911   4 C  s         
    96      3.051792   4 C  s               145     -2.400388   8 H  s         
    36     -2.341203   2 C  s               151     -2.305326   9 H  s         
   157     -2.084071  10 H  s               144      1.707107   8 H  s         
   150      1.649454   9 H  s               104      1.471593   4 C  pz        
 
 Vector   67  Occ=0.000000D+00  E= 1.444347D+00
              MO Center=  3.6D-01, -9.7D-03, -4.8D-02, r^2= 4.2D+00
   Bfn.  Coefficient  Atom+Function         Bfn.  Coefficient  Atom+Function  
  ----- ------------  ---------------      ----- ------------  ---------------
    66      4.303990   3 C  s                98      3.761833   4 C  s         
    35     -3.397818   2 C  s                67     -2.844716   3 C  s         
    45      2.191496   2 C  pz              133      2.019748   6 H  s         
    76     -1.878403   3 C  pz              127     -1.813337   5 H  s         
    97     -1.749769   4 C  s                36      1.584409   2 C  s         
 
 Vector   68  Occ=0.000000D+00  E= 1.446228D+00
              MO Center=  3.6D-01,  5.9D-04, -2.3D-01, r^2= 3.1D+00
   Bfn.  Coefficient  Atom+Function         Bfn.  Coefficient  Atom+Function  
  ----- ------------  ---------------      ----- ------------  ---------------
    98      4.612065   4 C  s                36     -2.900101   2 C  s         
    97     -2.641538   4 C  s                 5      2.112400   1 O  s         
    45      1.652392   2 C  pz               67      1.197633   3 C  s         
    96      1.109743   4 C  s                44     -1.030147   2 C  py        
   127     -1.017490   5 H  s                66     -0.992201   3 C  s         
 
 Vector   69  Occ=0.000000D+00  E= 1.473358D+00
              MO Center=  9.3D-01, -2.7D-01, -9.6D-01, r^2= 3.5D+00
   Bfn.  Coefficient  Atom+Function         Bfn.  Coefficient  Atom+Function  
  ----- ------------  ---------------      ----- ------------  ---------------
    66      2.237040   3 C  s                36      1.362127   2 C  s         
    67     -1.362058   3 C  s                 5     -1.199746   1 O  s         
    97      0.990572   4 C  s                98     -0.984672   4 C  s         
    65     -0.939726   3 C  s               133      0.920897   6 H  s         
    71     -0.911994   3 C  px              103      0.895500   4 C  py        
 
 Vector   70  Occ=0.000000D+00  E= 1.478245D+00
              MO Center=  9.6D-01, -3.9D-01, -1.0D+00, r^2= 3.3D+00
   Bfn.  Coefficient  Atom+Function         Bfn.  Coefficient  Atom+Function  
  ----- ------------  ---------------      ----- ------------  ---------------
    36      2.926664   2 C  s               156     -2.755013  10 H  s         
   157      2.133037  10 H  s               102     -1.976625   4 C  px        
   103      1.829910   4 C  py              104     -1.760777   4 C  pz        
   126      1.725195   5 H  s                66     -1.705481   3 C  s         
    35     -1.407181   2 C  s               127     -1.359952   5 H  s         
 
 Vector   71  Occ=0.000000D+00  E= 1.511911D+00
              MO Center=  3.5D-01,  1.2D-01, -3.4D-01, r^2= 4.0D+00
   Bfn.  Coefficient  Atom+Function         Bfn.  Coefficient  Atom+Function  
  ----- ------------  ---------------      ----- ------------  ---------------
    98      2.685493   4 C  s               144      1.889582   8 H  s         
   102     -1.635481   4 C  px              145     -1.433495   8 H  s         
   103     -1.343126   4 C  py               45      1.312467   2 C  pz        
    97     -1.164921   4 C  s                36     -0.997297   2 C  s         
   150     -0.972619   9 H  s                66      0.880531   3 C  s         
 
 Vector   72  Occ=0.000000D+00  E= 1.541403D+00
              MO Center=  3.3D-01,  4.9D-01, -2.0D-01, r^2= 4.6D+00
   Bfn.  Coefficient  Atom+Function         Bfn.  Coefficient  Atom+Function  
  ----- ------------  ---------------      ----- ------------  ---------------
    36      4.314544   2 C  s                35     -3.618400   2 C  s         
    98     -3.628627   4 C  s                97      3.138998   4 C  s         
    67     -2.459792   3 C  s                73      2.178915   3 C  pz        
   132     -1.765358   6 H  s               133      1.450829   6 H  s         
   138      1.398497   7 H  s               102     -1.363845   4 C  px        
 
 Vector   73  Occ=0.000000D+00  E= 1.576218D+00
              MO Center=  4.8D-01, -2.6D-03, -5.4D-02, r^2= 3.3D+00
   Bfn.  Coefficient  Atom+Function         Bfn.  Coefficient  Atom+Function  
  ----- ------------  ---------------      ----- ------------  ---------------
    35      3.260265   2 C  s                36     -2.587897   2 C  s         
    40     -2.054681   2 C  px               97     -1.891611   4 C  s         
   126      1.821910   5 H  s                67      1.693545   3 C  s         
    72      1.557418   3 C  py               42     -1.473180   2 C  pz        
    34     -1.380182   2 C  s               127     -1.316252   5 H  s         
 
 Vector   74  Occ=0.000000D+00  E= 1.598339D+00
              MO Center=  3.5D-01,  3.8D-01, -1.6D-01, r^2= 3.4D+00
   Bfn.  Coefficient  Atom+Function         Bfn.  Coefficient  Atom+Function  
  ----- ------------  ---------------      ----- ------------  ---------------
    36     -5.380678   2 C  s                66     -5.306160   3 C  s         
    35      5.217197   2 C  s                67      4.014075   3 C  s         
    41      3.728295   2 C  py               71     -2.551803   3 C  px        
    72      2.406713   3 C  py               40     -2.100478   2 C  px        
    98      1.860259   4 C  s                82      1.672810   3 C  d -2      
 
 Vector   75  Occ=0.000000D+00  E= 1.642355D+00
              MO Center=  4.7D-01,  1.8D-01, -3.7D-02, r^2= 3.7D+00
   Bfn.  Coefficient  Atom+Function         Bfn.  Coefficient  Atom+Function  
  ----- ------------  ---------------      ----- ------------  ---------------
    66      2.677793   3 C  s                35      2.245395   2 C  s         
    98      2.003849   4 C  s                 5     -1.770225   1 O  s         
    97     -1.691894   4 C  s                67     -1.383432   3 C  s         
   104     -1.181930   4 C  pz              144      1.130068   8 H  s         
   150     -1.023391   9 H  s               103     -1.008201   4 C  py        
 
 Vector   76  Occ=0.000000D+00  E= 1.694169D+00
              MO Center=  5.5D-01,  1.4D-01, -4.2D-01, r^2= 3.7D+00
   Bfn.  Coefficient  Atom+Function         Bfn.  Coefficient  Atom+Function  
  ----- ------------  ---------------      ----- ------------  ---------------
    97     -5.602669   4 C  s                35      5.264453   2 C  s         
    42     -2.858857   2 C  pz              104     -2.871331   4 C  pz        
   102      1.857879   4 C  px               40      1.597645   2 C  px        
    34     -1.558857   2 C  s                96      1.527241   4 C  s         
    66     -1.516933   3 C  s                72     -1.257883   3 C  py        
 
 Vector   77  Occ=0.000000D+00  E= 1.702500D+00
              MO Center= -4.4D-02,  2.6D-01, -6.8D-02, r^2= 3.7D+00
   Bfn.  Coefficient  Atom+Function         Bfn.  Coefficient  Atom+Function  
  ----- ------------  ---------------      ----- ------------  ---------------
     5      3.906496   1 O  s                72      3.257339   3 C  py        
    36     -2.528644   2 C  s                66     -2.050993   3 C  s         
   138     -1.884408   7 H  s                97      1.745105   4 C  s         
    12      1.507146   1 O  px               41      1.460017   2 C  py        
    42      1.461005   2 C  pz               43      1.252893   2 C  px        
 
 Vector   78  Occ=0.000000D+00  E= 1.789122D+00
              MO Center=  3.9D-01,  2.6D-01,  7.7D-03, r^2= 3.5D+00
   Bfn.  Coefficient  Atom+Function         Bfn.  Coefficient  Atom+Function  
  ----- ------------  ---------------      ----- ------------  ---------------
    35      3.088959   2 C  s                97     -2.761554   4 C  s         
    36      1.782912   2 C  s                45     -1.315903   2 C  pz        
   104     -1.162202   4 C  pz               67     -1.105146   3 C  s         
    42     -1.058811   2 C  pz               72      0.982000   3 C  py        
   102      0.968222   4 C  px              103     -0.916873   4 C  py        
 
 Vector   79  Occ=0.000000D+00  E= 1.815641D+00
              MO Center= -6.3D-01,  1.8D-01,  1.9D-01, r^2= 2.6D+00
   Bfn.  Coefficient  Atom+Function         Bfn.  Coefficient  Atom+Function  
  ----- ------------  ---------------      ----- ------------  ---------------
    35      4.031745   2 C  s                 5     -3.286703   1 O  s         
    40     -2.442203   2 C  px               41      2.119375   2 C  py        
    72      1.963511   3 C  py               66     -1.776052   3 C  s         
    71     -1.682945   3 C  px               12     -1.372825   1 O  px        
   132     -1.045142   6 H  s               138     -1.029863   7 H  s         
 
 Vector   80  Occ=0.000000D+00  E= 1.842807D+00
              MO Center=  6.9D-02,  2.6D-01, -6.9D-02, r^2= 3.7D+00
   Bfn.  Coefficient  Atom+Function         Bfn.  Coefficient  Atom+Function  
  ----- ------------  ---------------      ----- ------------  ---------------
    35      1.520604   2 C  s                36     -1.104138   2 C  s         
   156     -0.937120  10 H  s                66      0.799457   3 C  s         
    41     -0.791586   2 C  py              104     -0.789640   4 C  pz        
    71     -0.647137   3 C  px              157      0.645882  10 H  s         
   126     -0.633943   5 H  s                97     -0.625803   4 C  s         
 
 Vector   81  Occ=0.000000D+00  E= 1.866692D+00
              MO Center=  5.3D-01,  1.7D-01, -4.5D-01, r^2= 4.0D+00
   Bfn.  Coefficient  Atom+Function         Bfn.  Coefficient  Atom+Function  
  ----- ------------  ---------------      ----- ------------  ---------------
    35      6.678506   2 C  s                66     -4.347610   3 C  s         
    72      3.507257   3 C  py               97     -3.344401   4 C  s         
    36      2.133393   2 C  s               104     -1.888851   4 C  pz        
    34     -1.652198   2 C  s                67     -1.560816   3 C  s         
    41      1.528852   2 C  py               45     -1.396622   2 C  pz        
 
 Vector   82  Occ=0.000000D+00  E= 1.920070D+00
              MO Center=  3.3D-01, -1.5D-01, -3.1D-01, r^2= 3.2D+00
   Bfn.  Coefficient  Atom+Function         Bfn.  Coefficient  Atom+Function  
  ----- ------------  ---------------      ----- ------------  ---------------
    36      1.447105   2 C  s                98     -1.389749   4 C  s         
    45     -1.264817   2 C  pz              103     -1.216100   4 C  py        
    97     -1.168422   4 C  s                35      1.084015   2 C  s         
    66     -0.882997   3 C  s                41      0.786557   2 C  py        
   150     -0.767683   9 H  s                42     -0.755825   2 C  pz        
 
 Vector   83  Occ=0.000000D+00  E= 1.991357D+00
              MO Center=  8.5D-01, -2.4D-01, -3.9D-01, r^2= 3.4D+00
   Bfn.  Coefficient  Atom+Function         Bfn.  Coefficient  Atom+Function  
  ----- ------------  ---------------      ----- ------------  ---------------
    98      3.743743   4 C  s                35      3.440929   2 C  s         
    66     -2.707457   3 C  s                40     -2.243243   2 C  px        
    72      1.926594   3 C  py               36     -1.768465   2 C  s         
    41      1.737230   2 C  py               43     -1.499927   2 C  px        
    71     -1.367696   3 C  px              107      1.220138   4 C  pz        
 
 Vector   84  Occ=0.000000D+00  E= 1.995064D+00
              MO Center=  6.0D-01, -8.1D-02, -7.2D-01, r^2= 3.5D+00
   Bfn.  Coefficient  Atom+Function         Bfn.  Coefficient  Atom+Function  
  ----- ------------  ---------------      ----- ------------  ---------------
    36      4.273003   2 C  s                98     -3.682038   4 C  s         
    45     -2.048446   2 C  pz               35     -1.739473   2 C  s         
    67     -1.608929   3 C  s               156      1.102647  10 H  s         
   104      0.994082   4 C  pz              107     -0.944873   4 C  pz        
     5     -0.891409   1 O  s                34      0.734536   2 C  s         
 
 Vector   85  Occ=0.000000D+00  E= 2.089962D+00
              MO Center= -4.7D-02,  1.6D-01, -1.1D-02, r^2= 3.5D+00
   Bfn.  Coefficient  Atom+Function         Bfn.  Coefficient  Atom+Function  
  ----- ------------  ---------------      ----- ------------  ---------------
    36      2.447396   2 C  s                98     -2.241519   4 C  s         
   138     -0.737558   7 H  s               156      0.730869  10 H  s         
    14     -0.629890   1 O  pz               67     -0.613814   3 C  s         
    35     -0.579165   2 C  s               144      0.552377   8 H  s         
    40     -0.524639   2 C  px               45     -0.523589   2 C  pz        
 
 Vector   86  Occ=0.000000D+00  E= 2.096976D+00
              MO Center= -3.7D-01,  5.8D-02,  5.6D-02, r^2= 2.9D+00
   Bfn.  Coefficient  Atom+Function         Bfn.  Coefficient  Atom+Function  
  ----- ------------  ---------------      ----- ------------  ---------------
    36      5.735311   2 C  s                67     -5.578938   3 C  s         
    35     -3.263941   2 C  s                66      3.279583   3 C  s         
    41     -3.049054   2 C  py               71      2.742395   3 C  px        
    13      1.853243   1 O  py               82     -1.462194   3 C  d -2      
    43     -1.332741   2 C  px               55      1.338356   2 C  d  2      
 
 Vector   87  Occ=0.000000D+00  E= 2.165643D+00
              MO Center=  5.1D-01, -6.0D-03, -4.8D-01, r^2= 3.2D+00
   Bfn.  Coefficient  Atom+Function         Bfn.  Coefficient  Atom+Function  
  ----- ------------  ---------------      ----- ------------  ---------------
    98      2.198783   4 C  s                67     -1.922582   3 C  s         
    35     -1.400550   2 C  s                73      1.018509   3 C  pz        
   156     -0.903548  10 H  s                36      0.886604   2 C  s         
    40      0.879269   2 C  px               43     -0.830381   2 C  px        
    44      0.832728   2 C  py               42     -0.760147   2 C  pz        
 
 Vector   88  Occ=0.000000D+00  E= 2.199125D+00
              MO Center=  4.4D-01,  1.6D-01, -3.1D-01, r^2= 3.7D+00
   Bfn.  Coefficient  Atom+Function         Bfn.  Coefficient  Atom+Function  
  ----- ------------  ---------------      ----- ------------  ---------------
    98      1.971300   4 C  s                36     -1.063420   2 C  s         
    45      0.949595   2 C  pz               76     -0.882974   3 C  pz        
    42     -0.837169   2 C  pz              132      0.806883   6 H  s         
   103     -0.739937   4 C  py               97     -0.733601   4 C  s         
   117     -0.668462   4 C  d  2            138     -0.623014   7 H  s         
 
 Vector   89  Occ=0.000000D+00  E= 2.227915D+00
              MO Center=  6.1D-01,  3.6D-02, -4.9D-02, r^2= 3.5D+00
   Bfn.  Coefficient  Atom+Function         Bfn.  Coefficient  Atom+Function  
  ----- ------------  ---------------      ----- ------------  ---------------
    36      3.449240   2 C  s                67     -1.800961   3 C  s         
    98     -1.642200   4 C  s                 5     -1.137197   1 O  s         
    42     -0.977798   2 C  pz               72     -0.905911   3 C  py        
    45     -0.856459   2 C  pz               35     -0.848746   2 C  s         
    66      0.809836   3 C  s                43     -0.757366   2 C  px        
 
 Vector   90  Occ=0.000000D+00  E= 2.244214D+00
              MO Center=  7.7D-01, -2.8D-01, -8.2D-01, r^2= 3.5D+00
   Bfn.  Coefficient  Atom+Function         Bfn.  Coefficient  Atom+Function  
  ----- ------------  ---------------      ----- ------------  ---------------
   150      1.292882   9 H  s               144     -0.902440   8 H  s         
    36      0.883258   2 C  s                66     -0.779999   3 C  s         
   117      0.749389   4 C  d  2             72      0.720036   3 C  py        
    98     -0.683749   4 C  s                67     -0.612029   3 C  s         
    83      0.547281   3 C  d -1            149     -0.528152   9 H  s         
 
 Vector   91  Occ=0.000000D+00  E= 2.266287D+00
              MO Center=  9.6D-01, -2.8D-01, -1.1D+00, r^2= 2.9D+00
   Bfn.  Coefficient  Atom+Function         Bfn.  Coefficient  Atom+Function  
  ----- ------------  ---------------      ----- ------------  ---------------
    66      2.258267   3 C  s                36      1.817058   2 C  s         
    41     -1.495512   2 C  py               67     -1.339905   3 C  s         
    35     -1.171411   2 C  s                98     -1.077431   4 C  s         
   156      0.983025  10 H  s                72     -0.976561   3 C  py        
    71      0.904683   3 C  px              126     -0.857520   5 H  s         
 
 Vector   92  Occ=0.000000D+00  E= 2.284572D+00
              MO Center=  5.0D-01,  1.3D-01, -1.9D-01, r^2= 3.6D+00
   Bfn.  Coefficient  Atom+Function         Bfn.  Coefficient  Atom+Function  
  ----- ------------  ---------------      ----- ------------  ---------------
    98      3.669879   4 C  s                36     -2.398957   2 C  s         
[...]
    21     -0.871419   1 O  d -1             42     -0.807679   2 C  pz        
    97     -0.719850   4 C  s                45     -0.702316   2 C  pz        
    98     -0.523779   4 C  s                 5     -0.513470   1 O  s         
    67     -0.511994   3 C  s               102      0.497568   4 C  px        
 
 Vector  154  Occ=0.000000D+00  E= 6.676316D+00
              MO Center= -8.7D-01, -1.8D-01,  2.0D-01, r^2= 5.7D-01
   Bfn.  Coefficient  Atom+Function         Bfn.  Coefficient  Atom+Function  
  ----- ------------  ---------------      ----- ------------  ---------------
    18      1.061711   1 O  d  1             23     -1.035732   1 O  d  1      
    97     -0.851157   4 C  s                42     -0.780867   2 C  pz        
    35      0.750306   2 C  s               102      0.640417   4 C  px        
    54     -0.545581   2 C  d  1             14      0.405474   1 O  pz        
    16     -0.395383   1 O  d -1             11      0.388314   1 O  pz        
 
 Vector  155  Occ=0.000000D+00  E= 6.842082D+00
              MO Center= -8.8D-01, -1.9D-01,  2.0D-01, r^2= 5.9D-01
   Bfn.  Coefficient  Atom+Function         Bfn.  Coefficient  Atom+Function  
  ----- ------------  ---------------      ----- ------------  ---------------
     5      2.111944   1 O  s                40      1.765920   2 C  px        
     9      1.359200   1 O  px               97     -1.286553   4 C  s         
     4      1.202861   1 O  s                20      1.050797   1 O  d -2      
    42     -0.973911   2 C  pz               12      0.846480   1 O  px        
    35     -0.841035   2 C  s                15     -0.835369   1 O  d -2      
 
 Vector  156  Occ=0.000000D+00  E= 7.055684D+00
              MO Center= -8.9D-01, -1.9D-01,  2.0D-01, r^2= 6.4D-01
   Bfn.  Coefficient  Atom+Function         Bfn.  Coefficient  Atom+Function  
  ----- ------------  ---------------      ----- ------------  ---------------
    66     -3.180399   3 C  s                35      3.030439   2 C  s         
    40     -2.726865   2 C  px               72      2.695991   3 C  py        
    24     -1.582002   1 O  d  2             36      1.448100   2 C  s         
    10      1.282524   1 O  py               67     -1.287706   3 C  s         
    19      1.018824   1 O  d  2             13      0.866226   1 O  py        
 
 Vector  157  Occ=0.000000D+00  E= 2.194078D+01
              MO Center=  7.2D-02,  7.9D-01,  5.5D-02, r^2= 1.2D+00
   Bfn.  Coefficient  Atom+Function         Bfn.  Coefficient  Atom+Function  
  ----- ------------  ---------------      ----- ------------  ---------------
    64      1.585160   3 C  s                65     -1.352747   3 C  s         
    67     -1.265569   3 C  s                63     -1.249288   3 C  s         
    98      1.071435   4 C  s                95     -0.751824   4 C  s         
    96      0.615809   4 C  s                94      0.594751   4 C  s         
    40     -0.475316   2 C  px               35      0.471457   2 C  s         
 
 Vector  158  Occ=0.000000D+00  E= 2.198110D+01
              MO Center=  9.0D-01, -2.6D-01, -7.4D-01, r^2= 1.1D+00
   Bfn.  Coefficient  Atom+Function         Bfn.  Coefficient  Atom+Function  
  ----- ------------  ---------------      ----- ------------  ---------------
    95      1.438881   4 C  s                96     -1.327555   4 C  s         
    98     -1.156694   4 C  s                94     -1.132128   4 C  s         
    34     -0.943184   2 C  s                36     -0.891249   2 C  s         
    33      0.857223   2 C  s                32     -0.669697   2 C  s         
    65     -0.633724   3 C  s                64      0.587478   3 C  s         
 
 Vector  159  Occ=0.000000D+00  E= 2.210109D+01
              MO Center=  6.1D-01, -1.1D-01, -6.4D-02, r^2= 6.8D-01
   Bfn.  Coefficient  Atom+Function         Bfn.  Coefficient  Atom+Function  
  ----- ------------  ---------------      ----- ------------  ---------------
    36      2.202111   2 C  s                33     -1.549788   2 C  s         
    34      1.537672   2 C  s                35     -1.351373   2 C  s         
    98     -1.280645   4 C  s                32      1.213642   2 C  s         
    67     -1.166188   3 C  s                95      0.701375   4 C  s         
    97      0.691997   4 C  s                96     -0.632770   4 C  s         
 
 Vector  160  Occ=0.000000D+00  E= 4.341378D+01
              MO Center= -8.8D-01, -1.8D-01,  2.1D-01, r^2= 1.2D-01
   Bfn.  Coefficient  Atom+Function         Bfn.  Coefficient  Atom+Function  
  ----- ------------  ---------------      ----- ------------  ---------------
     4      2.505592   1 O  s                 3     -1.874137   1 O  s         
     2      1.731497   1 O  s                 1     -1.395836   1 O  s         
     5     -0.876464   1 O  s                36      0.825916   2 C  s         
     9      0.560962   1 O  px               66     -0.510923   3 C  s         
    40      0.464633   2 C  px               72      0.455192   3 C  py        
 

 center of mass
 --------------
 x =   0.30619343 y =   0.09486558 z =  -0.27792425

 moments of inertia (a.u.)
 ------------------
         200.079099263888          45.690434360041          83.809075368545
          45.690434360041         247.967512579067         -52.619624916099
          83.809075368545         -52.619624916099         238.913258072514
 
     Multipole analysis of the density
     ---------------------------------
 
     L   x y z        total         alpha         beta         nuclear
     -   - - -        -----         -----         ----         -------
     0   0 0 0     -0.000000    -16.000000    -16.000000     32.000000
 
     1   1 0 0      0.689200     -6.222743     -6.222743     13.134686
     1   0 1 0      0.326505     -1.619320     -1.619320      3.565144
     1   0 0 1     -0.057479      5.323082      5.323082    -10.703644
 
     2   2 0 0    -20.021662    -54.345187    -54.345187     88.668711
     2   1 1 0     -1.115744     13.911737     13.911737    -28.939218
     2   1 0 1      0.153334     26.492215     26.492215    -52.831097
     2   0 2 0    -17.839403    -40.488105    -40.488105     63.136806
     2   0 1 1      0.251509    -15.398760    -15.398760     31.049028
     2   0 0 2    -18.200011    -45.750239    -45.750239     73.300466
 
 *** CALLING NEW AORESP DRIVER FOR CLOSED AND OPEN SHELLS ***
 Entering AOResponse driver routine


--------------------------------------------------------------------------------

          ****************
          *** RESPONSE ***
          ****************

 Response module for NWChem and dynamic CPKS solver
 developed by J. Autschbach and coworkers, SUNY Buffalo
 The methodology used in this program is described in 
 ChemPhysChem 12 (2011), 3224-3235 (main reference)
 J. Chem. Phys. 123 (2005), 114103
 J. Chem. Phys. 122 (2005), 224115
 J. Chem. Phys. 122 (2005), 074105
 Comp. Lett. 3 (2007), 131-150 (contact JA for a copy)
 Please cite this work in publications based on results
 obtained with this code. Thank you!

 For extension of response module to open shell
 calculations please acknowledge:
 F. Aquino, Northwestern University, Schatz Rsrch Group
 The update to the methodology is described in
 J. Phys. Chem. A 118 (2014) 517-525



          -----------------------------------------------
          Solving response equations for perturbing field
          -----------------------------------------------

 number of frequencies:     1
 frequency in a.u.:  0.9319600E-01
 Perturbing field: electric
 Using GIAO formalism for OptRot
 Adding quadrupole terms to OptRot
 to create an origin in dependent tensor.
 Using El. Dipole Length Gauge
 
 Applying DAMPING constant of  0.003700 a.u.
 
 Setting up CPKS
 with frequency omega =      0.09319600 a.u.
 and a damping of            0.00370000 a.u.

 
                            NWChem Dynamic CPHF Module
                            --------------------------
 
 
    scftype = RHF 
    nclosed =   16
      nopen =    0
  variables =     9216
  num. vecs =        3
  tolerance =   1.0D-07
  max. iter =  100

 SCF residual:   3.684978925839020E-006


Iterative solution of linear equations
  No. of variables     4608
  No. of equations        3
  Maximum subspace       99
       Convergence  1.0D-07
        Start time     94.4


   iter   nsub   residual    time 
   ----  ------  --------  --------- 
 dft_CPHF2_read: failed to open
 ./methyloxirane_blyp-def2-tzvp_488.9_25.inp.aoresp_fiao_f1
     1      3    3.74D+00     144.2
     2      6    2.66D+00     194.2
     3      9    2.44D-01     244.1
     4     12    5.16D-02     294.2
     5     15    1.05D-02     344.0
     6     18    1.29D-03     393.8
     7     21    1.44D-04     443.6
     8     24    1.34D-05     493.3
     9     27    1.27D-06     543.0
    10     30    4.83D-07     593.4
    11     33    1.79D-08     643.3

 Calculating some arrays needed for GIAO optical rotation

    0 giaofock schwarz done =      97.11%
    0 giaofock schwarz done =      92.02%
 aor_r1_tensor_giao: roadata output requested
 dip-quad polarizability Re:

              1        2        3        4        5        6      
    1   77.6086  -6.4513 -27.4220  -4.8332   1.2566   9.1536
    2  -11.9487  25.1904   3.4086  23.6290 -21.8347   4.1220
    3   -6.4383   1.1508  39.3015  -0.3472  14.0852 -41.0268
 traceless dip-quad polarizability:

              1        2        3      
    1   75.4484  -9.6770 -41.1330
    2   -9.6770 -48.2143   1.8849
    3  -41.1330   1.8849 -27.2340

              1        2        3      
    1  -25.8242  37.7856   5.1129
    2   37.7856  27.5423 -32.7521
    3    5.1129 -32.7521  -1.7181

              1        2        3      
    1   14.2487   1.7262  58.9523
    2    1.7262  23.3854  21.1278
    3   58.9523  21.1278 -37.6341

 roa begin

 alpha real:
 XX       0.4101261157761E+02
 XY      -0.5214897762728E+01
 XZ      -0.3024712849485E+01
 YX      -0.5214897765122E+01
 YY       0.4404955224208E+02
 YZ       0.3195089068302E+01
 ZX      -0.3024712860482E+01
 ZY       0.3195089066653E+01
 ZZ       0.4148351693595E+02

 alpha im:
 XX       0.1110892958277E+00
 XY      -0.3011000584388E-01
 XZ      -0.1114231189477E-01
 YX      -0.3011000055760E-01
 YY       0.1292939376828E+00
 YZ       0.1854787708144E-01
 ZX      -0.1114230820901E-01
 ZY       0.1854787758613E-01
 ZZ       0.1227719213150E+00

 beta real:
 XX      -0.1400115388204E+00
 XY       0.9420268212688E+00
 XZ       0.2060853393255E+00
 YX      -0.8884347588118E+00
 YY       0.1489423944036E+00
 YZ      -0.1549417846478E+01
 ZX      -0.4860540313909E+00
 ZY       0.1875434030850E+01
 ZZ      -0.1205691535352E-01

 G-prime = -omega beta(real):
 XX      -0.1400115388204E+00
 XY       0.9420268212688E+00
 XZ       0.2060853393255E+00
 YX      -0.8884347588118E+00
 YY       0.1489423944036E+00
 YZ      -0.1549417846478E+01
 ZX      -0.4860540313909E+00
 ZY       0.1875434030850E+01
 ZZ      -0.1205691535352E-01

 beta im:
 XX      -0.5945786442735E-02
 XY       0.1348092724828E-01
 XZ       0.2971947077290E-02
 YX      -0.7596845450882E-02
 YY       0.4945461146185E-02
 YZ      -0.2365615987061E-01
 ZX      -0.1367420773699E-01
 ZY       0.4023166969435E-01
 ZZ       0.2956300956569E-03

 G-prime = -omega beta(imag):
 XX      -0.5945786442735E-02
 XY       0.1348092724828E-01
 XZ       0.2971947077290E-02
 YX      -0.7596845450882E-02
 YY       0.4945461146185E-02
 YZ      -0.2365615987061E-01
 ZX      -0.1367420773699E-01
 ZY       0.4023166969435E-01
 ZZ       0.2956300956569E-03

 dipole-quadrupole real (Cartesian):
 XXX      0.7760855143556E+02
 XXY     -0.6451308224177E+01
 XXZ     -0.2742198248426E+02
 XYY     -0.4833221560606E+01
 XYZ      0.1256585230479E+01
 XZZ      0.9153621200704E+01
 YXX     -0.1194869704921E+02
 YXY      0.2519039421639E+02
 YXZ      0.3408579219163E+01
 YYY      0.2362899030744E+02
 YYZ     -0.2183470296123E+02
 YZZ      0.4122021982093E+01
 ZXX     -0.6438345494048E+01
 ZXY      0.1150807509904E+01
 ZXZ      0.3930151140967E+02
 ZYY     -0.3471532421282E+00
 ZYZ      0.1408516758687E+02
 ZZZ     -0.4102684361514E+02

 dipole-quadrupole imag (Cartesian):
 XXX      0.2716769165894E+00
 XXY     -0.3599819782111E-01
 XXZ     -0.7562737030690E-01
 XYY     -0.3009170508972E-01
 XYZ      0.2782132267846E-02
 XZZ      0.6091042904333E-01
 YXX     -0.5735212365295E-01
 YXY      0.6032683826291E-01
 YXZ      0.1945382308176E-01
 YYY      0.9359985520673E-01
 YYZ     -0.6197847893591E-01
 YZZ      0.9787812478524E-02
 ZXX     -0.3285047969766E-01
 ZXY      0.2068953707717E-03
 ZXZ      0.1454936828798E+00
 ZYY      0.4295833582863E-02
 ZYZ      0.6723979019120E-01
 ZZZ     -0.9500276478391E-01

 dipole-quadrupole (traceless):
 XXX      0.7544835161552E+02
 XXY     -0.9676962336266E+01
 XXZ     -0.4113297372638E+02
 XYY     -0.4821430787874E+02
 XYZ      0.1884877845718E+01
 XZZ     -0.2723404373678E+02
 YXX     -0.2582420319397E+02
 YXY      0.3778559132459E+02
 YXZ      0.5112868828745E+01
 YYY      0.2754232784099E+02
 YYZ     -0.3275205444185E+02
 YZZ     -0.1718124647021E+01
 ZXX      0.1424865293459E+02
 ZXY      0.1726211264855E+01
 ZXZ      0.5895226711451E+02
 ZYY      0.2338544131247E+02
 ZYZ      0.2112775138030E+02
 ZZZ     -0.3763409424705E+02

 roa end


 Electric Dipole Response Matrix (nonzero elements):

              1        2        3      
    1   41.0126  -5.2149  -3.0247
    2   -5.2149  44.0496   3.1951
    3   -3.0247   3.1951  41.4835
 
 Imaginary part:

              1        2        3      
    1    0.1111  -0.0301  -0.0111
    2   -0.0301   0.1293   0.0185
    3   -0.0111   0.0185   0.1228

 ------------------------------------------
 average:        42.18189 + I       0.12105


 DFT Linear Response polarizability / au 
 Frequency  =       0.0931960 / au
 Wavelength =     488.8981609 / nm
              X              Y              Z
 -----------------------------------------------
 X      41.0126116     -5.2148978     -3.0247128
 Y      -5.2148978     44.0495522      3.1950891
 Z      -3.0247129      3.1950891     41.4835169
 -----------------------------------------------
 Eigenvalues =      37.0074651     50.1675481     39.3706675
 Isotropic   =      42.1818936
 Anisotropic =       9.9221157
 -----------------------------------------------
 *************************

 DFT Linear Response IMAG polarizability / au 
 Frequency  =       0.0931960 / au
 Wavelength =     488.8981609 / nm
              X              Y              Z
 -----------------------------------------------
 X       0.1110893     -0.0301100     -0.0111423
 Y      -0.0301100      0.1292939      0.0185479
 Z      -0.0111423      0.0185479      0.1227719
 -----------------------------------------------
 Eigenvalues =       0.0885701      0.1631492      0.1114359
 Isotropic   =       0.1210517
 Anisotropic =       0.0540344
 -----------------------------------------------
 *************************

 Magnetic Dipole Response Matrix (nonzero elements):
 Optical rotation tensor Beta
 (Buckingham-Dunn version including dipole-quadrupole terms)

              1        2        3      
    1    2.6312  -0.4135   0.3856
    2   -0.4135  -1.6511  -1.7180
    3    0.3856  -1.7180  -0.9466
 
 Imaginary part:

              1        2        3      
    1    0.0638  -0.1447  -0.0319
    2    0.0815  -0.0531   0.2538
    3    0.1467  -0.4317  -0.0032

 ------------------------------------------
 average:         0.01118 + I       0.00252

 Principal components and PAS (Real part)
                 -3.05364
                  2.76790
                  0.31929
 ------------------------
 average:         0.01118

              1        2        3      
    1    0.0137   0.9718  -0.2353
    2    0.7762  -0.1587  -0.6102
    3    0.6304   0.1743   0.7565

 Chiral response tensor (Real part):

              1        2        3      
    1   -1.2988   0.2068  -0.1928
    2    0.2068   0.8423   0.8590
    3   -0.1928   0.8590   0.4901
 
 Principal components and PAS (Real part)
                  1.54359
                 -1.36718
                 -0.14287
 ------------------------
 average:         0.01118

              1        2        3      
    1    0.0137   0.9718  -0.2353
    2    0.7762  -0.1587  -0.6102
    3    0.6304   0.1743   0.7565
 Exiting AOResponse driver routine

 Task  times  cpu:      620.6s     wall:      636.8s
 
 
                                NWChem Input Module
                                -------------------
 
 
 Summary of allocated global arrays
-----------------------------------
  No active global arrays



                         GA Statistics for process    0
                         ------------------------------

       create   destroy   get      put      acc     scatter   gather  read&inc
calls: 3294     3294     8.02e+06 3.14e+06 7.90e+05 2694        0     1096     
number of processes/call 1.01e+00 1.03e+00 1.44e+00 0.00e+00 0.00e+00
bytes total:             1.81e+09 1.26e+08 1.86e+09 1.84e+02 0.00e+00 8.77e+03
bytes remote:            7.80e+08 3.29e+07 1.11e+09 0.00e+00 0.00e+00 0.00e+00
Max memory consumed for GA by this process: 11242192 bytes
 
MA_summarize_allocated_blocks: starting scan ...
MA_summarize_allocated_blocks: scan completed: 0 heap blocks, 0 stack blocks
MA usage statistics:

	allocation statistics:
					      heap	     stack
					      ----	     -----
	current number of blocks	         0	         0
	maximum number of blocks	        24	        52
	current total bytes		         0	         0
	maximum total bytes		   7519856	  48954984
	maximum total K-bytes		      7520	     48955
	maximum total M-bytes		         8	        49
 
 
                                     CITATION
                                     --------
                Please cite the following reference when publishing
                           results obtained with NWChem:
 
                 M. Valiev, E.J. Bylaska, N. Govind, K. Kowalski,
              T.P. Straatsma, H.J.J. van Dam, D. Wang, J. Nieplocha,
                        E. Apra, T.L. Windus, W.A. de Jong
                 "NWChem: a comprehensive and scalable open-source
                  solution for large scale molecular simulations"
                      Comput. Phys. Commun. 181, 1477 (2010)
                           doi:10.1016/j.cpc.2010.04.018
 
                                      AUTHORS
                                      -------
          E. Apra, E. J. Bylaska, W. A. de Jong, N. Govind, K. Kowalski,
       T. P. Straatsma, M. Valiev, H. J. J. van Dam, D. Wang, T. L. Windus,
        J. Hammond, J. Autschbach, K. Bhaskaran-Nair, J. Brabec, K. Lopata,
    S. A. Fischer, S. Krishnamoorthy, M. Jacquelin, W. Ma, M. Klemm, O. Villa,
      Y. Chen, V. Anisimov, F. Aquino, S. Hirata, M. T. Hackler, V. Konjkov,
            D. Mejia-Rodriguez, T. Risthaus, M. Malagoli, A. Marenich,
   A. Otero-de-la-Roza, J. Mullin, P. Nichols, R. Peverati, J. Pittner, Y. Zhao,
        P.-D. Fan, A. Fonari, M. J. Williamson, R. J. Harrison, J. R. Rehr,
      M. Dupuis, D. Silverstein, D. M. A. Smith, J. Nieplocha, V. Tipparaju,
    M. Krishnan, B. E. Van Kuiken, A. Vazquez-Mayagoitia, L. Jensen, M. Swart,
      Q. Wu, T. Van Voorhis, A. A. Auer, M. Nooijen, L. D. Crosby, E. Brown,
      G. Cisneros, G. I. Fann, H. Fruchtl, J. Garza, K. Hirao, R. A. Kendall,
      J. A. Nichols, K. Tsemekhman, K. Wolinski, J. Anchell, D. E. Bernholdt,
      P. Borowski, T. Clark, D. Clerc, H. Dachsel, M. J. O. Deegan, K. Dyall,
    D. Elwood, E. Glendening, M. Gutowski, A. C. Hess, J. Jaffe, B. G. Johnson,
     J. Ju, R. Kobayashi, R. Kutteh, Z. Lin, R. Littlefield, X. Long, B. Meng,
      T. Nakajima, S. Niu, L. Pollack, M. Rosing, K. Glaesemann, G. Sandrone,
      M. Stave, H. Taylor, G. Thomas, J. H. van Lenthe, A. T. Wong, Z. Zhang.

 Total times  cpu:      693.3s     wall:      711.8s
