 argument  1 = methyloxirane_blyp-def2-tzvp_488.9_12.inp
 


============================== echo of input deck ==============================
echo
start methyloxirane_blyp-def2-tzvp_488.9_12.inp
title "methyloxirane roa calculations at 488.9 nm, input generated in va  with delta_type=2"
charge 0



geometry units angstrom nocenter noautoz noautosym nucleus point;symmetry c1
 O -0.879394 -0.181682  0.205577
 C  0.576527 -0.156678  0.128191
 C -0.186398  1.090351  0.336452
 C  1.183607 -0.519937 -1.214477
 H  1.048328 -0.622145  1.001003
 H -0.217764  1.528462  1.337601
 H -0.329845  1.796121 -0.486574
 H  2.241056 -0.217446 -1.240280
 H  1.148138 -1.606826 -1.371819
 H  0.660029 -0.029909 -2.044453
end

basis spherical
* library def2-TZVP
end

 set prop:newaoresp 1
 set aor:roadata T
 set cphf:maxsub 100
 set cphf:acc 1.0d-10
 set cphf:maxiter 100

property
    response 1   0.093196
    bdtensor
    convergence 1e-7
    damping 0.0037
    giao
end

dft
 direct
 mult 1
 xc becke88 lyp
 iterations 250
 tolerances tight
 grid xfine
 convergence nolevelshifting
 convergence energy 1e-8
 convergence gradient 1e-7


end

task dft gradient
task dft property
================================================================================


                                         
                                         
 
 
              Northwest Computational Chemistry Package (NWChem) 6.8
              ------------------------------------------------------
 
 
                    Environmental Molecular Sciences Laboratory
                       Pacific Northwest National Laboratory
                                Richland, WA 99352
 
                              Copyright (c) 1994-2017
                       Pacific Northwest National Laboratory
                            Battelle Memorial Institute
 
             NWChem is an open-source computational chemistry package
                        distributed under the terms of the
                      Educational Community License (ECL) 2.0
             A copy of the license is included with this distribution
                              in the LICENSE.TXT file
 
                                  ACKNOWLEDGMENT
                                  --------------

            This software and its documentation were developed at the
            EMSL at Pacific Northwest National Laboratory, a multiprogram
            national laboratory, operated for the U.S. Department of Energy
            by Battelle under Contract Number DE-AC05-76RL01830. Support
            for this work was provided by the Department of Energy Office
            of Biological and Environmental Research, Office of Basic
            Energy Sciences, and the Office of Advanced Scientific Computing.


           Job information
           ---------------

    hostname        = cpn-f11-16-01.cbls.ccr.buffalo.edu
    program         = /util/academic/nwchem/nwchem-6.8/bin/LINUX64/nwchem
    date            = Fri Mar  1 10:04:44 2019

    compiled        = Tue_Nov_06_14:59:08_2018
    source          = /util/academic/nwchem/nwchem-6.8
    nwchem branch   = 6.8
    nwchem revision = v6.8-47-gdf6c956
    ga revision     = ga-5.6.3
    use scalapack   = F
    input           = methyloxirane_blyp-def2-tzvp_488.9_12.inp
    prefix          = methyloxirane_blyp-def2-tzvp_488.9_12.inp.
    data base       = ./methyloxirane_blyp-def2-tzvp_488.9_12.inp.db
    status          = startup
    nproc           =        7
    time left       =     -1s



           Memory information
           ------------------

    heap     =   13107196 doubles =    100.0 Mbytes
    stack    =   13107201 doubles =    100.0 Mbytes
    global   =   26214400 doubles =    200.0 Mbytes (distinct from heap & stack)
    total    =   52428797 doubles =    400.0 Mbytes
    verify   = yes
    hardfail = no 


           Directory information
           ---------------------
 
  0 permanent = .
  0 scratch   = .
 
 
 
 
                                NWChem Input Module
                                -------------------
 
 
                    methyloxirane roa calculations at 488.9 nm, input generated in va  with delta_type=2
                    ------------------------------------------

 Scaling coordinates for geometry "geometry" by  1.889725989
 (inverse scale =  0.529177249)

 
 
                             Geometry "geometry" -> ""
                             -------------------------
 
 Output coordinates in angstroms (scale by  1.889725989 to convert to a.u.)
 
  No.       Tag          Charge          X              Y              Z
 ---- ---------------- ---------- -------------- -------------- --------------
    1 O                    8.0000    -0.87939400    -0.18168200     0.20557700
    2 C                    6.0000     0.57652700    -0.15667800     0.12819100
    3 C                    6.0000    -0.18639800     1.09035100     0.33645200
    4 C                    6.0000     1.18360700    -0.51993700    -1.21447700
    5 H                    1.0000     1.04832800    -0.62214500     1.00100300
    6 H                    1.0000    -0.21776400     1.52846200     1.33760100
    7 H                    1.0000    -0.32984500     1.79612100    -0.48657400
    8 H                    1.0000     2.24105600    -0.21744600    -1.24028000
    9 H                    1.0000     1.14813800    -1.60682600    -1.37181900
   10 H                    1.0000     0.66002900    -0.02990900    -2.04445300
 
      Atomic Mass 
      ----------- 
 
      O                 15.994910
      C                 12.000000
      H                  1.007825
 

 Effective nuclear repulsion energy (a.u.)     123.3627033879

            Nuclear Dipole moment (a.u.) 
            ----------------------------
        X                 Y               Z
 ---------------- ---------------- ----------------
    13.1472129861     3.5474257511   -10.6937892940
 
 
            XYZ format geometry
            -------------------
    10
 geometry
 O                    -0.87939400    -0.18168200     0.20557700
 C                     0.57652700    -0.15667800     0.12819100
 C                    -0.18639800     1.09035100     0.33645200
 C                     1.18360700    -0.51993700    -1.21447700
 H                     1.04832800    -0.62214500     1.00100300
 H                    -0.21776400     1.52846200     1.33760100
 H                    -0.32984500     1.79612100    -0.48657400
 H                     2.24105600    -0.21744600    -1.24028000
 H                     1.14813800    -1.60682600    -1.37181900
 H                     0.66002900    -0.02990900    -2.04445300
 
 ==============================================================================
                                internuclear distances
 ------------------------------------------------------------------------------
       center one      |      center two      | atomic units |  angstroms
 ------------------------------------------------------------------------------
    2 C                |   1 O                |     2.75558  |     1.45819
    3 C                |   1 O                |     2.74852  |     1.45446
    3 C                |   2 C                |     2.79047  |     1.47665
    4 C                |   2 C                |     2.86794  |     1.51765
    5 H                |   2 C                |     2.07100  |     1.09593
    6 H                |   3 C                |     2.06597  |     1.09326
    7 H                |   3 C                |     2.06669  |     1.09365
    8 H                |   4 C                |     2.07901  |     1.10017
    9 H                |   4 C                |     2.07641  |     1.09879
   10 H                |   4 C                |     2.07278  |     1.09687
 ------------------------------------------------------------------------------
                         number of included internuclear distances:         10
 ==============================================================================



 ==============================================================================
                                 internuclear angles
 ------------------------------------------------------------------------------
        center 1       |       center 2       |       center 3       |  degrees
 ------------------------------------------------------------------------------
    2 C                |   1 O                |   3 C                |    60.93
    2 C                |   1 O                |   3 C                |    60.93
    1 O                |   2 C                |   4 C                |   116.25
    1 O                |   2 C                |   5 H                |   112.35
    3 C                |   2 C                |   4 C                |   122.25
    3 C                |   2 C                |   5 H                |   117.96
    4 C                |   2 C                |   5 H                |   115.51
    3 C                |   1 O                |   2 C                |    60.93
    1 O                |   3 C                |   6 H                |   114.78
    1 O                |   3 C                |   7 H                |   115.73
    2 C                |   3 C                |   6 H                |   118.84
    2 C                |   3 C                |   7 H                |   120.44
    6 H                |   3 C                |   7 H                |   115.26
    2 C                |   4 C                |   8 H                |   109.84
    2 C                |   4 C                |   9 H                |   110.52
    2 C                |   4 C                |  10 H                |   111.81
    8 H                |   4 C                |   9 H                |   107.44
    8 H                |   4 C                |  10 H                |   108.56
    9 H                |   4 C                |  10 H                |   108.55
 ------------------------------------------------------------------------------
                            number of included internuclear angles:         19
 ==============================================================================



  warning:::::::::::::: from_environment
  NWCHEM_BASIS_LIBRARY set to: <
 /util/academic/nwchem/nwchem-6.8/src/basis/libraries>
  but file does not exist !
  using .nwchemrc or compiled library


 Summary of "ao basis" -> "" (spherical)
 ------------------------------------------------------------------------------
       Tag                 Description            Shells   Functions and Types
 ---------------- ------------------------------  ------  ---------------------
 *                         def2-TZVP                  on all atoms 


 
                                 NWChem DFT Module
                                 -----------------
 
 
                    methyloxirane roa calculations at 488.9 nm, input generated in va  with delta_type=2
 
 
                      Basis "ao basis" -> "ao basis" (spherical)
                      -----
  O (Oxygen)
  ----------
            Exponent  Coefficients 
       -------------- ---------------------------------------------------------
  1 S  2.70323826E+04  0.000217
  1 S  4.05238714E+03  0.001684
  1 S  9.22327227E+02  0.008740
  1 S  2.61240710E+02  0.035240
  1 S  8.53546414E+01  0.111535
  1 S  3.10350352E+01  0.255890
 
  2 S  1.22608607E+01  0.397687
  2 S  4.99870760E+00  0.246278
 
  3 S  1.17031082E+00  1.000000
 
  4 S  4.64747410E-01  1.000000
 
  5 S  1.85045364E-01  1.000000
 
  6 P  6.32749548E+01  0.006069
  6 P  1.46270494E+01  0.041913
  6 P  4.45012235E+00  0.161538
  6 P  1.52757996E+00  0.357070
 
  7 P  5.29351179E-01  1.000000
 
  8 P  1.74784213E-01  1.000000
 
  9 D  2.31400000E+00  1.000000
 
 10 D  6.45000000E-01  1.000000
 
 11 F  1.42800000E+00  1.000000
 
  C (Carbon)
  ----------
            Exponent  Coefficients 
       -------------- ---------------------------------------------------------
  1 S  1.35753497E+04  0.000222
  1 S  2.03523337E+03  0.001723
  1 S  4.63225624E+02  0.008926
  1 S  1.31200196E+02  0.035728
  1 S  4.28530159E+01  0.110763
  1 S  1.55841858E+01  0.242956
 
  2 S  6.20671385E+00  0.414403
  2 S  2.57648965E+00  0.237450
 
  3 S  5.76963394E-01  1.000000
 
  4 S  2.29728314E-01  1.000000
 
  5 S  9.51644400E-02  1.000000
 
  6 P  3.46972322E+01  0.005333
  6 P  7.95826228E+00  0.035864
  6 P  2.37808269E+00  0.142159
  6 P  8.14332082E-01  0.342705
 
  7 P  2.88875473E-01  1.000000
 
  8 P  1.00568237E-01  1.000000
 
  9 D  1.09700000E+00  1.000000
 
 10 D  3.18000000E-01  1.000000
 
 11 F  7.61000000E-01  1.000000
 
  H (Hydrogen)
  ------------
            Exponent  Coefficients 
       -------------- ---------------------------------------------------------
  1 S  3.40613410E+01  0.006025
  1 S  5.12357460E+00  0.045021
  1 S  1.16466260E+00  0.201897
 
  2 S  3.27230410E-01  1.000000
 
  3 S  1.03072410E-01  1.000000
 
  4 P  8.00000000E-01  1.000000
 


 Summary of "ao basis" -> "ao basis" (spherical)
 ------------------------------------------------------------------------------
       Tag                 Description            Shells   Functions and Types
 ---------------- ------------------------------  ------  ---------------------
 O                         def2-TZVP                11       31   5s3p2d1f
 C                         def2-TZVP                11       31   5s3p2d1f
 H                         def2-TZVP                 4        6   3s1p




 Summary of "ao basis" -> "ao basis" (spherical)
 ------------------------------------------------------------------------------
       Tag                 Description            Shells   Functions and Types
 ---------------- ------------------------------  ------  ---------------------
 O                         def2-TZVP                11       31   5s3p2d1f
 C                         def2-TZVP                11       31   5s3p2d1f
 H                         def2-TZVP                 4        6   3s1p


  Caching 1-el integrals 
  itol2e modified to match energy
  convergence criterion.
  tol_rho modified to match energy
  convergence criterion.
 
            General Information
            -------------------
          SCF calculation type: DFT
          Wavefunction type:  closed shell.
          No. of atoms     :    10
          No. of electrons :    32
           Alpha electrons :    16
            Beta electrons :    16
          Charge           :     0
          Spin multiplicity:     1
          Use of symmetry is: off; symmetry adaption is: off
          Maximum number of iterations: 250
          This is a Direct SCF calculation.
          AO basis - number of functions:   160
                     number of shells:    68
          Convergence on energy requested:  1.00D-08
          Convergence on density requested:  1.00D-05
          Convergence on gradient requested:  1.00D-07
 
              XC Information
              --------------
                    Becke 1988 Exchange Functional  1.000          
              Lee-Yang-Parr Correlation Functional  1.000          
 
             Grid Information
             ----------------
          Grid used for XC integration:  xfine     
          Radial quadrature: Mura-Knowles        
          Angular quadrature: Lebedev. 
          Tag              B.-S. Rad. Rad. Pts. Rad. Cut. Ang. Pts.
          ---              ---------- --------- --------- ---------
          O                   0.60      100          11.0      1454
          C                   0.70      100          11.0      1454
          H                   0.35      100          12.0      1202
          Grid pruning is: on 
          Number of quadrature shells:  1000
          Spatial weights used:  Erf1
 
          Convergence Information
          -----------------------
          Convergence aids based upon iterative change in 
          total energy or number of iterations. 
          Levelshifting, if invoked, occurs when the 
          HOMO/LUMO gap drops below (HL_TOL):  1.00D-02
          DIIS, if invoked, will attempt to extrapolate 
          using up to (NFOCK): 10 stored Fock matrices.

                    Damping( 0%)  Levelshifting(0.0)       DIIS
                  --------------- ------------------- ---------------
          dE  on:    start             N/A                start   
          dE off:    2 iters           N/A              250 iters 

 
      Screening Tolerance Information
      -------------------------------
          Density screening/tol_rho:  1.00D-11
          AO Gaussian exp screening on grid/accAOfunc:  18
          CD Gaussian exp screening on grid/accCDfunc:  20
          XC Gaussian exp screening on grid/accXCfunc:  20
          Schwarz screening/accCoul:  1.00D-09

 
      Superposition of Atomic Density Guess
      -------------------------------------
 
 Sum of atomic energies:        -190.79714706
 
      Non-variational initial energy
      ------------------------------

 Total energy =    -193.140921
 1-e energy   =    -501.700432
 2-e energy   =     185.196807
 HOMO         =      -0.352130
 LUMO         =       0.089878
 
   Time after variat. SCF:      0.7
   Time prior to 1st pass:      0.7

 Grid_pts file          = ./methyloxirane_blyp-def2-tzvp_488.9_12.inp.gridpts.0
 Record size in doubles =  12289        No. of grid_pts per rec  =   3070
 Max. records in memory =     76        Max. recs in file   =   1220876


           Memory utilization after 1st SCF pass: 
           Heap Space remaining (MW):       12.17            12167540
          Stack Space remaining (MW):       13.11            13106124

   convergence    iter        energy       DeltaE   RMS-Dens  Diis-err    time
 ---------------- ----- ----------------- --------- --------- ---------  ------
 d= 0,ls=0.0,diis     1   -193.0191338970 -3.16D+02  9.23D-03  1.07D+00     7.3
 d= 0,ls=0.0,diis     2   -192.8491680094  1.70D-01  7.63D-03  2.64D+00    13.8
 d= 0,ls=0.0,diis     3   -193.0773456060 -2.28D-01  1.82D-03  3.82D-01    20.2
 d= 0,ls=0.0,diis     4   -193.1070593107 -2.97D-02  6.93D-04  1.88D-02    26.6
 d= 0,ls=0.0,diis     5   -193.1087871608 -1.73D-03  2.93D-04  2.75D-03    33.0
 d= 0,ls=0.0,diis     6   -193.1091301609 -3.43D-04  3.01D-05  3.71D-05    39.5
 d= 0,ls=0.0,diis     7   -193.1091344946 -4.33D-06  8.78D-06  4.76D-06    45.9
 d= 0,ls=0.0,diis     8   -193.1091350227 -5.28D-07  2.21D-06  3.21D-07    52.3
 d= 0,ls=0.0,diis     9   -193.1091350578 -3.51D-08  7.00D-07  1.86D-08    58.7
 d= 0,ls=0.0,diis    10   -193.1091350598 -2.04D-09  2.12D-07  2.99D-09    65.2


         Total DFT energy =     -193.109135059810
      One electron energy =     -505.354814876457
           Coulomb energy =      215.898945833049
    Exchange-Corr. energy =      -27.015969404276
 Nuclear repulsion energy =      123.362703387874

 Numeric. integr. density =       32.000000027930

     Total iterative time =     64.5s


 
                       DFT Final Molecular Orbital Analysis
                       ------------------------------------
 
 Vector    1  Occ=2.000000D+00  E=-1.877928D+01
              MO Center= -8.8D-01, -1.8D-01,  2.1D-01, r^2= 1.5D-02
   Bfn.  Coefficient  Atom+Function         Bfn.  Coefficient  Atom+Function  
  ----- ------------  ---------------      ----- ------------  ---------------
     2      0.638480   1 O  s                 1      0.435422   1 O  s         
     3      0.039850   1 O  s                 4     -0.033105   1 O  s         
 
 Vector    2  Occ=2.000000D+00  E=-9.963841D+00
              MO Center=  5.8D-01, -1.6D-01,  1.3D-01, r^2= 2.8D-02
   Bfn.  Coefficient  Atom+Function         Bfn.  Coefficient  Atom+Function  
  ----- ------------  ---------------      ----- ------------  ---------------
    33      0.606930   2 C  s                32      0.467266   2 C  s         
    34      0.042473   2 C  s                36      0.037205   2 C  s         
    35     -0.027524   2 C  s         
 
 Vector    3  Occ=2.000000D+00  E=-9.956142D+00
              MO Center= -1.9D-01,  1.1D+00,  3.4D-01, r^2= 2.8D-02
   Bfn.  Coefficient  Atom+Function         Bfn.  Coefficient  Atom+Function  
  ----- ------------  ---------------      ----- ------------  ---------------
    64      0.607035   3 C  s                63      0.467227   3 C  s         
    65      0.039719   3 C  s         
 
 Vector    4  Occ=2.000000D+00  E=-9.908061D+00
              MO Center=  1.2D+00, -5.2D-01, -1.2D+00, r^2= 2.8D-02
   Bfn.  Coefficient  Atom+Function         Bfn.  Coefficient  Atom+Function  
  ----- ------------  ---------------      ----- ------------  ---------------
    95      0.606968   4 C  s                94      0.467218   4 C  s         
    96      0.040635   4 C  s                98      0.035452   4 C  s         
 
 Vector    5  Occ=2.000000D+00  E=-9.608856D-01
              MO Center= -4.7D-01,  5.5D-02,  2.1D-01, r^2= 6.5D-01
   Bfn.  Coefficient  Atom+Function         Bfn.  Coefficient  Atom+Function  
  ----- ------------  ---------------      ----- ------------  ---------------
     4      0.375399   1 O  s                 3      0.277561   1 O  s         
     2     -0.192848   1 O  s                34      0.139696   2 C  s         
    65      0.139048   3 C  s                 5      0.122977   1 O  s         
    35      0.105115   2 C  s                66      0.093895   3 C  s         
     6      0.092872   1 O  px               69     -0.091217   3 C  py        
 
 Vector    6  Occ=2.000000D+00  E=-6.684407D-01
              MO Center=  9.5D-01, -3.9D-01, -7.7D-01, r^2= 1.6D+00
   Bfn.  Coefficient  Atom+Function         Bfn.  Coefficient  Atom+Function  
  ----- ------------  ---------------      ----- ------------  ---------------
    97      0.285340   4 C  s                96      0.276345   4 C  s         
    35      0.185060   2 C  s                34      0.173970   2 C  s         
    95     -0.173934   4 C  s                 4     -0.147950   1 O  s         
    33     -0.108605   2 C  s                 3     -0.103617   1 O  s         
    94     -0.083336   4 C  s                 5     -0.073449   1 O  s         
 
 Vector    7  Occ=2.000000D+00  E=-5.899355D-01
              MO Center= -1.3D-01,  7.2D-01,  2.2D-01, r^2= 2.0D+00
   Bfn.  Coefficient  Atom+Function         Bfn.  Coefficient  Atom+Function  
  ----- ------------  ---------------      ----- ------------  ---------------
    66      0.326468   3 C  s                65      0.278583   3 C  s         
     4     -0.237766   1 O  s                64     -0.172123   3 C  s         
     3     -0.168032   1 O  s                 5     -0.147327   1 O  s         
     2      0.110940   1 O  s                38      0.104624   2 C  py        
   132      0.103294   6 H  s                97     -0.099432   4 C  s         
 
 Vector    8  Occ=2.000000D+00  E=-5.300538D-01
              MO Center=  4.2D-01,  7.6D-03, -9.6D-02, r^2= 2.7D+00
   Bfn.  Coefficient  Atom+Function         Bfn.  Coefficient  Atom+Function  
  ----- ------------  ---------------      ----- ------------  ---------------
    35      0.303565   2 C  s                34      0.225701   2 C  s         
    97     -0.154781   4 C  s                66     -0.151990   3 C  s         
    33     -0.138806   2 C  s               126      0.133495   5 H  s         
    96     -0.128728   4 C  s               125      0.106788   5 H  s         
     6      0.106255   1 O  px               65     -0.098704   3 C  s         
 
 Vector    9  Occ=2.000000D+00  E=-4.467313D-01
              MO Center=  1.2D-01,  2.8D-01,  2.5D-01, r^2= 2.5D+00
   Bfn.  Coefficient  Atom+Function         Bfn.  Coefficient  Atom+Function  
  ----- ------------  ---------------      ----- ------------  ---------------
    70      0.208298   3 C  pz               39      0.156050   2 C  pz        
   132      0.145343   6 H  s                73      0.131058   3 C  pz        
     8      0.126062   1 O  pz              126      0.116134   5 H  s         
     6     -0.112095   1 O  px               38     -0.108702   2 C  py        
   131      0.107764   6 H  s                37      0.103971   2 C  px        
 
 Vector   10  Occ=2.000000D+00  E=-4.138810D-01
              MO Center=  4.0D-02,  3.1D-01, -2.3D-01, r^2= 2.6D+00
   Bfn.  Coefficient  Atom+Function         Bfn.  Coefficient  Atom+Function  
  ----- ------------  ---------------      ----- ------------  ---------------
    69      0.214948   3 C  py              138      0.158139   7 H  s         
   101      0.153086   4 C  pz                6     -0.139915   1 O  px        
    38     -0.139837   2 C  py               37      0.127206   2 C  px        
    70     -0.123308   3 C  pz               72      0.121503   3 C  py        
     7     -0.120858   1 O  py              137      0.114720   7 H  s         
 
 Vector   11  Occ=2.000000D+00  E=-3.755477D-01
              MO Center=  9.1D-01, -3.3D-01, -7.6D-01, r^2= 2.6D+00
   Bfn.  Coefficient  Atom+Function         Bfn.  Coefficient  Atom+Function  
  ----- ------------  ---------------      ----- ------------  ---------------
    99      0.210559   4 C  px              144      0.186318   8 H  s         
   100      0.164771   4 C  py              150     -0.140193   9 H  s         
   102      0.135587   4 C  px              143      0.130495   8 H  s         
    37      0.127241   2 C  px                6     -0.116977   1 O  px        
     7      0.117183   1 O  py              103      0.108897   4 C  py        
 
 Vector   12  Occ=2.000000D+00  E=-3.557509D-01
              MO Center=  6.0D-01, -3.6D-01, -9.0D-01, r^2= 2.8D+00
   Bfn.  Coefficient  Atom+Function         Bfn.  Coefficient  Atom+Function  
  ----- ------------  ---------------      ----- ------------  ---------------
   100      0.255622   4 C  py              150     -0.186302   9 H  s         
   156      0.178079  10 H  s                 7     -0.170224   1 O  py        
   103      0.165764   4 C  py               10     -0.136224   1 O  py        
   149     -0.129979   9 H  s               155      0.126002  10 H  s         
    70      0.109694   3 C  pz              106      0.103699   4 C  py        
 
 Vector   13  Occ=2.000000D+00  E=-3.286981D-01
              MO Center=  3.9D-01,  2.7D-01, -2.0D-01, r^2= 2.8D+00
   Bfn.  Coefficient  Atom+Function         Bfn.  Coefficient  Atom+Function  
  ----- ------------  ---------------      ----- ------------  ---------------
    39      0.232039   2 C  pz              101     -0.205633   4 C  pz        
    70     -0.183843   3 C  pz              138      0.163589   7 H  s         
    42      0.158239   2 C  pz              104     -0.143477   4 C  pz        
     7     -0.129103   1 O  py              132     -0.122962   6 H  s         
   126      0.117645   5 H  s                99      0.115347   4 C  px        
 
 Vector   14  Occ=2.000000D+00  E=-3.210195D-01
              MO Center=  3.4D-01, -7.1D-02, -2.3D-01, r^2= 3.0D+00
   Bfn.  Coefficient  Atom+Function         Bfn.  Coefficient  Atom+Function  
  ----- ------------  ---------------      ----- ------------  ---------------
     7      0.229723   1 O  py               10      0.187948   1 O  py        
    99     -0.170374   4 C  px                6     -0.154698   1 O  px        
   126      0.149151   5 H  s               156      0.143424  10 H  s         
    37      0.142495   2 C  px              144     -0.140179   8 H  s         
     9     -0.127058   1 O  px               68     -0.115112   3 C  px        
 
 Vector   15  Occ=2.000000D+00  E=-2.638116D-01
              MO Center=  1.6D-02,  1.5D-01,  3.5D-02, r^2= 2.3D+00
   Bfn.  Coefficient  Atom+Function         Bfn.  Coefficient  Atom+Function  
  ----- ------------  ---------------      ----- ------------  ---------------
    68      0.262616   3 C  px               38      0.254747   2 C  py        
     6     -0.238571   1 O  px               41      0.198552   2 C  py        
    71      0.195471   3 C  px                9     -0.186684   1 O  px        
    12     -0.157316   1 O  px              150      0.115250   9 H  s         
   100     -0.112155   4 C  py               67      0.107733   3 C  s         
 
 Vector   16  Occ=2.000000D+00  E=-2.191447D-01
              MO Center= -5.8D-01, -2.9D-02,  2.0D-01, r^2= 1.6D+00
   Bfn.  Coefficient  Atom+Function         Bfn.  Coefficient  Atom+Function  
  ----- ------------  ---------------      ----- ------------  ---------------
     8      0.449805   1 O  pz               11      0.358211   1 O  pz        
    14      0.297049   1 O  pz              133     -0.132447   6 H  s         
   139      0.117534   7 H  s               132     -0.104406   6 H  s         
   138      0.102685   7 H  s               145     -0.102657   8 H  s         
   126     -0.095577   5 H  s                98      0.082731   4 C  s         
 
 Vector   17  Occ=0.000000D+00  E= 2.559297D-02
              MO Center=  1.2D+00, -1.0D-01, -5.9D-01, r^2= 7.3D+00
   Bfn.  Coefficient  Atom+Function         Bfn.  Coefficient  Atom+Function  
  ----- ------------  ---------------      ----- ------------  ---------------
    98      4.455686   4 C  s               145     -1.535385   8 H  s         
   151     -1.493793   9 H  s               157     -1.334962  10 H  s         
   127     -1.257547   5 H  s                45      1.129304   2 C  pz        
   139     -0.876131   7 H  s                67      0.710953   3 C  s         
   133     -0.622057   6 H  s                75      0.333348   3 C  py        
 
 Vector   18  Occ=0.000000D+00  E= 4.230811D-02
              MO Center= -1.3D-01,  6.5D-01,  1.0D-01, r^2= 4.5D+00
   Bfn.  Coefficient  Atom+Function         Bfn.  Coefficient  Atom+Function  
  ----- ------------  ---------------      ----- ------------  ---------------
    98      2.147407   4 C  s                36     -1.863545   2 C  s         
     5      1.277161   1 O  s                74      0.925703   3 C  px        
   151     -0.813107   9 H  s                45      0.542859   2 C  pz        
    13      0.441927   1 O  py              157     -0.421744  10 H  s         
    44     -0.415787   2 C  py              145     -0.385688   8 H  s         
 
 Vector   19  Occ=0.000000D+00  E= 4.888743D-02
              MO Center=  3.7D-01,  4.2D-01, -1.1D-01, r^2= 6.4D+00
   Bfn.  Coefficient  Atom+Function         Bfn.  Coefficient  Atom+Function  
  ----- ------------  ---------------      ----- ------------  ---------------
    36      2.743577   2 C  s                67     -2.495248   3 C  s         
   127     -1.803662   5 H  s               139      1.565669   7 H  s         
   157      0.903059  10 H  s                98     -0.793002   4 C  s         
    76      0.525385   3 C  pz               45      0.481603   2 C  pz        
    43      0.477998   2 C  px                5      0.457556   1 O  s         
 
 Vector   20  Occ=0.000000D+00  E= 5.095479D-02
              MO Center=  5.7D-01,  6.1D-01,  4.3D-01, r^2= 7.6D+00
   Bfn.  Coefficient  Atom+Function         Bfn.  Coefficient  Atom+Function  
  ----- ------------  ---------------      ----- ------------  ---------------
    98      3.377620   4 C  s                67     -2.910389   3 C  s         
   133      1.873227   6 H  s               145     -1.195787   8 H  s         
    44      1.120099   2 C  py              127      1.062831   5 H  s         
   157     -1.030985  10 H  s               151     -0.741535   9 H  s         
    36     -0.680346   2 C  s                43     -0.647589   2 C  px        
 
 Vector   21  Occ=0.000000D+00  E= 6.459019D-02
              MO Center=  2.8D-01,  1.5D-01, -1.8D-01, r^2= 4.7D+00
   Bfn.  Coefficient  Atom+Function         Bfn.  Coefficient  Atom+Function  
  ----- ------------  ---------------      ----- ------------  ---------------
   139      1.293962   7 H  s                98      1.019146   4 C  s         
    67     -0.947868   3 C  s                 5     -0.881716   1 O  s         
   151     -0.882202   9 H  s                43     -0.812907   2 C  px        
    75     -0.563354   3 C  py              127     -0.494499   5 H  s         
    12     -0.485837   1 O  px              133      0.478457   6 H  s         
 
 Vector   22  Occ=0.000000D+00  E= 8.635755D-02
              MO Center=  1.4D+00,  1.2D-01, -6.2D-01, r^2= 6.8D+00
   Bfn.  Coefficient  Atom+Function         Bfn.  Coefficient  Atom+Function  
  ----- ------------  ---------------      ----- ------------  ---------------
    36      2.598029   2 C  s               145      2.170075   8 H  s         
   157     -1.320968  10 H  s                67     -1.261115   3 C  s         
   127     -1.201544   5 H  s               105     -1.114862   4 C  px        
   133      1.080402   6 H  s               107     -1.049439   4 C  pz        
    98     -0.827016   4 C  s                75      0.721614   3 C  py        
 
 Vector   23  Occ=0.000000D+00  E= 9.139258D-02
              MO Center=  1.1D+00, -5.5D-01, -4.6D-01, r^2= 7.0D+00
   Bfn.  Coefficient  Atom+Function         Bfn.  Coefficient  Atom+Function  
  ----- ------------  ---------------      ----- ------------  ---------------
    36      2.996181   2 C  s               151      1.995206   9 H  s         
    98     -1.499070   4 C  s               145     -1.353640   8 H  s         
    67     -1.160300   3 C  s               133      1.072135   6 H  s         
   106      1.059412   4 C  py              105      1.030982   4 C  px        
   127     -0.952226   5 H  s               107     -0.847636   4 C  pz        
 
 Vector   24  Occ=0.000000D+00  E= 1.017184D-01
              MO Center=  4.4D-01,  3.9D-01, -1.1D+00, r^2= 6.8D+00
   Bfn.  Coefficient  Atom+Function         Bfn.  Coefficient  Atom+Function  
  ----- ------------  ---------------      ----- ------------  ---------------
   157      2.027064  10 H  s               133      1.601943   6 H  s         
   106     -1.495107   4 C  py              151     -1.476259   9 H  s         
   139     -1.453693   7 H  s                98     -1.364745   4 C  s         
    36      1.296705   2 C  s                76     -1.144205   3 C  pz        
   105      0.967520   4 C  px               45     -0.519133   2 C  pz        
 
 Vector   25  Occ=0.000000D+00  E= 1.377745D-01
              MO Center=  7.6D-01,  2.1D-01, -4.0D-01, r^2= 7.9D+00
   Bfn.  Coefficient  Atom+Function         Bfn.  Coefficient  Atom+Function  
  ----- ------------  ---------------      ----- ------------  ---------------
    36      4.543731   2 C  s                98     -3.473780   4 C  s         
    45     -3.413462   2 C  pz               67     -2.801066   3 C  s         
   127      2.774421   5 H  s                76      2.145380   3 C  pz        
   105      2.008666   4 C  px              133     -1.753439   6 H  s         
   139      1.673209   7 H  s               107     -1.512488   4 C  pz        
 
 Vector   26  Occ=0.000000D+00  E= 1.711338D-01
              MO Center=  4.4D-01,  5.4D-01, -1.4D-01, r^2= 7.3D+00
   Bfn.  Coefficient  Atom+Function         Bfn.  Coefficient  Atom+Function  
  ----- ------------  ---------------      ----- ------------  ---------------
    75      2.303267   3 C  py              107      1.630819   4 C  pz        
    36      1.443089   2 C  s                67     -1.439172   3 C  s         
   139     -1.239377   7 H  s               157      1.071613  10 H  s         
    74     -0.968893   3 C  px               44      0.672580   2 C  py        
    43     -0.548112   2 C  px              106     -0.539712   4 C  py        
 
 Vector   27  Occ=0.000000D+00  E= 1.966514D-01
              MO Center=  8.1D-01, -7.8D-02, -9.9D-01, r^2= 5.1D+00
   Bfn.  Coefficient  Atom+Function         Bfn.  Coefficient  Atom+Function  
  ----- ------------  ---------------      ----- ------------  ---------------
    67      3.108245   3 C  s                44     -2.592024   2 C  py        
   106      1.967078   4 C  py               36     -1.824985   2 C  s         
    43      1.004475   2 C  px               74      0.761010   3 C  px        
   157     -0.708289  10 H  s               105      0.700466   4 C  px        
    45     -0.664045   2 C  pz              150      0.636264   9 H  s         
 
 Vector   28  Occ=0.000000D+00  E= 2.025451D-01
              MO Center=  9.8D-01, -4.4D-01, -6.8D-01, r^2= 6.6D+00
   Bfn.  Coefficient  Atom+Function         Bfn.  Coefficient  Atom+Function  
  ----- ------------  ---------------      ----- ------------  ---------------
    36      2.685741   2 C  s                75      1.691239   3 C  py        
   105     -1.372895   4 C  px              133     -1.242297   6 H  s         
   107     -0.934889   4 C  pz              106      0.906527   4 C  py        
   139     -0.756709   7 H  s                45      0.723121   2 C  pz        
   156     -0.716691  10 H  s                76      0.693120   3 C  pz        
 
 Vector   29  Occ=0.000000D+00  E= 2.356433D-01
              MO Center= -2.5D-01,  3.3D-01, -1.1D-01, r^2= 5.5D+00
   Bfn.  Coefficient  Atom+Function         Bfn.  Coefficient  Atom+Function  
  ----- ------------  ---------------      ----- ------------  ---------------
    67      3.993177   3 C  s                36     -2.905350   2 C  s         
   139     -1.589275   7 H  s                66     -1.443969   3 C  s         
    98      1.394356   4 C  s               133     -1.219373   6 H  s         
   107      1.152022   4 C  pz               44      0.863078   2 C  py        
    74     -0.828377   3 C  px              106      0.735479   4 C  py        
 
 Vector   30  Occ=0.000000D+00  E= 2.458019D-01
              MO Center=  4.8D-01,  8.4D-02, -6.2D-02, r^2= 6.0D+00
   Bfn.  Coefficient  Atom+Function         Bfn.  Coefficient  Atom+Function  
  ----- ------------  ---------------      ----- ------------  ---------------
    67      6.327749   3 C  s                43      4.091040   2 C  px        
    75     -3.010362   3 C  py               44     -2.550799   2 C  py        
    36     -2.440940   2 C  s               107     -1.954404   4 C  pz        
   157     -1.824648  10 H  s                45     -1.319231   2 C  pz        
   105     -1.203903   4 C  px               98     -1.067083   4 C  s         
 
 Vector   31  Occ=0.000000D+00  E= 2.693904D-01
              MO Center=  2.4D-01, -2.4D-01,  2.5D-01, r^2= 5.6D+00
   Bfn.  Coefficient  Atom+Function         Bfn.  Coefficient  Atom+Function  
  ----- ------------  ---------------      ----- ------------  ---------------
    36      4.553907   2 C  s                 5     -2.365333   1 O  s         
    67      2.003265   3 C  s                43     -1.704235   2 C  px        
   105      1.538473   4 C  px               98     -1.242352   4 C  s         
    66     -1.126476   3 C  s               133     -0.913354   6 H  s         
   139     -0.855222   7 H  s               106     -0.822185   4 C  py        
 
 Vector   32  Occ=0.000000D+00  E= 2.771137D-01
              MO Center=  4.8D-01,  3.8D-01,  3.1D-01, r^2= 4.1D+00
   Bfn.  Coefficient  Atom+Function         Bfn.  Coefficient  Atom+Function  
  ----- ------------  ---------------      ----- ------------  ---------------
    36      2.211939   2 C  s                67     -1.820247   3 C  s         
     5     -1.574305   1 O  s                43     -1.216198   2 C  px        
    45     -0.795627   2 C  pz               74     -0.739031   3 C  px        
    98     -0.672528   4 C  s               145      0.580059   8 H  s         
     4      0.481241   1 O  s                66      0.446325   3 C  s         
 
 Vector   33  Occ=0.000000D+00  E= 3.015853D-01
              MO Center=  4.5D-01,  3.7D-01, -3.9D-01, r^2= 5.0D+00
   Bfn.  Coefficient  Atom+Function         Bfn.  Coefficient  Atom+Function  
  ----- ------------  ---------------      ----- ------------  ---------------
    98     -1.991372   4 C  s                43      1.913977   2 C  px        
   106      1.796847   4 C  py              151      1.746936   9 H  s         
    76      1.553141   3 C  pz               44     -1.287248   2 C  py        
   139      1.110253   7 H  s                66      1.087232   3 C  s         
   107     -1.082458   4 C  pz               36     -0.930751   2 C  s         
 
 Vector   34  Occ=0.000000D+00  E= 3.360051D-01
              MO Center=  1.7D-01,  3.6D-01, -4.4D-01, r^2= 5.7D+00
   Bfn.  Coefficient  Atom+Function         Bfn.  Coefficient  Atom+Function  
  ----- ------------  ---------------      ----- ------------  ---------------
    67      4.189116   3 C  s                76     -3.641416   3 C  pz        
   139     -2.946395   7 H  s               107     -1.913639   4 C  pz        
   133      1.854219   6 H  s               157     -1.726804  10 H  s         
    36     -1.528738   2 C  s                43      1.427940   2 C  px        
    98      1.207526   4 C  s                44     -1.094276   2 C  py        
 
 Vector   35  Occ=0.000000D+00  E= 3.611547D-01
              MO Center=  6.3D-01,  9.9D-02, -1.7D-01, r^2= 6.7D+00
   Bfn.  Coefficient  Atom+Function         Bfn.  Coefficient  Atom+Function  
  ----- ------------  ---------------      ----- ------------  ---------------
    98      6.611852   4 C  s                76      3.481060   3 C  pz        
   145     -2.990053   8 H  s                97     -2.725185   4 C  s         
   133     -2.438803   6 H  s               139      1.943364   7 H  s         
    36      1.861189   2 C  s                67     -1.766148   3 C  s         
    44      1.682996   2 C  py              151     -1.618801   9 H  s         
 
 Vector   36  Occ=0.000000D+00  E= 3.699718D-01
              MO Center=  5.7D-01,  2.3D-01, -1.9D-01, r^2= 6.6D+00
   Bfn.  Coefficient  Atom+Function         Bfn.  Coefficient  Atom+Function  
  ----- ------------  ---------------      ----- ------------  ---------------
    36     12.143661   2 C  s                98     -9.242773   4 C  s         
    67     -8.228114   3 C  s               127     -2.990241   5 H  s         
    97      2.736096   4 C  s               157      2.375004  10 H  s         
   151      1.916060   9 H  s                44      1.841026   2 C  py        
    35     -1.715280   2 C  s               145      1.600206   8 H  s         
 
 Vector   37  Occ=0.000000D+00  E= 3.836082D-01
              MO Center=  9.7D-01, -3.7D-01, -1.2D-01, r^2= 6.0D+00
   Bfn.  Coefficient  Atom+Function         Bfn.  Coefficient  Atom+Function  
  ----- ------------  ---------------      ----- ------------  ---------------
    36      7.449565   2 C  s               127     -4.034053   5 H  s         
    67     -3.023462   3 C  s                98      2.829556   4 C  s         
    35     -2.335989   2 C  s                45      2.175116   2 C  pz        
   151     -2.113835   9 H  s               145     -2.087094   8 H  s         
    76     -1.620430   3 C  pz              133      1.496229   6 H  s         
 
 Vector   38  Occ=0.000000D+00  E= 3.937181D-01
              MO Center=  2.6D-01,  1.9D-01, -1.6D-01, r^2= 6.8D+00
   Bfn.  Coefficient  Atom+Function         Bfn.  Coefficient  Atom+Function  
  ----- ------------  ---------------      ----- ------------  ---------------
    98     12.823864   4 C  s                67     -6.499083   3 C  s         
    45      5.406690   2 C  pz               76     -3.137492   3 C  pz        
   157     -2.837954  10 H  s               133      2.665473   6 H  s         
    44      2.414273   2 C  py               97     -2.066892   4 C  s         
    75      2.018612   3 C  py               43     -1.934147   2 C  px        
 
 Vector   39  Occ=0.000000D+00  E= 4.025167D-01
              MO Center= -2.5D-01,  2.3D-01,  2.1D-01, r^2= 6.5D+00
   Bfn.  Coefficient  Atom+Function         Bfn.  Coefficient  Atom+Function  
  ----- ------------  ---------------      ----- ------------  ---------------
    67    -11.887622   3 C  s                36     11.286378   2 C  s         
    45     -5.445965   2 C  pz               98     -5.307277   4 C  s         
    44      3.915611   2 C  py              127      3.156805   5 H  s         
    66      2.613620   3 C  s               139      2.583844   7 H  s         
    43     -2.443566   2 C  px              105      2.321997   4 C  px        
 
 Vector   40  Occ=0.000000D+00  E= 4.145682D-01
              MO Center=  7.7D-01, -4.1D-01, -8.4D-01, r^2= 5.8D+00
   Bfn.  Coefficient  Atom+Function         Bfn.  Coefficient  Atom+Function  
  ----- ------------  ---------------      ----- ------------  ---------------
    98      6.494854   4 C  s                36     -3.078149   2 C  s         
    45      2.651350   2 C  pz              105     -2.388145   4 C  px        
   151     -2.380765   9 H  s               157     -1.919046  10 H  s         
   145      1.764466   8 H  s                97     -1.155464   4 C  s         
   144     -0.957512   8 H  s                35      0.924556   2 C  s         
 
 Vector   41  Occ=0.000000D+00  E= 4.284047D-01
              MO Center=  4.5D-01,  1.9D-01, -1.2D-01, r^2= 6.8D+00
   Bfn.  Coefficient  Atom+Function         Bfn.  Coefficient  Atom+Function  
  ----- ------------  ---------------      ----- ------------  ---------------
    36      9.485418   2 C  s                67     -5.085908   3 C  s         
    98     -4.173914   4 C  s                44      2.822484   2 C  py        
    75      2.637816   3 C  py              151      2.364341   9 H  s         
    43     -1.914752   2 C  px               45     -1.700450   2 C  pz        
    74     -1.496929   3 C  px              105      1.344410   4 C  px        
 
 Vector   42  Occ=0.000000D+00  E= 4.465626D-01
              MO Center=  1.3D-01, -1.1D-01, -1.3D-01, r^2= 6.1D+00
   Bfn.  Coefficient  Atom+Function         Bfn.  Coefficient  Atom+Function  
  ----- ------------  ---------------      ----- ------------  ---------------
    36      9.495515   2 C  s                98     -8.533532   4 C  s         
    45     -5.368054   2 C  pz               67     -3.199033   3 C  s         
   127      2.883365   5 H  s                76      2.456242   3 C  pz        
    44      2.378266   2 C  py              106     -2.057306   4 C  py        
   157      2.034468  10 H  s                35     -1.939596   2 C  s         
 
 Vector   43  Occ=0.000000D+00  E= 4.593315D-01
              MO Center=  6.4D-02,  8.4D-01, -5.1D-01, r^2= 5.1D+00
   Bfn.  Coefficient  Atom+Function         Bfn.  Coefficient  Atom+Function  
  ----- ------------  ---------------      ----- ------------  ---------------
   139      3.131437   7 H  s               157     -2.464071  10 H  s         
    75     -2.125441   3 C  py              107     -2.100822   4 C  pz        
    44     -1.621518   2 C  py               43      1.572507   2 C  px        
   138     -1.461569   7 H  s                45     -1.258491   2 C  pz        
    76      1.001172   3 C  pz               74      0.823042   3 C  px        
 
 Vector   44  Occ=0.000000D+00  E= 4.693824D-01
              MO Center=  4.9D-01,  1.3D-01, -6.8D-02, r^2= 5.7D+00
   Bfn.  Coefficient  Atom+Function         Bfn.  Coefficient  Atom+Function  
  ----- ------------  ---------------      ----- ------------  ---------------
    98     -5.161055   4 C  s                36      5.100454   2 C  s         
    45     -2.316567   2 C  pz              107     -1.735146   4 C  pz        
    67     -1.706588   3 C  s               145      1.654531   8 H  s         
   133      1.506355   6 H  s                35     -1.373016   2 C  s         
   157     -1.103079  10 H  s               132     -1.055224   6 H  s         
 
 Vector   45  Occ=0.000000D+00  E= 5.082393D-01
              MO Center=  8.6D-01, -3.6D-01, -9.0D-01, r^2= 4.9D+00
   Bfn.  Coefficient  Atom+Function         Bfn.  Coefficient  Atom+Function  
  ----- ------------  ---------------      ----- ------------  ---------------
    98     10.990894   4 C  s                36     -7.128905   2 C  s         
    45      4.438738   2 C  pz              107      3.001198   4 C  pz        
   144     -1.347506   8 H  s               106      1.327912   4 C  py        
   156     -1.189491  10 H  s               127     -1.158073   5 H  s         
    14     -1.092048   1 O  pz              150     -1.034899   9 H  s         
 
 Vector   46  Occ=0.000000D+00  E= 5.393529D-01
              MO Center=  1.5D-01, -4.3D-01, -5.2D-01, r^2= 4.4D+00
   Bfn.  Coefficient  Atom+Function         Bfn.  Coefficient  Atom+Function  
  ----- ------------  ---------------      ----- ------------  ---------------
    98      8.027776   4 C  s                36     -7.180156   2 C  s         
    45      4.081760   2 C  pz               76     -3.305900   3 C  pz        
   133      1.764748   6 H  s               107      1.641544   4 C  pz        
   139     -1.554453   7 H  s               105     -1.543593   4 C  px        
     5      1.219320   1 O  s                14      1.099862   1 O  pz        
 
 Vector   47  Occ=0.000000D+00  E= 6.565622D-01
              MO Center= -3.1D-01,  1.4D-02, -3.2D-02, r^2= 4.3D+00
   Bfn.  Coefficient  Atom+Function         Bfn.  Coefficient  Atom+Function  
  ----- ------------  ---------------      ----- ------------  ---------------
    36     10.938962   2 C  s                67     -8.459460   3 C  s         
    98     -3.814243   4 C  s                43     -2.582029   2 C  px        
    75      2.241496   3 C  py               13      2.085153   1 O  py        
    76      1.908520   3 C  pz              105      1.561444   4 C  px        
    44      1.451668   2 C  py              139      1.430343   7 H  s         
 
 Vector   48  Occ=0.000000D+00  E= 6.729057D-01
              MO Center= -3.2D-01,  3.5D-01,  1.2D-01, r^2= 4.0D+00
   Bfn.  Coefficient  Atom+Function         Bfn.  Coefficient  Atom+Function  
  ----- ------------  ---------------      ----- ------------  ---------------
    36      8.770494   2 C  s                67     -8.301930   3 C  s         
     5      2.916762   1 O  s                75      2.697001   3 C  py        
    98     -2.424574   4 C  s                13      2.231293   1 O  py        
    43     -1.344898   2 C  px               45     -1.219734   2 C  pz        
     4     -1.088537   1 O  s                44      0.986914   2 C  py        
 
 Vector   49  Occ=0.000000D+00  E= 7.076990D-01
              MO Center=  1.6D-01, -3.1D-01, -2.6D-01, r^2= 4.5D+00
   Bfn.  Coefficient  Atom+Function         Bfn.  Coefficient  Atom+Function  
  ----- ------------  ---------------      ----- ------------  ---------------
    67      9.493408   3 C  s                36     -7.397727   2 C  s         
    43      3.683865   2 C  px               44     -3.506929   2 C  py        
    75     -2.776250   3 C  py               98     -2.394687   4 C  s         
     5      2.266714   1 O  s                12      1.687812   1 O  px        
   106      1.663319   4 C  py               13     -1.303276   1 O  py        
 
 Vector   50  Occ=0.000000D+00  E= 7.596834D-01
              MO Center=  5.9D-01,  2.5D-02, -3.1D-01, r^2= 4.1D+00
   Bfn.  Coefficient  Atom+Function         Bfn.  Coefficient  Atom+Function  
  ----- ------------  ---------------      ----- ------------  ---------------
    45      2.563653   2 C  pz              127     -1.778398   5 H  s         
     5     -1.619475   1 O  s               105     -1.585933   4 C  px        
    36      1.458326   2 C  s                43      1.350192   2 C  px        
   126     -1.313175   5 H  s               144      1.247348   8 H  s         
    76     -1.132280   3 C  pz               66      0.990139   3 C  s         
 
 Vector   51  Occ=0.000000D+00  E= 7.942439D-01
              MO Center=  2.9D-01,  3.7D-02, -2.0D-01, r^2= 4.4D+00
   Bfn.  Coefficient  Atom+Function         Bfn.  Coefficient  Atom+Function  
  ----- ------------  ---------------      ----- ------------  ---------------
     5      4.171690   1 O  s                36     -2.757479   2 C  s         
    76     -2.507704   3 C  pz                4     -1.610930   1 O  s         
    45      1.546958   2 C  pz               12      1.336601   1 O  px        
   133      1.321427   6 H  s                43      1.178972   2 C  px        
    66     -1.009358   3 C  s                35     -0.910570   2 C  s         
 
 Vector   52  Occ=0.000000D+00  E= 8.322326D-01
              MO Center=  3.4D-01,  1.7D-01, -2.2D-02, r^2= 4.5D+00
   Bfn.  Coefficient  Atom+Function         Bfn.  Coefficient  Atom+Function  
  ----- ------------  ---------------      ----- ------------  ---------------
    36      6.553189   2 C  s                98     -4.193464   4 C  s         
     5     -3.755172   1 O  s                43     -2.543274   2 C  px        
   105      1.933312   4 C  px               35     -1.845780   2 C  s         
    45     -1.843618   2 C  pz               44      1.544181   2 C  py        
    66     -1.281049   3 C  s                97      1.073039   4 C  s         
 
 Vector   53  Occ=0.000000D+00  E= 8.543997D-01
              MO Center=  5.6D-01,  1.6D-01, -3.8D-01, r^2= 4.2D+00
   Bfn.  Coefficient  Atom+Function         Bfn.  Coefficient  Atom+Function  
  ----- ------------  ---------------      ----- ------------  ---------------
    36      4.649365   2 C  s                98     -4.638303   4 C  s         
    45     -4.565242   2 C  pz               76      2.019846   3 C  pz        
   127      1.823894   5 H  s               106     -1.588423   4 C  py        
    44      1.532034   2 C  py              105      1.303255   4 C  px        
     5     -1.218573   1 O  s               150     -1.173417   9 H  s         
 
 Vector   54  Occ=0.000000D+00  E= 8.695074D-01
              MO Center=  1.8D-01, -4.0D-02, -1.0D-01, r^2= 4.2D+00
   Bfn.  Coefficient  Atom+Function         Bfn.  Coefficient  Atom+Function  
  ----- ------------  ---------------      ----- ------------  ---------------
     5      4.644982   1 O  s                36     -1.861191   2 C  s         
     4     -1.558525   1 O  s               138      1.333026   7 H  s         
    76      1.303599   3 C  pz               12      1.197156   1 O  px        
    67     -1.111109   3 C  s                66     -1.077282   3 C  s         
    43      0.991850   2 C  px               98     -0.950970   4 C  s         
 
 Vector   55  Occ=0.000000D+00  E= 9.212865D-01
              MO Center=  5.3D-01,  2.8D-01, -5.1D-01, r^2= 4.5D+00
   Bfn.  Coefficient  Atom+Function         Bfn.  Coefficient  Atom+Function  
  ----- ------------  ---------------      ----- ------------  ---------------
    35      4.840284   2 C  s                36     -1.763482   2 C  s         
    67      1.387901   3 C  s               132     -1.345948   6 H  s         
    66     -1.288813   3 C  s                72      1.263442   3 C  py        
   156     -1.236987  10 H  s                84      1.148442   3 C  d  0      
    41      1.127607   2 C  py              116     -1.099901   4 C  d  1      
 
 Vector   56  Occ=0.000000D+00  E= 9.617414D-01
              MO Center=  4.3D-01,  3.3D-01, -4.8D-01, r^2= 4.7D+00
   Bfn.  Coefficient  Atom+Function         Bfn.  Coefficient  Atom+Function  
  ----- ------------  ---------------      ----- ------------  ---------------
    35      4.074944   2 C  s               138     -2.418992   7 H  s         
    67      2.077909   3 C  s                98     -1.807761   4 C  s         
    42     -1.771031   2 C  pz               83     -1.697762   3 C  d -1      
    76     -1.675059   3 C  pz              132      1.426995   6 H  s         
   115     -1.405159   4 C  d  0            107     -1.357005   4 C  pz        
 
 Vector   57  Occ=0.000000D+00  E= 9.887802D-01
              MO Center=  4.1D-01,  3.9D-01, -2.2D-01, r^2= 4.2D+00
   Bfn.  Coefficient  Atom+Function         Bfn.  Coefficient  Atom+Function  
  ----- ------------  ---------------      ----- ------------  ---------------
    36      7.683693   2 C  s                98     -4.637882   4 C  s         
    67     -4.361026   3 C  s                45     -3.779440   2 C  pz        
    43     -2.392528   2 C  px               44      2.362399   2 C  py        
    66     -1.643368   3 C  s               127      1.614197   5 H  s         
    75      1.518206   3 C  py               35     -1.481089   2 C  s         
 
 Vector   58  Occ=0.000000D+00  E= 1.011021D+00
              MO Center=  3.4D-01,  6.0D-01, -3.0D-02, r^2= 4.2D+00
   Bfn.  Coefficient  Atom+Function         Bfn.  Coefficient  Atom+Function  
  ----- ------------  ---------------      ----- ------------  ---------------
    36      5.208525   2 C  s                67     -4.431276   3 C  s         
    45     -2.027136   2 C  pz               44      1.848649   2 C  py        
   156     -1.449286  10 H  s                98     -1.426175   4 C  s         
    82      1.396882   3 C  d -2             74     -1.375429   3 C  px        
    41      1.296711   2 C  py               76      1.250364   3 C  pz        
 
 Vector   59  Occ=0.000000D+00  E= 1.040985D+00
              MO Center=  7.0D-01, -1.7D-01, -4.8D-01, r^2= 4.2D+00
   Bfn.  Coefficient  Atom+Function         Bfn.  Coefficient  Atom+Function  
  ----- ------------  ---------------      ----- ------------  ---------------
    35      2.771086   2 C  s                66     -2.137946   3 C  s         
   144     -1.989251   8 H  s               150      1.912501   9 H  s         
     5     -1.807746   1 O  s                36      1.747326   2 C  s         
   117      1.729820   4 C  d  2             41      1.405988   2 C  py        
    72      1.122754   3 C  py               44      1.055987   2 C  py        
 
 Vector   60  Occ=0.000000D+00  E= 1.078734D+00
              MO Center=  6.6D-01,  2.6D-02, -5.3D-02, r^2= 4.1D+00
   Bfn.  Coefficient  Atom+Function         Bfn.  Coefficient  Atom+Function  
  ----- ------------  ---------------      ----- ------------  ---------------
    66      4.122691   3 C  s                98     -3.873431   4 C  s         
    45     -3.600925   2 C  pz               97     -3.581242   4 C  s         
    36      2.998231   2 C  s                41     -2.619030   2 C  py        
   104     -2.475722   4 C  pz               72     -2.417534   3 C  py        
    42     -2.291512   2 C  pz               53      2.250138   2 C  d  0      
 
 Vector   61  Occ=0.000000D+00  E= 1.103542D+00
              MO Center=  3.6D-01,  4.8D-02,  5.9D-02, r^2= 3.7D+00
   Bfn.  Coefficient  Atom+Function         Bfn.  Coefficient  Atom+Function  
  ----- ------------  ---------------      ----- ------------  ---------------
    36      7.627162   2 C  s                67     -5.195750   3 C  s         
    98     -3.096452   4 C  s                66      2.104560   3 C  s         
    45     -2.062088   2 C  pz              126     -1.952644   5 H  s         
   132      1.623316   6 H  s                72     -1.577007   3 C  py        
    41     -1.485444   2 C  py               53      1.426002   2 C  d  0      
 
 Vector   62  Occ=0.000000D+00  E= 1.145177D+00
              MO Center=  6.2D-01,  2.9D-02, -2.5D-02, r^2= 3.6D+00
   Bfn.  Coefficient  Atom+Function         Bfn.  Coefficient  Atom+Function  
  ----- ------------  ---------------      ----- ------------  ---------------
    67      5.264514   3 C  s                36     -4.129804   2 C  s         
    44     -2.399841   2 C  py              126      1.908211   5 H  s         
    97     -1.636460   4 C  s                43      1.541733   2 C  px        
    54      1.546150   2 C  d  1             55      1.463737   2 C  d  2      
    75     -1.460110   3 C  py              132     -1.415719   6 H  s         
 
 Vector   63  Occ=0.000000D+00  E= 1.215389D+00
              MO Center=  5.5D-01,  2.1D-01, -1.4D-01, r^2= 3.8D+00
   Bfn.  Coefficient  Atom+Function         Bfn.  Coefficient  Atom+Function  
  ----- ------------  ---------------      ----- ------------  ---------------
    36      7.010746   2 C  s                66     -4.910255   3 C  s         
    67     -3.504553   3 C  s                97     -3.292825   4 C  s         
    35      2.976564   2 C  s                72      1.864933   3 C  py        
    51     -1.747593   2 C  d -2            138      1.712184   7 H  s         
    52      1.665382   2 C  d -1             41      1.484781   2 C  py        
 
 Vector   64  Occ=0.000000D+00  E= 1.346818D+00
              MO Center=  3.5D-01,  5.4D-01,  2.2D-01, r^2= 3.5D+00
   Bfn.  Coefficient  Atom+Function         Bfn.  Coefficient  Atom+Function  
  ----- ------------  ---------------      ----- ------------  ---------------
    66      4.708931   3 C  s                35      3.874649   2 C  s         
    67     -3.089504   3 C  s                36     -2.693085   2 C  s         
    65     -2.401942   3 C  s               132     -2.005494   6 H  s         
    34     -1.452836   2 C  s               133      1.414188   6 H  s         
    72      1.326721   3 C  py              139      1.086855   7 H  s         
 
 Vector   65  Occ=0.000000D+00  E= 1.416716D+00
              MO Center=  1.4D-01,  5.4D-01, -5.6D-02, r^2= 3.4D+00
   Bfn.  Coefficient  Atom+Function         Bfn.  Coefficient  Atom+Function  
  ----- ------------  ---------------      ----- ------------  ---------------
    36      3.980344   2 C  s                66      3.770035   3 C  s         
    67     -3.599014   3 C  s                35     -3.577464   2 C  s         
    73     -2.351927   3 C  pz              138     -2.284234   7 H  s         
   139      2.226686   7 H  s               126      1.770042   5 H  s         
    76      1.709985   3 C  pz               65     -1.540890   3 C  s         
 
 Vector   66  Occ=0.000000D+00  E= 1.432498D+00
              MO Center=  1.1D+00, -4.6D-01, -1.1D+00, r^2= 3.6D+00
   Bfn.  Coefficient  Atom+Function         Bfn.  Coefficient  Atom+Function  
  ----- ------------  ---------------      ----- ------------  ---------------
    98      9.953064   4 C  s                97     -7.577675   4 C  s         
    96      3.062184   4 C  s                36     -2.497569   2 C  s         
   145     -2.417401   8 H  s               151     -2.277392   9 H  s         
   157     -2.074664  10 H  s               144      1.715070   8 H  s         
   150      1.615250   9 H  s               104      1.445159   4 C  pz        
 
 Vector   67  Occ=0.000000D+00  E= 1.442894D+00
              MO Center=  3.5D-01, -7.4D-03, -3.7D-02, r^2= 4.2D+00
   Bfn.  Coefficient  Atom+Function         Bfn.  Coefficient  Atom+Function  
  ----- ------------  ---------------      ----- ------------  ---------------
    66      4.505129   3 C  s                98      3.860372   4 C  s         
    35     -3.326130   2 C  s                67     -3.033149   3 C  s         
    45      2.158769   2 C  pz              133      2.016585   6 H  s         
    97     -1.857111   4 C  s                76     -1.839503   3 C  pz        
   127     -1.797965   5 H  s                36      1.739238   2 C  s         
 
 Vector   68  Occ=0.000000D+00  E= 1.446068D+00
              MO Center=  3.4D-01, -2.4D-02, -1.8D-01, r^2= 3.1D+00
   Bfn.  Coefficient  Atom+Function         Bfn.  Coefficient  Atom+Function  
  ----- ------------  ---------------      ----- ------------  ---------------
    98      4.485531   4 C  s                36     -2.617761   2 C  s         
    97     -2.416577   4 C  s                 5      2.099858   1 O  s         
    45      1.861456   2 C  pz              127     -1.261292   5 H  s         
    35     -1.175910   2 C  s                44     -1.110525   2 C  py        
    67      1.084081   3 C  s                96      1.022713   4 C  s         
 
 Vector   69  Occ=0.000000D+00  E= 1.473283D+00
              MO Center=  9.6D-01, -2.7D-01, -9.9D-01, r^2= 3.4D+00
   Bfn.  Coefficient  Atom+Function         Bfn.  Coefficient  Atom+Function  
  ----- ------------  ---------------      ----- ------------  ---------------
    66      2.010031   3 C  s                36      1.407625   2 C  s         
    67     -1.284993   3 C  s                 5     -1.191000   1 O  s         
    98     -1.119611   4 C  s                97      1.017533   4 C  s         
   103      0.999901   4 C  py               71     -0.925285   3 C  px        
    65     -0.864823   3 C  s               133      0.806411   6 H  s         
 
 Vector   70  Occ=0.000000D+00  E= 1.478070D+00
              MO Center=  9.6D-01, -3.8D-01, -1.0D+00, r^2= 3.4D+00
   Bfn.  Coefficient  Atom+Function         Bfn.  Coefficient  Atom+Function  
  ----- ------------  ---------------      ----- ------------  ---------------
    36      2.712281   2 C  s               156     -2.713031  10 H  s         
   157      2.103422  10 H  s               102     -2.078635   4 C  px        
   104     -1.786213   4 C  pz              126      1.736625   5 H  s         
    66     -1.667000   3 C  s               103      1.664260   4 C  py        
    35     -1.365374   2 C  s               127     -1.319476   5 H  s         
 
 Vector   71  Occ=0.000000D+00  E= 1.510801D+00
              MO Center=  3.3D-01,  1.6D-01, -3.2D-01, r^2= 4.0D+00
   Bfn.  Coefficient  Atom+Function         Bfn.  Coefficient  Atom+Function  
  ----- ------------  ---------------      ----- ------------  ---------------
    98      2.745759   4 C  s               144      1.862206   8 H  s         
   102     -1.603591   4 C  px              145     -1.423046   8 H  s         
    45      1.282364   2 C  pz              103     -1.268817   4 C  py        
    97     -1.212474   4 C  s                36     -1.070719   2 C  s         
   150     -0.877864   9 H  s               106      0.770630   4 C  py        
 
 Vector   72  Occ=0.000000D+00  E= 1.541939D+00
              MO Center=  3.7D-01,  4.4D-01, -2.2D-01, r^2= 4.6D+00
   Bfn.  Coefficient  Atom+Function         Bfn.  Coefficient  Atom+Function  
  ----- ------------  ---------------      ----- ------------  ---------------
    36      4.327502   2 C  s                35     -3.663240   2 C  s         
    98     -3.536123   4 C  s                97      3.063002   4 C  s         
    67     -2.504283   3 C  s                73      2.129964   3 C  pz        
   132     -1.747197   6 H  s               133      1.437778   6 H  s         
   102     -1.356516   4 C  px              138      1.353623   7 H  s         
 
 Vector   73  Occ=0.000000D+00  E= 1.575790D+00
              MO Center=  4.9D-01, -2.5D-02, -8.8D-02, r^2= 3.3D+00
   Bfn.  Coefficient  Atom+Function         Bfn.  Coefficient  Atom+Function  
  ----- ------------  ---------------      ----- ------------  ---------------
    35      3.461884   2 C  s                36     -2.902128   2 C  s         
    40     -2.038152   2 C  px               97     -1.949315   4 C  s         
    67      1.906381   3 C  s               126      1.774269   5 H  s         
    72      1.489260   3 C  py               34     -1.449547   2 C  s         
    42     -1.444332   2 C  pz               98      1.427187   4 C  s         
 
 Vector   74  Occ=0.000000D+00  E= 1.599191D+00
              MO Center=  3.3D-01,  4.0D-01, -1.3D-01, r^2= 3.4D+00
   Bfn.  Coefficient  Atom+Function         Bfn.  Coefficient  Atom+Function  
  ----- ------------  ---------------      ----- ------------  ---------------
    36     -5.303046   2 C  s                66     -5.248208   3 C  s         
    35      5.200494   2 C  s                67      3.973101   3 C  s         
    41      3.708996   2 C  py               71     -2.574626   3 C  px        
    72      2.371079   3 C  py               40     -2.015579   2 C  px        
    98      1.837469   4 C  s                82      1.691613   3 C  d -2      
 
 Vector   75  Occ=0.000000D+00  E= 1.640899D+00
              MO Center=  4.8D-01,  1.6D-01, -2.9D-02, r^2= 3.7D+00
   Bfn.  Coefficient  Atom+Function         Bfn.  Coefficient  Atom+Function  
  ----- ------------  ---------------      ----- ------------  ---------------
    66      2.675753   3 C  s                35      1.943131   2 C  s         
    98      1.873099   4 C  s                 5     -1.613237   1 O  s         
    67     -1.460831   3 C  s                97     -1.330193   4 C  s         
   144      1.122919   8 H  s               150     -1.127959   9 H  s         
   103     -1.081334   4 C  py              104     -0.980027   4 C  pz        
 
 Vector   76  Occ=0.000000D+00  E= 1.694089D+00
              MO Center=  5.5D-01,  1.6D-01, -4.1D-01, r^2= 3.8D+00
   Bfn.  Coefficient  Atom+Function         Bfn.  Coefficient  Atom+Function  
  ----- ------------  ---------------      ----- ------------  ---------------
    97     -5.597195   4 C  s                35      5.113113   2 C  s         
   104     -2.930007   4 C  pz               42     -2.849927   2 C  pz        
   102      1.762657   4 C  px               40      1.616727   2 C  px        
    34     -1.546609   2 C  s                96      1.551016   4 C  s         
    72     -1.482944   3 C  py               66     -1.234715   3 C  s         
 
 Vector   77  Occ=0.000000D+00  E= 1.701427D+00
              MO Center= -2.7D-02,  2.4D-01, -8.0D-02, r^2= 3.7D+00
   Bfn.  Coefficient  Atom+Function         Bfn.  Coefficient  Atom+Function  
  ----- ------------  ---------------      ----- ------------  ---------------
     5      3.848502   1 O  s                72      3.220897   3 C  py        
    36     -2.446572   2 C  s                66     -2.144367   3 C  s         
   138     -1.808363   7 H  s                97      1.546909   4 C  s         
    12      1.485203   1 O  px               41      1.466781   2 C  py        
    42      1.298639   2 C  pz               43      1.238310   2 C  px        
 
 Vector   78  Occ=0.000000D+00  E= 1.785964D+00
              MO Center=  4.1D-01,  2.6D-01, -3.3D-03, r^2= 3.5D+00
   Bfn.  Coefficient  Atom+Function         Bfn.  Coefficient  Atom+Function  
  ----- ------------  ---------------      ----- ------------  ---------------
    97     -2.667241   4 C  s                35      2.589205   2 C  s         
    36      1.685674   2 C  s                45     -1.245567   2 C  pz        
   104     -1.107569   4 C  pz               67     -1.092858   3 C  s         
    42     -1.060897   2 C  pz              102      0.949313   4 C  px        
    96      0.878715   4 C  s               103     -0.857064   4 C  py        
 
 Vector   79  Occ=0.000000D+00  E= 1.815114D+00
              MO Center= -6.4D-01,  1.8D-01,  1.9D-01, r^2= 2.5D+00
   Bfn.  Coefficient  Atom+Function         Bfn.  Coefficient  Atom+Function  
  ----- ------------  ---------------      ----- ------------  ---------------
    35      4.252728   2 C  s                 5     -3.363038   1 O  s         
    40     -2.475013   2 C  px               41      2.118526   2 C  py        
    72      2.031914   3 C  py               66     -1.824343   3 C  s         
    71     -1.661367   3 C  px               12     -1.401776   1 O  px        
   132     -1.058807   6 H  s               138     -1.050020   7 H  s         
 
 Vector   80  Occ=0.000000D+00  E= 1.843240D+00
              MO Center=  1.8D-02,  3.0D-01, -1.5D-02, r^2= 3.6D+00
   Bfn.  Coefficient  Atom+Function         Bfn.  Coefficient  Atom+Function  
  ----- ------------  ---------------      ----- ------------  ---------------
    36      1.327937   2 C  s                66     -1.189648   3 C  s         
    35     -0.928948   2 C  s               156      0.887420  10 H  s         
    41      0.882923   2 C  py               67     -0.832855   3 C  s         
     5      0.693953   1 O  s               157     -0.609814  10 H  s         
   104      0.602734   4 C  pz              126      0.578241   5 H  s         
 
 Vector   81  Occ=0.000000D+00  E= 1.866425D+00
              MO Center=  5.7D-01,  1.3D-01, -4.9D-01, r^2= 4.0D+00
   Bfn.  Coefficient  Atom+Function         Bfn.  Coefficient  Atom+Function  
  ----- ------------  ---------------      ----- ------------  ---------------
    35      6.647804   2 C  s                66     -4.218016   3 C  s         
    72      3.433492   3 C  py               97     -3.359866   4 C  s         
    36      2.011578   2 C  s               104     -1.933946   4 C  pz        
    34     -1.646677   2 C  s                67     -1.504245   3 C  s         
    41      1.448676   2 C  py               45     -1.391607   2 C  pz        
 
 Vector   82  Occ=0.000000D+00  E= 1.918379D+00
              MO Center=  3.2D-01, -1.4D-01, -3.2D-01, r^2= 3.2D+00
   Bfn.  Coefficient  Atom+Function         Bfn.  Coefficient  Atom+Function  
  ----- ------------  ---------------      ----- ------------  ---------------
    36      1.317834   2 C  s                98     -1.250140   4 C  s         
   103     -1.224008   4 C  py               45     -1.214655   2 C  pz        
    97     -1.143110   4 C  s                35      1.043841   2 C  s         
    66     -0.922663   3 C  s                41      0.812516   2 C  py        
   150     -0.785829   9 H  s                42     -0.749251   2 C  pz        
 
 Vector   83  Occ=0.000000D+00  E= 1.988291D+00
              MO Center=  6.2D-01, -7.1D-02, -1.5D-01, r^2= 3.2D+00
   Bfn.  Coefficient  Atom+Function         Bfn.  Coefficient  Atom+Function  
  ----- ------------  ---------------      ----- ------------  ---------------
    35      2.306020   2 C  s                40     -2.259411   2 C  px        
    66     -2.200352   3 C  s                98      1.864969   4 C  s         
    67     -1.830311   3 C  s                72      1.640546   3 C  py        
    43     -1.485787   2 C  px               41      1.436634   2 C  py        
    71     -1.356675   3 C  px               44      1.265345   2 C  py        
 
 Vector   84  Occ=0.000000D+00  E= 1.994631D+00
              MO Center=  8.4D-01, -2.6D-01, -9.6D-01, r^2= 3.4D+00
   Bfn.  Coefficient  Atom+Function         Bfn.  Coefficient  Atom+Function  
  ----- ------------  ---------------      ----- ------------  ---------------
    98     -4.866088   4 C  s                36      4.536892   2 C  s         
    35     -2.999691   2 C  s                45     -1.993243   2 C  pz        
    66      1.452262   3 C  s               107     -1.357172   4 C  pz        
   156      1.255242  10 H  s                34      1.084366   2 C  s         
   104      1.016220   4 C  pz               67     -0.937026   3 C  s         
 
 Vector   85  Occ=0.000000D+00  E= 2.088350D+00
              MO Center= -2.6D-02,  1.9D-01, -2.5D-02, r^2= 3.5D+00
   Bfn.  Coefficient  Atom+Function         Bfn.  Coefficient  Atom+Function  
  ----- ------------  ---------------      ----- ------------  ---------------
    98      2.105127   4 C  s                36     -1.778558   2 C  s         
   156     -0.787969  10 H  s               138      0.739219   7 H  s         
    41     -0.664981   2 C  py               14      0.645894   1 O  pz        
    45      0.547849   2 C  pz               40      0.544009   2 C  px        
   150     -0.537666   9 H  s               144     -0.515770   8 H  s         
 
 Vector   86  Occ=0.000000D+00  E= 2.096741D+00
              MO Center= -3.8D-01,  6.9D-02,  6.4D-02, r^2= 2.9D+00
   Bfn.  Coefficient  Atom+Function         Bfn.  Coefficient  Atom+Function  
  ----- ------------  ---------------      ----- ------------  ---------------
    36      5.970077   2 C  s                67     -5.573139   3 C  s         
    35     -3.404496   2 C  s                66      3.322896   3 C  s         
    41     -3.035213   2 C  py               71      2.762465   3 C  px        
    13      1.879491   1 O  py               82     -1.469153   3 C  d -2      
    55      1.350229   2 C  d  2             43     -1.322599   2 C  px        
 
 Vector   87  Occ=0.000000D+00  E= 2.163531D+00
              MO Center=  5.2D-01, -1.9D-02, -4.9D-01, r^2= 3.3D+00
   Bfn.  Coefficient  Atom+Function         Bfn.  Coefficient  Atom+Function  
  ----- ------------  ---------------      ----- ------------  ---------------
    98      2.228208   4 C  s                67     -1.852915   3 C  s         
    35     -1.297081   2 C  s                73      1.042649   3 C  pz        
   156     -0.907768  10 H  s                36      0.866821   2 C  s         
    44      0.845628   2 C  py               43     -0.834519   2 C  px        
    40      0.828580   2 C  px               42     -0.776786   2 C  pz        
 
 Vector   88  Occ=0.000000D+00  E= 2.200214D+00
              MO Center=  4.0D-01,  1.5D-01, -2.9D-01, r^2= 3.6D+00
   Bfn.  Coefficient  Atom+Function         Bfn.  Coefficient  Atom+Function  
  ----- ------------  ---------------      ----- ------------  ---------------
    98      2.109657   4 C  s                36     -1.515339   2 C  s         
    45      1.085614   2 C  pz               76     -0.953200   3 C  pz        
   132      0.809476   6 H  s                42     -0.708538   2 C  pz        
   117     -0.682476   4 C  d  2            103     -0.676998   4 C  py        
    97     -0.627692   4 C  s               138     -0.614935   7 H  s         
 
 Vector   89  Occ=0.000000D+00  E= 2.229424D+00
              MO Center=  6.4D-01,  1.7D-02, -5.4D-02, r^2= 3.5D+00
   Bfn.  Coefficient  Atom+Function         Bfn.  Coefficient  Atom+Function  
  ----- ------------  ---------------      ----- ------------  ---------------
    36      3.081012   2 C  s                67     -1.670897   3 C  s         
     5     -1.172701   1 O  s                98     -1.154875   4 C  s         
    42     -1.080329   2 C  pz               72     -0.897512   3 C  py        
   102      0.742268   4 C  px               66      0.711186   3 C  s         
    43     -0.706508   2 C  px               45     -0.668486   2 C  pz        
 
 Vector   90  Occ=0.000000D+00  E= 2.244022D+00
              MO Center=  8.0D-01, -2.9D-01, -8.5D-01, r^2= 3.5D+00
   Bfn.  Coefficient  Atom+Function         Bfn.  Coefficient  Atom+Function  
  ----- ------------  ---------------      ----- ------------  ---------------
    36      1.295312   2 C  s               150      1.300169   9 H  s         
    67     -1.007546   3 C  s               144     -0.939117   8 H  s         
   117      0.738470   4 C  d  2             98     -0.659884   4 C  s         
    72      0.637960   3 C  py               66     -0.628092   3 C  s         
   149     -0.523866   9 H  s                83      0.516957   3 C  d -1      
 
 Vector   91  Occ=0.000000D+00  E= 2.263954D+00
              MO Center=  8.6D-01, -1.7D-01, -9.9D-01, r^2= 3.2D+00
   Bfn.  Coefficient  Atom+Function         Bfn.  Coefficient  Atom+Function  
  ----- ------------  ---------------      ----- ------------  ---------------
    36      2.001422   2 C  s                66      1.949551   3 C  s         
    98     -1.387695   4 C  s                41     -1.364635   2 C  py        
    67     -1.280473   3 C  s                35     -1.160799   2 C  s         
    72     -0.873660   3 C  py              156      0.854526  10 H  s         
    76      0.820817   3 C  pz              126     -0.815945   5 H  s         
 
 Vector   92  Occ=0.000000D+00  E= 2.283201D+00
              MO Center=  5.9D-01,  4.7D-02, -2.8D-01, r^2= 3.7D+00
   Bfn.  Coefficient  Atom+Function         Bfn.  Coefficient  Atom+Function  
  ----- ------------  ---------------      ----- ------------  ---------------
    98      3.761250   4 C  s                66      2.699947   3 C  s         
[...]
    21     -0.863638   1 O  d -1             42     -0.805428   2 C  pz        
    45     -0.716726   2 C  pz               97     -0.717661   4 C  s         
    98     -0.539689   4 C  s                67     -0.504941   3 C  s         
    83     -0.505024   3 C  d -1            102      0.484180   4 C  px        
 
 Vector  154  Occ=0.000000D+00  E= 6.675835D+00
              MO Center= -8.7D-01, -1.8D-01,  2.0D-01, r^2= 5.7D-01
   Bfn.  Coefficient  Atom+Function         Bfn.  Coefficient  Atom+Function  
  ----- ------------  ---------------      ----- ------------  ---------------
    18      1.065256   1 O  d  1             23     -1.036374   1 O  d  1      
    97     -0.867514   4 C  s                42     -0.776509   2 C  pz        
    35      0.751457   2 C  s               102      0.637686   4 C  px        
    54     -0.548810   2 C  d  1             14      0.406499   1 O  pz        
    45     -0.407454   2 C  pz               16     -0.391819   1 O  d -1      
 
 Vector  155  Occ=0.000000D+00  E= 6.841547D+00
              MO Center= -8.8D-01, -1.9D-01,  2.0D-01, r^2= 5.9D-01
   Bfn.  Coefficient  Atom+Function         Bfn.  Coefficient  Atom+Function  
  ----- ------------  ---------------      ----- ------------  ---------------
     5      2.132263   1 O  s                40      1.761567   2 C  px        
     9      1.360894   1 O  px               97     -1.237316   4 C  s         
     4      1.195980   1 O  s                20      1.049091   1 O  d -2      
    42     -0.938780   2 C  pz               35     -0.901198   2 C  s         
    12      0.852712   1 O  px               15     -0.836063   1 O  d -2      
 
 Vector  156  Occ=0.000000D+00  E= 7.056215D+00
              MO Center= -8.9D-01, -1.9D-01,  2.0D-01, r^2= 6.4D-01
   Bfn.  Coefficient  Atom+Function         Bfn.  Coefficient  Atom+Function  
  ----- ------------  ---------------      ----- ------------  ---------------
    66     -3.181738   3 C  s                35      3.039169   2 C  s         
    40     -2.719386   2 C  px               72      2.704052   3 C  py        
    24     -1.580528   1 O  d  2             36      1.423235   2 C  s         
    10      1.283023   1 O  py               67     -1.274157   3 C  s         
    19      1.018834   1 O  d  2             13      0.863331   1 O  py        
 
 Vector  157  Occ=0.000000D+00  E= 2.193445D+01
              MO Center=  5.9D-02,  8.0D-01,  7.0D-02, r^2= 1.2D+00
   Bfn.  Coefficient  Atom+Function         Bfn.  Coefficient  Atom+Function  
  ----- ------------  ---------------      ----- ------------  ---------------
    64      1.592180   3 C  s                65     -1.363601   3 C  s         
    63     -1.255052   3 C  s                67     -1.242910   3 C  s         
    98      1.040967   4 C  s                95     -0.724775   4 C  s         
    96      0.596490   4 C  s                94      0.573591   4 C  s         
    35      0.512344   2 C  s                40     -0.446632   2 C  px        
 
 Vector  158  Occ=0.000000D+00  E= 2.197731D+01
              MO Center=  9.1D-01, -2.8D-01, -7.5D-01, r^2= 1.1D+00
   Bfn.  Coefficient  Atom+Function         Bfn.  Coefficient  Atom+Function  
  ----- ------------  ---------------      ----- ------------  ---------------
    95      1.450055   4 C  s                96     -1.336108   4 C  s         
    98     -1.172565   4 C  s                94     -1.141216   4 C  s         
    34     -0.937348   2 C  s                36     -0.925253   2 C  s         
    33      0.865765   2 C  s                32     -0.676732   2 C  s         
    67      0.622831   3 C  s                65     -0.597930   3 C  s         
 
 Vector  159  Occ=0.000000D+00  E= 2.208827D+01
              MO Center=  6.0D-01, -1.0D-01, -6.2D-02, r^2= 7.1D-01
   Bfn.  Coefficient  Atom+Function         Bfn.  Coefficient  Atom+Function  
  ----- ------------  ---------------      ----- ------------  ---------------
    36      2.170118   2 C  s                33     -1.538255   2 C  s         
    34      1.530355   2 C  s                35     -1.389189   2 C  s         
    98     -1.262529   4 C  s                32      1.205341   2 C  s         
    67     -1.166742   3 C  s                97      0.725731   4 C  s         
    95      0.705542   4 C  s                96     -0.645525   4 C  s         
 
 Vector  160  Occ=0.000000D+00  E= 4.341073D+01
              MO Center= -8.8D-01, -1.8D-01,  2.1D-01, r^2= 1.2D-01
   Bfn.  Coefficient  Atom+Function         Bfn.  Coefficient  Atom+Function  
  ----- ------------  ---------------      ----- ------------  ---------------
     4      2.493945   1 O  s                 3     -1.871159   1 O  s         
     2      1.731274   1 O  s                 1     -1.395800   1 O  s         
     5     -0.878762   1 O  s                36      0.820249   2 C  s         
     9      0.555099   1 O  px               66     -0.498531   3 C  s         
    40      0.453405   2 C  px               72      0.449874   3 C  py        
 

 center of mass
 --------------
 x =   0.30619318 y =   0.09486548 z =  -0.27792439

 moments of inertia (a.u.)
 ------------------
         200.764627748215          45.653887425785          83.729175621032
          45.653887425785         248.342941755046         -52.411551051661
          83.729175621032         -52.411551051661         239.224331360158
 
     Multipole analysis of the density
     ---------------------------------
 
     L   x y z        total         alpha         beta         nuclear
     -   - - -        -----         -----         ----         -------
     0   0 0 0     -0.000000    -16.000000    -16.000000     32.000000
 
     1   1 0 0      0.690917     -6.228148     -6.228148     13.147213
     1   0 1 0      0.326370     -1.610528     -1.610528      3.547426
     1   0 0 1     -0.056109      5.318840      5.318840    -10.693789
 
     2   2 0 0    -20.067937    -54.362288    -54.362288     88.656638
     2   1 1 0     -1.125502     13.909096     13.909096    -28.943694
     2   1 0 1      0.181424     26.497442     26.497442    -52.813461
     2   0 2 0    -17.808348    -40.590106    -40.590106     63.371863
     2   0 1 1      0.194674    -15.353555    -15.353555     30.901783
     2   0 0 2    -18.190098    -45.865453    -45.865453     73.540807
 
 *** CALLING NEW AORESP DRIVER FOR CLOSED AND OPEN SHELLS ***
 Entering AOResponse driver routine


--------------------------------------------------------------------------------

          ****************
          *** RESPONSE ***
          ****************

 Response module for NWChem and dynamic CPKS solver
 developed by J. Autschbach and coworkers, SUNY Buffalo
 The methodology used in this program is described in 
 ChemPhysChem 12 (2011), 3224-3235 (main reference)
 J. Chem. Phys. 123 (2005), 114103
 J. Chem. Phys. 122 (2005), 224115
 J. Chem. Phys. 122 (2005), 074105
 Comp. Lett. 3 (2007), 131-150 (contact JA for a copy)
 Please cite this work in publications based on results
 obtained with this code. Thank you!

 For extension of response module to open shell
 calculations please acknowledge:
 F. Aquino, Northwestern University, Schatz Rsrch Group
 The update to the methodology is described in
 J. Phys. Chem. A 118 (2014) 517-525



          -----------------------------------------------
          Solving response equations for perturbing field
          -----------------------------------------------

 number of frequencies:     1
 frequency in a.u.:  0.9319600E-01
 Perturbing field: electric
 Using GIAO formalism for OptRot
 Adding quadrupole terms to OptRot
 to create an origin in dependent tensor.
 Using El. Dipole Length Gauge
 
 Applying DAMPING constant of  0.003700 a.u.
 
 Setting up CPKS
 with frequency omega =      0.09319600 a.u.
 and a damping of            0.00370000 a.u.

 
                            NWChem Dynamic CPHF Module
                            --------------------------
 
 
    scftype = RHF 
    nclosed =   16
      nopen =    0
  variables =     9216
  num. vecs =        3
  tolerance =   1.0D-07
  max. iter =  100

 SCF residual:   4.955395390847518E-006


Iterative solution of linear equations
  No. of variables     4608
  No. of equations        3
  Maximum subspace       99
       Convergence  1.0D-07
        Start time    101.0


   iter   nsub   residual    time 
   ----  ------  --------  --------- 
 dft_CPHF2_read: failed to open
 ./methyloxirane_blyp-def2-tzvp_488.9_12.inp.aoresp_fiao_f1
     1      3    4.04D+00     153.1
     2      6    2.64D+00     205.4
     3      9    2.44D-01     257.6
     4     12    5.19D-02     309.9
     5     15    1.02D-02     362.2
     6     18    1.33D-03     414.5
     7     21    1.50D-04     466.8
     8     24    1.39D-05     519.1
     9     27    1.36D-06     571.4
    10     30    4.89D-07     623.7
    11     33    1.86D-08     676.0

 Calculating some arrays needed for GIAO optical rotation

    0 giaofock schwarz done =      92.01%
    0 giaofock schwarz done =      92.01%
 aor_r1_tensor_giao: roadata output requested
 dip-quad polarizability Re:

              1        2        3        4        5        6      
    1   77.4370  -6.2939 -27.6970  -4.3720   1.3426   9.1376
    2  -11.7813  25.7773   3.3758  23.5934 -21.5887   4.0028
    3   -6.8105   1.2315  39.4429  -0.1901  13.8016 -41.0752
 traceless dip-quad polarizability:

              1        2        3      
    1   75.0541  -9.4409 -41.5456
    2   -9.4409 -47.6593   2.0140
    3  -41.5456   2.0140 -27.3949

              1        2        3      
    1  -25.5794  38.6660   5.0637
    2   38.6660  27.4827 -32.3830
    3    5.0637 -32.3830  -1.9033

              1        2        3      
    1   13.8222   1.8473  59.1643
    2    1.8473  23.7527  20.7024
    3   59.1643  20.7024 -37.5749

 roa begin

 alpha real:
 XX       0.4104463306434E+02
 XY      -0.5175981132855E+01
 XZ      -0.3052775936731E+01
 YX      -0.5175981144500E+01
 YY       0.4414191224279E+02
 YZ       0.3131039967870E+01
 ZX      -0.3052775949598E+01
 ZY       0.3131039965909E+01
 ZZ       0.4152739899394E+02

 alpha im:
 XX       0.1115460041305E+00
 XY      -0.2990798511592E-01
 XZ      -0.1163724373260E-01
 YX      -0.2990797809313E-01
 YY       0.1294290135976E+00
 YZ       0.1857716919647E-01
 ZX      -0.1163724029476E-01
 ZY       0.1857717134054E-01
 ZZ       0.1229448367074E+00

 beta real:
 XX      -0.1513182467199E+00
 XY       0.9335101974981E+00
 XZ       0.2057057355339E+00
 YX      -0.8886003780817E+00
 YY       0.1491606251205E+00
 YZ      -0.1545315950736E+01
 ZX      -0.4852546011162E+00
 ZY       0.1884312635501E+01
 ZZ       0.1993363024748E-02

 G-prime = -omega beta(real):
 XX      -0.1513182467199E+00
 XY       0.9335101974981E+00
 XZ       0.2057057355339E+00
 YX      -0.8886003780817E+00
 YY       0.1491606251205E+00
 YZ      -0.1545315950736E+01
 ZX      -0.4852546011162E+00
 ZY       0.1884312635501E+01
 ZZ       0.1993363024748E-02

 beta im:
 XX      -0.6475746681061E-02
 XY       0.1300486034042E-01
 XZ       0.2967504158848E-02
 YX      -0.7621712505364E-02
 YY       0.4951742622734E-02
 YZ      -0.2340326056152E-01
 ZX      -0.1388237723562E-01
 ZY       0.4054701856411E-01
 ZZ       0.7580736959690E-03

 G-prime = -omega beta(imag):
 XX      -0.6475746681061E-02
 XY       0.1300486034042E-01
 XZ       0.2967504158848E-02
 YX      -0.7621712505364E-02
 YY       0.4951742622734E-02
 YZ      -0.2340326056152E-01
 ZX      -0.1388237723562E-01
 ZY       0.4054701856411E-01
 ZZ       0.7580736959690E-03

 dipole-quadrupole real (Cartesian):
 XXX      0.7743695397831E+02
 XXY     -0.6293924832241E+01
 XXZ     -0.2769704972353E+02
 XYY     -0.4371974432297E+01
 XYZ      0.1342640801327E+01
 XZZ      0.9137601322692E+01
 YXX     -0.1178131595944E+02
 YXY      0.2577732560063E+02
 YXZ      0.3375783707351E+01
 YYY      0.2359341341061E+02
 YYZ     -0.2158867785004E+02
 YZZ      0.4002760079126E+01
 ZXX     -0.6810501647219E+01
 ZXY      0.1231544055046E+01
 ZXZ      0.3944285566947E+02
 ZYY     -0.1901217257280E+00
 ZYZ      0.1380161864776E+02
 ZZZ     -0.4107522014234E+02

 dipole-quadrupole imag (Cartesian):
 XXX      0.2723612204272E+00
 XXY     -0.3529914143398E-01
 XXZ     -0.7794061720052E-01
 XYY     -0.2830290711970E-01
 XYZ      0.2989164778466E-02
 XZZ      0.6161943830031E-01
 YXX     -0.5689782926308E-01
 YXY      0.6293559328193E-01
 YXZ      0.1957170992927E-01
 YYY      0.9332450061691E-01
 YYZ     -0.6071409096416E-01
 YZZ      0.9079190252048E-02
 ZXX     -0.3577981957355E-01
 ZXY      0.1059644841154E-02
 ZXZ      0.1464179096239E+00
 ZYY      0.5169577481362E-02
 ZYZ      0.6586067131271E-01
 ZZZ     -0.9464025637478E-01

 dipole-quadrupole (traceless):
 XXX      0.7505414053311E+02
 XXY     -0.9440887248361E+01
 XXZ     -0.4154557458529E+02
 XYY     -0.4765925208280E+02
 XYZ      0.2013961201991E+01
 XZZ     -0.2739488845031E+02
 YXX     -0.2557940270431E+02
 YXY      0.3866598840094E+02
 YXZ      0.5063675561027E+01
 YYY      0.2748269135077E+02
 YYZ     -0.3238301677506E+02
 YZZ     -0.1903288646463E+01
 ZXX      0.1382216928681E+02
 ZXY      0.1847316082569E+01
 ZXZ      0.5916428350420E+02
 ZYY      0.2375273916905E+02
 ZYZ      0.2070242797163E+02
 ZZZ     -0.3757490845587E+02

 roa end


 Electric Dipole Response Matrix (nonzero elements):

              1        2        3      
    1   41.0446  -5.1760  -3.0528
    2   -5.1760  44.1419   3.1310
    3   -3.0528   3.1310  41.5274
 
 Imaginary part:

              1        2        3      
    1    0.1115  -0.0299  -0.0116
    2   -0.0299   0.1294   0.0186
    3   -0.0116   0.0186   0.1229

 ------------------------------------------
 average:        42.23798 + I       0.12131


 DFT Linear Response polarizability / au 
 Frequency  =       0.0931960 / au
 Wavelength =     488.8981609 / nm
              X              Y              Z
 -----------------------------------------------
 X      41.0446331     -5.1759811     -3.0527759
 Y      -5.1759811     44.1419122      3.1310400
 Z      -3.0527759      3.1310400     41.5273990
 -----------------------------------------------
 Eigenvalues =      37.0683820     50.1750745     39.4704877
 Isotropic   =      42.2379814
 Anisotropic =       9.8681926
 -----------------------------------------------
 *************************

 DFT Linear Response IMAG polarizability / au 
 Frequency  =       0.0931960 / au
 Wavelength =     488.8981609 / nm
              X              Y              Z
 -----------------------------------------------
 X       0.1115460     -0.0299080     -0.0116372
 Y      -0.0299080      0.1294290      0.0185772
 Z      -0.0116372      0.0185772      0.1229448
 -----------------------------------------------
 Eigenvalues =       0.0891527      0.1634907      0.1112765
 Isotropic   =       0.1213066
 Anisotropic =       0.0539812
 -----------------------------------------------
 *************************

 Magnetic Dipole Response Matrix (nonzero elements):
 Optical rotation tensor Beta
 (Buckingham-Dunn version including dipole-quadrupole terms)

              1        2        3      
    1    2.6958  -0.3689   0.4219
    2   -0.3689  -1.6561  -1.7797
    3    0.4219  -1.7797  -1.0380
 
 Imaginary part:

              1        2        3      
    1    0.0695  -0.1395  -0.0318
    2    0.0818  -0.0531   0.2511
    3    0.1490  -0.4351  -0.0081

 ------------------------------------------
 average:         0.00059 + I       0.00274

 Principal components and PAS (Real part)
                 -3.15340
                  2.82835
                  0.32681
 ------------------------
 average:         0.00059

              1        2        3      
    1    0.0019   0.9731  -0.2302
    2    0.7654  -0.1495  -0.6260
    3    0.6436   0.1750   0.7451

 Chiral response tensor (Real part):

              1        2        3      
    1   -1.3470   0.1845  -0.2110
    2    0.1845   0.8289   0.8899
    3   -0.2110   0.8899   0.5199
 
 Principal components and PAS (Real part)
                  1.57758
                 -1.41329
                 -0.16252
 ------------------------
 average:         0.00059

              1        2        3      
    1    0.0019   0.9731  -0.2302
    2    0.7654  -0.1495  -0.6260
    3    0.6436   0.1750   0.7451
 Exiting AOResponse driver routine

 Task  times  cpu:      656.2s     wall:      664.2s
 
 
                                NWChem Input Module
                                -------------------
 
 
 Summary of allocated global arrays
-----------------------------------
  No active global arrays



                         GA Statistics for process    0
                         ------------------------------

       create   destroy   get      put      acc     scatter   gather  read&inc
calls: 3294     3294     6.40e+06 3.14e+06 6.91e+05 2694        0     1112     
number of processes/call 1.01e+00 1.03e+00 1.42e+00 0.00e+00 0.00e+00
bytes total:             1.53e+09 1.26e+08 1.64e+09 1.84e+02 0.00e+00 8.90e+03
bytes remote:            6.36e+08 3.29e+07 9.09e+08 0.00e+00 0.00e+00 0.00e+00
Max memory consumed for GA by this process: 11242192 bytes
 
MA_summarize_allocated_blocks: starting scan ...
MA_summarize_allocated_blocks: scan completed: 0 heap blocks, 0 stack blocks
MA usage statistics:

	allocation statistics:
					      heap	     stack
					      ----	     -----
	current number of blocks	         0	         0
	maximum number of blocks	        24	        52
	current total bytes		         0	         0
	maximum total bytes		   7519856	  47742120
	maximum total K-bytes		      7520	     47743
	maximum total M-bytes		         8	        48
 
 
                                     CITATION
                                     --------
                Please cite the following reference when publishing
                           results obtained with NWChem:
 
                 M. Valiev, E.J. Bylaska, N. Govind, K. Kowalski,
              T.P. Straatsma, H.J.J. van Dam, D. Wang, J. Nieplocha,
                        E. Apra, T.L. Windus, W.A. de Jong
                 "NWChem: a comprehensive and scalable open-source
                  solution for large scale molecular simulations"
                      Comput. Phys. Commun. 181, 1477 (2010)
                           doi:10.1016/j.cpc.2010.04.018
 
                                      AUTHORS
                                      -------
          E. Apra, E. J. Bylaska, W. A. de Jong, N. Govind, K. Kowalski,
       T. P. Straatsma, M. Valiev, H. J. J. van Dam, D. Wang, T. L. Windus,
        J. Hammond, J. Autschbach, K. Bhaskaran-Nair, J. Brabec, K. Lopata,
    S. A. Fischer, S. Krishnamoorthy, M. Jacquelin, W. Ma, M. Klemm, O. Villa,
      Y. Chen, V. Anisimov, F. Aquino, S. Hirata, M. T. Hackler, V. Konjkov,
            D. Mejia-Rodriguez, T. Risthaus, M. Malagoli, A. Marenich,
   A. Otero-de-la-Roza, J. Mullin, P. Nichols, R. Peverati, J. Pittner, Y. Zhao,
        P.-D. Fan, A. Fonari, M. J. Williamson, R. J. Harrison, J. R. Rehr,
      M. Dupuis, D. Silverstein, D. M. A. Smith, J. Nieplocha, V. Tipparaju,
    M. Krishnan, B. E. Van Kuiken, A. Vazquez-Mayagoitia, L. Jensen, M. Swart,
      Q. Wu, T. Van Voorhis, A. A. Auer, M. Nooijen, L. D. Crosby, E. Brown,
      G. Cisneros, G. I. Fann, H. Fruchtl, J. Garza, K. Hirao, R. A. Kendall,
      J. A. Nichols, K. Tsemekhman, K. Wolinski, J. Anchell, D. E. Bernholdt,
      P. Borowski, T. Clark, D. Clerc, H. Dachsel, M. J. O. Deegan, K. Dyall,
    D. Elwood, E. Glendening, M. Gutowski, A. C. Hess, J. Jaffe, B. G. Johnson,
     J. Ju, R. Kobayashi, R. Kutteh, Z. Lin, R. Littlefield, X. Long, B. Meng,
      T. Nakajima, S. Niu, L. Pollack, M. Rosing, K. Glaesemann, G. Sandrone,
      M. Stave, H. Taylor, G. Thomas, J. H. van Lenthe, A. T. Wong, Z. Zhang.

 Total times  cpu:      735.7s     wall:      744.8s
