 argument  1 = methyloxirane_blyp-def2-tzvp_488.9_44.inp
 


============================== echo of input deck ==============================
echo
start methyloxirane_blyp-def2-tzvp_488.9_44.inp
title "methyloxirane roa calculations at 488.9 nm, input generated in va  with delta_type=2"
charge 0



geometry units angstrom nocenter noautoz noautosym nucleus point;symmetry c1
 O -0.879137 -0.180241  0.205269
 C  0.574160 -0.157553  0.122250
 C -0.185901  1.090095  0.340352
 C  1.185496 -0.520551 -1.211344
 H  1.060603 -0.605762  1.001762
 H -0.227307  1.530173  1.316272
 H -0.322600  1.769549 -0.476587
 H  2.241297 -0.216239 -1.245692
 H  1.142561 -1.604933 -1.374065
 H  0.651101 -0.026630 -2.034328
end

basis spherical
* library def2-TZVP
end

 set prop:newaoresp 1
 set aor:roadata T
 set cphf:maxsub 100
 set cphf:acc 1.0d-10
 set cphf:maxiter 100

property
    response 1   0.093196
    bdtensor
    convergence 1e-7
    damping 0.0037
    giao
end

dft
 direct
 mult 1
 xc becke88 lyp
 iterations 250
 tolerances tight
 grid xfine
 convergence nolevelshifting
 convergence energy 1e-8
 convergence gradient 1e-7


end

task dft gradient
task dft property
================================================================================


                                         
                                         
 
 
              Northwest Computational Chemistry Package (NWChem) 6.8
              ------------------------------------------------------
 
 
                    Environmental Molecular Sciences Laboratory
                       Pacific Northwest National Laboratory
                                Richland, WA 99352
 
                              Copyright (c) 1994-2017
                       Pacific Northwest National Laboratory
                            Battelle Memorial Institute
 
             NWChem is an open-source computational chemistry package
                        distributed under the terms of the
                      Educational Community License (ECL) 2.0
             A copy of the license is included with this distribution
                              in the LICENSE.TXT file
 
                                  ACKNOWLEDGMENT
                                  --------------

            This software and its documentation were developed at the
            EMSL at Pacific Northwest National Laboratory, a multiprogram
            national laboratory, operated for the U.S. Department of Energy
            by Battelle under Contract Number DE-AC05-76RL01830. Support
            for this work was provided by the Department of Energy Office
            of Biological and Environmental Research, Office of Basic
            Energy Sciences, and the Office of Advanced Scientific Computing.


           Job information
           ---------------

    hostname        = cpn-d11-02.cbls.ccr.buffalo.edu
    program         = /util/academic/nwchem/nwchem-6.8/bin/LINUX64/nwchem
    date            = Fri Mar  1 10:48:32 2019

    compiled        = Tue_Nov_06_14:59:08_2018
    source          = /util/academic/nwchem/nwchem-6.8
    nwchem branch   = 6.8
    nwchem revision = v6.8-47-gdf6c956
    ga revision     = ga-5.6.3
    use scalapack   = F
    input           = methyloxirane_blyp-def2-tzvp_488.9_44.inp
    prefix          = methyloxirane_blyp-def2-tzvp_488.9_44.inp.
    data base       = ./methyloxirane_blyp-def2-tzvp_488.9_44.inp.db
    status          = startup
    nproc           =        7
    time left       =     -1s



           Memory information
           ------------------

    heap     =   13107196 doubles =    100.0 Mbytes
    stack    =   13107201 doubles =    100.0 Mbytes
    global   =   26214400 doubles =    200.0 Mbytes (distinct from heap & stack)
    total    =   52428797 doubles =    400.0 Mbytes
    verify   = yes
    hardfail = no 


           Directory information
           ---------------------
 
  0 permanent = .
  0 scratch   = .
 
 
 
 
                                NWChem Input Module
                                -------------------
 
 
                    methyloxirane roa calculations at 488.9 nm, input generated in va  with delta_type=2
                    ------------------------------------------

 Scaling coordinates for geometry "geometry" by  1.889725989
 (inverse scale =  0.529177249)

 
 
                             Geometry "geometry" -> ""
                             -------------------------
 
 Output coordinates in angstroms (scale by  1.889725989 to convert to a.u.)
 
  No.       Tag          Charge          X              Y              Z
 ---- ---------------- ---------- -------------- -------------- --------------
    1 O                    8.0000    -0.87913700    -0.18024100     0.20526900
    2 C                    6.0000     0.57416000    -0.15755300     0.12225000
    3 C                    6.0000    -0.18590100     1.09009500     0.34035200
    4 C                    6.0000     1.18549600    -0.52055100    -1.21134400
    5 H                    1.0000     1.06060300    -0.60576200     1.00176200
    6 H                    1.0000    -0.22730700     1.53017300     1.31627200
    7 H                    1.0000    -0.32260000     1.76954900    -0.47658700
    8 H                    1.0000     2.24129700    -0.21623900    -1.24569200
    9 H                    1.0000     1.14256100    -1.60493300    -1.37406500
   10 H                    1.0000     0.65110100    -0.02663000    -2.03432800
 
      Atomic Mass 
      ----------- 
 
      O                 15.994910
      C                 12.000000
      H                  1.007825
 

 Effective nuclear repulsion energy (a.u.)     123.6667758489

            Nuclear Dipole moment (a.u.) 
            ----------------------------
        X                 Y               Z
 ---------------- ---------------- ----------------
    13.1432124362     3.5454585464   -10.7014011103
 
 
            XYZ format geometry
            -------------------
    10
 geometry
 O                    -0.87913700    -0.18024100     0.20526900
 C                     0.57416000    -0.15755300     0.12225000
 C                    -0.18590100     1.09009500     0.34035200
 C                     1.18549600    -0.52055100    -1.21134400
 H                     1.06060300    -0.60576200     1.00176200
 H                    -0.22730700     1.53017300     1.31627200
 H                    -0.32260000     1.76954900    -0.47658700
 H                     2.24129700    -0.21623900    -1.24569200
 H                     1.14256100    -1.60493300    -1.37406500
 H                     0.65110100    -0.02663000    -2.03432800
 
 ==============================================================================
                                internuclear distances
 ------------------------------------------------------------------------------
       center one      |      center two      | atomic units |  angstroms
 ------------------------------------------------------------------------------
    2 C                |   1 O                |     2.75114  |     1.45584
    3 C                |   1 O                |     2.74666  |     1.45347
    3 C                |   2 C                |     2.79135  |     1.47712
    4 C                |   2 C                |     2.85591  |     1.51128
    5 H                |   2 C                |     2.07961  |     1.10048
    6 H                |   3 C                |     2.02457  |     1.07136
    7 H                |   3 C                |     2.02451  |     1.07132
    8 H                |   4 C                |     2.07741  |     1.09932
    9 H                |   4 C                |     2.07372  |     1.09736
   10 H                |   4 C                |     2.07598  |     1.09856
 ------------------------------------------------------------------------------
                         number of included internuclear distances:         10
 ==============================================================================



 ==============================================================================
                                 internuclear angles
 ------------------------------------------------------------------------------
        center 1       |       center 2       |       center 3       |  degrees
 ------------------------------------------------------------------------------
    2 C                |   1 O                |   3 C                |    61.02
    2 C                |   1 O                |   3 C                |    61.02
    1 O                |   2 C                |   4 C                |   116.77
    1 O                |   2 C                |   5 H                |   112.91
    3 C                |   2 C                |   4 C                |   122.77
    3 C                |   2 C                |   5 H                |   116.97
    4 C                |   2 C                |   5 H                |   115.38
    3 C                |   1 O                |   2 C                |    61.02
    1 O                |   3 C                |   6 H                |   115.17
    1 O                |   3 C                |   7 H                |   115.00
    2 C                |   3 C                |   6 H                |   120.09
    2 C                |   3 C                |   7 H                |   119.26
    6 H                |   3 C                |   7 H                |   115.42
    2 C                |   4 C                |   8 H                |   110.46
    2 C                |   4 C                |   9 H                |   110.63
    2 C                |   4 C                |  10 H                |   110.87
    8 H                |   4 C                |   9 H                |   107.85
    8 H                |   4 C                |  10 H                |   108.62
    9 H                |   4 C                |  10 H                |   108.31
 ------------------------------------------------------------------------------
                            number of included internuclear angles:         19
 ==============================================================================



  warning:::::::::::::: from_environment
  NWCHEM_BASIS_LIBRARY set to: <
 /util/academic/nwchem/nwchem-6.8/src/basis/libraries>
  but file does not exist !
  using .nwchemrc or compiled library


 Summary of "ao basis" -> "" (spherical)
 ------------------------------------------------------------------------------
       Tag                 Description            Shells   Functions and Types
 ---------------- ------------------------------  ------  ---------------------
 *                         def2-TZVP                  on all atoms 


 
                                 NWChem DFT Module
                                 -----------------
 
 
                    methyloxirane roa calculations at 488.9 nm, input generated in va  with delta_type=2
 
 
                      Basis "ao basis" -> "ao basis" (spherical)
                      -----
  O (Oxygen)
  ----------
            Exponent  Coefficients 
       -------------- ---------------------------------------------------------
  1 S  2.70323826E+04  0.000217
  1 S  4.05238714E+03  0.001684
  1 S  9.22327227E+02  0.008740
  1 S  2.61240710E+02  0.035240
  1 S  8.53546414E+01  0.111535
  1 S  3.10350352E+01  0.255890
 
  2 S  1.22608607E+01  0.397687
  2 S  4.99870760E+00  0.246278
 
  3 S  1.17031082E+00  1.000000
 
  4 S  4.64747410E-01  1.000000
 
  5 S  1.85045364E-01  1.000000
 
  6 P  6.32749548E+01  0.006069
  6 P  1.46270494E+01  0.041913
  6 P  4.45012235E+00  0.161538
  6 P  1.52757996E+00  0.357070
 
  7 P  5.29351179E-01  1.000000
 
  8 P  1.74784213E-01  1.000000
 
  9 D  2.31400000E+00  1.000000
 
 10 D  6.45000000E-01  1.000000
 
 11 F  1.42800000E+00  1.000000
 
  C (Carbon)
  ----------
            Exponent  Coefficients 
       -------------- ---------------------------------------------------------
  1 S  1.35753497E+04  0.000222
  1 S  2.03523337E+03  0.001723
  1 S  4.63225624E+02  0.008926
  1 S  1.31200196E+02  0.035728
  1 S  4.28530159E+01  0.110763
  1 S  1.55841858E+01  0.242956
 
  2 S  6.20671385E+00  0.414403
  2 S  2.57648965E+00  0.237450
 
  3 S  5.76963394E-01  1.000000
 
  4 S  2.29728314E-01  1.000000
 
  5 S  9.51644400E-02  1.000000
 
  6 P  3.46972322E+01  0.005333
  6 P  7.95826228E+00  0.035864
  6 P  2.37808269E+00  0.142159
  6 P  8.14332082E-01  0.342705
 
  7 P  2.88875473E-01  1.000000
 
  8 P  1.00568237E-01  1.000000
 
  9 D  1.09700000E+00  1.000000
 
 10 D  3.18000000E-01  1.000000
 
 11 F  7.61000000E-01  1.000000
 
  H (Hydrogen)
  ------------
            Exponent  Coefficients 
       -------------- ---------------------------------------------------------
  1 S  3.40613410E+01  0.006025
  1 S  5.12357460E+00  0.045021
  1 S  1.16466260E+00  0.201897
 
  2 S  3.27230410E-01  1.000000
 
  3 S  1.03072410E-01  1.000000
 
  4 P  8.00000000E-01  1.000000
 


 Summary of "ao basis" -> "ao basis" (spherical)
 ------------------------------------------------------------------------------
       Tag                 Description            Shells   Functions and Types
 ---------------- ------------------------------  ------  ---------------------
 O                         def2-TZVP                11       31   5s3p2d1f
 C                         def2-TZVP                11       31   5s3p2d1f
 H                         def2-TZVP                 4        6   3s1p




 Summary of "ao basis" -> "ao basis" (spherical)
 ------------------------------------------------------------------------------
       Tag                 Description            Shells   Functions and Types
 ---------------- ------------------------------  ------  ---------------------
 O                         def2-TZVP                11       31   5s3p2d1f
 C                         def2-TZVP                11       31   5s3p2d1f
 H                         def2-TZVP                 4        6   3s1p


  Caching 1-el integrals 
  itol2e modified to match energy
  convergence criterion.
  tol_rho modified to match energy
  convergence criterion.
 
            General Information
            -------------------
          SCF calculation type: DFT
          Wavefunction type:  closed shell.
          No. of atoms     :    10
          No. of electrons :    32
           Alpha electrons :    16
            Beta electrons :    16
          Charge           :     0
          Spin multiplicity:     1
          Use of symmetry is: off; symmetry adaption is: off
          Maximum number of iterations: 250
          This is a Direct SCF calculation.
          AO basis - number of functions:   160
                     number of shells:    68
          Convergence on energy requested:  1.00D-08
          Convergence on density requested:  1.00D-05
          Convergence on gradient requested:  1.00D-07
 
              XC Information
              --------------
                    Becke 1988 Exchange Functional  1.000          
              Lee-Yang-Parr Correlation Functional  1.000          
 
             Grid Information
             ----------------
          Grid used for XC integration:  xfine     
          Radial quadrature: Mura-Knowles        
          Angular quadrature: Lebedev. 
          Tag              B.-S. Rad. Rad. Pts. Rad. Cut. Ang. Pts.
          ---              ---------- --------- --------- ---------
          O                   0.60      100          11.0      1454
          C                   0.70      100          11.0      1454
          H                   0.35      100          12.0      1202
          Grid pruning is: on 
          Number of quadrature shells:  1000
          Spatial weights used:  Erf1
 
          Convergence Information
          -----------------------
          Convergence aids based upon iterative change in 
          total energy or number of iterations. 
          Levelshifting, if invoked, occurs when the 
          HOMO/LUMO gap drops below (HL_TOL):  1.00D-02
          DIIS, if invoked, will attempt to extrapolate 
          using up to (NFOCK): 10 stored Fock matrices.

                    Damping( 0%)  Levelshifting(0.0)       DIIS
                  --------------- ------------------- ---------------
          dE  on:    start             N/A                start   
          dE off:    2 iters           N/A              250 iters 

 
      Screening Tolerance Information
      -------------------------------
          Density screening/tol_rho:  1.00D-11
          AO Gaussian exp screening on grid/accAOfunc:  18
          CD Gaussian exp screening on grid/accCDfunc:  20
          XC Gaussian exp screening on grid/accXCfunc:  20
          Schwarz screening/accCoul:  1.00D-09

 
      Superposition of Atomic Density Guess
      -------------------------------------
 
 Sum of atomic energies:        -190.79714706
 
      Non-variational initial energy
      ------------------------------

 Total energy =    -193.185759
 1-e energy   =    -502.254262
 2-e energy   =     185.401727
 HOMO         =      -0.352579
 LUMO         =       0.089818
 
   Time after variat. SCF:      0.7
   Time prior to 1st pass:      0.7

 Grid_pts file          = ./methyloxirane_blyp-def2-tzvp_488.9_44.inp.gridpts.0
 Record size in doubles =  12289        No. of grid_pts per rec  =   3070
 Max. records in memory =     76        Max. recs in file   =    317624


           Memory utilization after 1st SCF pass: 
           Heap Space remaining (MW):       12.17            12167540
          Stack Space remaining (MW):       13.11            13106124

   convergence    iter        energy       DeltaE   RMS-Dens  Diis-err    time
 ---------------- ----- ----------------- --------- --------- ---------  ------
 d= 0,ls=0.0,diis     1   -193.0205321140 -3.17D+02  9.15D-03  1.05D+00     7.0
 d= 0,ls=0.0,diis     2   -192.8636341943  1.57D-01  7.56D-03  2.50D+00    13.0
 d= 0,ls=0.0,diis     3   -193.0761564572 -2.13D-01  1.82D-03  3.91D-01    19.1
 d= 0,ls=0.0,diis     4   -193.1067627135 -3.06D-02  6.73D-04  1.77D-02    25.1
 d= 0,ls=0.0,diis     5   -193.1083789923 -1.62D-03  2.90D-04  2.65D-03    31.2
 d= 0,ls=0.0,diis     6   -193.1087055905 -3.27D-04  3.21D-05  4.37D-05    37.2
 d= 0,ls=0.0,diis     7   -193.1087099737 -4.38D-06  1.14D-05  1.07D-05    43.2
 d= 0,ls=0.0,diis     8   -193.1087111544 -1.18D-06  3.46D-06  5.26D-07    49.2
 d= 0,ls=0.0,diis     9   -193.1087112140 -5.96D-08  7.69D-07  3.69D-08    55.3
 d= 0,ls=0.0,diis    10   -193.1087112182 -4.17D-09  2.51D-07  3.53D-09    61.3


         Total DFT energy =     -193.108711218174
      One electron energy =     -505.938849955490
           Coulomb energy =      216.197410405934
    Exchange-Corr. energy =      -27.034047517481
 Nuclear repulsion energy =      123.666775848864

 Numeric. integr. density =       32.000000009134

     Total iterative time =     60.6s


 
                       DFT Final Molecular Orbital Analysis
                       ------------------------------------
 
 Vector    1  Occ=2.000000D+00  E=-1.877913D+01
              MO Center= -8.8D-01, -1.8D-01,  2.1D-01, r^2= 1.5D-02
   Bfn.  Coefficient  Atom+Function         Bfn.  Coefficient  Atom+Function  
  ----- ------------  ---------------      ----- ------------  ---------------
     2      0.638478   1 O  s                 1      0.435422   1 O  s         
     3      0.039878   1 O  s                 4     -0.033209   1 O  s         
 
 Vector    2  Occ=2.000000D+00  E=-9.963423D+00
              MO Center=  5.7D-01, -1.6D-01,  1.2D-01, r^2= 2.8D-02
   Bfn.  Coefficient  Atom+Function         Bfn.  Coefficient  Atom+Function  
  ----- ------------  ---------------      ----- ------------  ---------------
    33      0.606948   2 C  s                32      0.467285   2 C  s         
    34      0.042505   2 C  s                36      0.037416   2 C  s         
    35     -0.027553   2 C  s         
 
 Vector    3  Occ=2.000000D+00  E=-9.951515D+00
              MO Center= -1.9D-01,  1.1D+00,  3.4D-01, r^2= 2.8D-02
   Bfn.  Coefficient  Atom+Function         Bfn.  Coefficient  Atom+Function  
  ----- ------------  ---------------      ----- ------------  ---------------
    64      0.606977   3 C  s                63      0.467224   3 C  s         
    65      0.039996   3 C  s         
 
 Vector    4  Occ=2.000000D+00  E=-9.907855D+00
              MO Center=  1.2D+00, -5.2D-01, -1.2D+00, r^2= 2.8D-02
   Bfn.  Coefficient  Atom+Function         Bfn.  Coefficient  Atom+Function  
  ----- ------------  ---------------      ----- ------------  ---------------
    95      0.606960   4 C  s                94      0.467215   4 C  s         
    96      0.040597   4 C  s                98      0.035713   4 C  s         
 
 Vector    5  Occ=2.000000D+00  E=-9.615681D-01
              MO Center= -4.7D-01,  5.7D-02,  2.1D-01, r^2= 6.5D-01
   Bfn.  Coefficient  Atom+Function         Bfn.  Coefficient  Atom+Function  
  ----- ------------  ---------------      ----- ------------  ---------------
     4      0.375018   1 O  s                 3      0.277419   1 O  s         
     2     -0.192754   1 O  s                34      0.139760   2 C  s         
    65      0.139143   3 C  s                 5      0.122785   1 O  s         
    35      0.104598   2 C  s                66      0.093983   3 C  s         
     6      0.093127   1 O  px               69     -0.090463   3 C  py        
 
 Vector    6  Occ=2.000000D+00  E=-6.695458D-01
              MO Center=  9.4D-01, -3.9D-01, -7.7D-01, r^2= 1.5D+00
   Bfn.  Coefficient  Atom+Function         Bfn.  Coefficient  Atom+Function  
  ----- ------------  ---------------      ----- ------------  ---------------
    97      0.285693   4 C  s                96      0.276712   4 C  s         
    35      0.184319   2 C  s                34      0.173791   2 C  s         
    95     -0.174236   4 C  s                 4     -0.147355   1 O  s         
    33     -0.108549   2 C  s                 3     -0.103054   1 O  s         
    94     -0.083484   4 C  s                 5     -0.073022   1 O  s         
 
 Vector    7  Occ=2.000000D+00  E=-5.929578D-01
              MO Center= -1.4D-01,  7.7D-01,  2.3D-01, r^2= 1.9D+00
   Bfn.  Coefficient  Atom+Function         Bfn.  Coefficient  Atom+Function  
  ----- ------------  ---------------      ----- ------------  ---------------
    66      0.328137   3 C  s                65      0.280913   3 C  s         
     4     -0.234194   1 O  s                64     -0.174240   3 C  s         
     3     -0.165007   1 O  s                 5     -0.144518   1 O  s         
     2      0.109077   1 O  s               132      0.107330   6 H  s         
   138      0.103350   7 H  s                38      0.102737   2 C  py        
 
 Vector    8  Occ=2.000000D+00  E=-5.301312D-01
              MO Center=  4.2D-01, -2.9D-03, -1.0D-01, r^2= 2.7D+00
   Bfn.  Coefficient  Atom+Function         Bfn.  Coefficient  Atom+Function  
  ----- ------------  ---------------      ----- ------------  ---------------
    35      0.306146   2 C  s                34      0.227637   2 C  s         
    97     -0.156868   4 C  s                33     -0.139967   2 C  s         
    66     -0.140219   3 C  s               126      0.131733   5 H  s         
    96     -0.130310   4 C  s                 6      0.109093   1 O  px        
   125      0.105245   5 H  s                 4     -0.099760   1 O  s         
 
 Vector    9  Occ=2.000000D+00  E=-4.488868D-01
              MO Center=  1.1D-01,  3.1D-01,  2.5D-01, r^2= 2.5D+00
   Bfn.  Coefficient  Atom+Function         Bfn.  Coefficient  Atom+Function  
  ----- ------------  ---------------      ----- ------------  ---------------
    70      0.218502   3 C  pz               39      0.153891   2 C  pz        
   132      0.148163   6 H  s                73      0.135053   3 C  pz        
     8      0.127137   1 O  pz              126      0.112886   5 H  s         
   131      0.110997   6 H  s                 6     -0.105601   1 O  px        
    38     -0.105191   2 C  py               11      0.103063   1 O  pz        
 
 Vector   10  Occ=2.000000D+00  E=-4.145756D-01
              MO Center=  4.5D-02,  2.8D-01, -2.2D-01, r^2= 2.5D+00
   Bfn.  Coefficient  Atom+Function         Bfn.  Coefficient  Atom+Function  
  ----- ------------  ---------------      ----- ------------  ---------------
    69      0.217438   3 C  py              101      0.153450   4 C  pz        
   138      0.153635   7 H  s                38     -0.144637   2 C  py        
     6     -0.142709   1 O  px               37      0.129381   2 C  px        
     7     -0.125863   1 O  py               72      0.122288   3 C  py        
    70     -0.116053   3 C  pz                9     -0.114046   1 O  px        
 
 Vector   11  Occ=2.000000D+00  E=-3.771157D-01
              MO Center=  9.0D-01, -3.1D-01, -7.4D-01, r^2= 2.7D+00
   Bfn.  Coefficient  Atom+Function         Bfn.  Coefficient  Atom+Function  
  ----- ------------  ---------------      ----- ------------  ---------------
    99      0.212295   4 C  px              144      0.186249   8 H  s         
   100      0.162028   4 C  py              150     -0.138144   9 H  s         
   102      0.136188   4 C  px              143      0.130444   8 H  s         
    37      0.129106   2 C  px                6     -0.119141   1 O  px        
     7      0.115768   1 O  py              103      0.106853   4 C  py        
 
 Vector   12  Occ=2.000000D+00  E=-3.563061D-01
              MO Center=  6.1D-01, -3.4D-01, -8.8D-01, r^2= 2.9D+00
   Bfn.  Coefficient  Atom+Function         Bfn.  Coefficient  Atom+Function  
  ----- ------------  ---------------      ----- ------------  ---------------
   100      0.258749   4 C  py              150     -0.188818   9 H  s         
   156      0.172324  10 H  s               103      0.167823   4 C  py        
     7     -0.163736   1 O  py              149     -0.131759   9 H  s         
    10     -0.131024   1 O  py              155      0.121883  10 H  s         
    70      0.121128   3 C  pz              106      0.103782   4 C  py        
 
 Vector   13  Occ=2.000000D+00  E=-3.301578D-01
              MO Center=  3.5D-01,  2.2D-01, -2.3D-01, r^2= 2.7D+00
   Bfn.  Coefficient  Atom+Function         Bfn.  Coefficient  Atom+Function  
  ----- ------------  ---------------      ----- ------------  ---------------
    39      0.222971   2 C  pz              101     -0.202781   4 C  pz        
     7     -0.167697   1 O  py               70     -0.168024   3 C  pz        
   138      0.158432   7 H  s                42      0.151420   2 C  pz        
   104     -0.141571   4 C  pz               10     -0.135166   1 O  py        
    99      0.121554   4 C  px              137      0.107555   7 H  s         
 
 Vector   14  Occ=2.000000D+00  E=-3.210254D-01
              MO Center=  4.0D-01, -7.4D-02, -2.5D-01, r^2= 3.0D+00
   Bfn.  Coefficient  Atom+Function         Bfn.  Coefficient  Atom+Function  
  ----- ------------  ---------------      ----- ------------  ---------------
     7      0.206617   1 O  py               10      0.169406   1 O  py        
    99     -0.163401   4 C  px              126      0.158953   5 H  s         
     6     -0.152675   1 O  px              156      0.152876  10 H  s         
    37      0.136586   2 C  px              144     -0.135893   8 H  s         
     9     -0.125020   1 O  px               39      0.124265   2 C  pz        
 
 Vector   15  Occ=2.000000D+00  E=-2.630311D-01
              MO Center=  1.6D-02,  1.5D-01,  3.7D-02, r^2= 2.3D+00
   Bfn.  Coefficient  Atom+Function         Bfn.  Coefficient  Atom+Function  
  ----- ------------  ---------------      ----- ------------  ---------------
    68      0.264772   3 C  px               38      0.256220   2 C  py        
     6     -0.236644   1 O  px               41      0.200011   2 C  py        
    71      0.197242   3 C  px                9     -0.185043   1 O  px        
    12     -0.156914   1 O  px              150      0.114577   9 H  s         
   100     -0.110711   4 C  py               67      0.107829   3 C  s         
 
 Vector   16  Occ=2.000000D+00  E=-2.193407D-01
              MO Center= -5.8D-01, -3.7D-02,  2.0D-01, r^2= 1.6D+00
   Bfn.  Coefficient  Atom+Function         Bfn.  Coefficient  Atom+Function  
  ----- ------------  ---------------      ----- ------------  ---------------
     8      0.449807   1 O  pz               11      0.358180   1 O  pz        
    14      0.296899   1 O  pz              133     -0.129716   6 H  s         
   139      0.115157   7 H  s               145     -0.102934   8 H  s         
   132     -0.101730   6 H  s               138      0.102090   7 H  s         
   126     -0.097948   5 H  s                98      0.091502   4 C  s         
 
 Vector   17  Occ=0.000000D+00  E= 2.629251D-02
              MO Center=  1.3D+00, -1.7D-01, -6.5D-01, r^2= 7.1D+00
   Bfn.  Coefficient  Atom+Function         Bfn.  Coefficient  Atom+Function  
  ----- ------------  ---------------      ----- ------------  ---------------
    98      4.575730   4 C  s               145     -1.573330   8 H  s         
   151     -1.529011   9 H  s               157     -1.359927  10 H  s         
   127     -1.258730   5 H  s                45      1.160160   2 C  pz        
   139     -0.844127   7 H  s                67      0.584328   3 C  s         
   133     -0.538341   6 H  s                74     -0.334547   3 C  px        
 
 Vector   18  Occ=0.000000D+00  E= 4.243497D-02
              MO Center= -1.4D-01,  6.6D-01,  1.0D-01, r^2= 4.4D+00
   Bfn.  Coefficient  Atom+Function         Bfn.  Coefficient  Atom+Function  
  ----- ------------  ---------------      ----- ------------  ---------------
    98     -2.142357   4 C  s                36      2.026422   2 C  s         
     5     -1.244746   1 O  s                74     -0.948610   3 C  px        
   151      0.814370   9 H  s                67     -0.522835   3 C  s         
    45     -0.484329   2 C  pz              157      0.443575  10 H  s         
    13     -0.433096   1 O  py               44      0.430693   2 C  py        
 
 Vector   19  Occ=0.000000D+00  E= 5.062956D-02
              MO Center=  5.8D-01,  1.0D-01,  1.9D-02, r^2= 6.9D+00
   Bfn.  Coefficient  Atom+Function         Bfn.  Coefficient  Atom+Function  
  ----- ------------  ---------------      ----- ------------  ---------------
    36      2.818778   2 C  s               127     -2.127511   5 H  s         
    98     -2.070188   4 C  s               157      1.281546  10 H  s         
   139      1.264497   7 H  s                67     -1.171100   3 C  s         
    43      0.713333   2 C  px               76      0.681466   3 C  pz        
   133     -0.641749   6 H  s                 5      0.426594   1 O  s         
 
 Vector   20  Occ=0.000000D+00  E= 5.256117D-02
              MO Center=  4.0D-01,  8.4D-01,  3.1D-01, r^2= 6.8D+00
   Bfn.  Coefficient  Atom+Function         Bfn.  Coefficient  Atom+Function  
  ----- ------------  ---------------      ----- ------------  ---------------
    67      3.665338   3 C  s                98     -2.539889   4 C  s         
   133     -1.744681   6 H  s                44     -1.197897   2 C  py        
   145      1.189600   8 H  s               139     -1.016569   7 H  s         
   151      0.535875   9 H  s                45     -0.524027   2 C  pz        
   157      0.517241  10 H  s                74      0.504463   3 C  px        
 
 Vector   21  Occ=0.000000D+00  E= 6.576734D-02
              MO Center=  2.3D-01,  2.2D-01, -1.7D-01, r^2= 5.1D+00
   Bfn.  Coefficient  Atom+Function         Bfn.  Coefficient  Atom+Function  
  ----- ------------  ---------------      ----- ------------  ---------------
    67      1.403508   3 C  s               139     -1.399424   7 H  s         
    98     -1.314022   4 C  s               151      0.982887   9 H  s         
    43      0.855486   2 C  px                5      0.846948   1 O  s         
   133     -0.757150   6 H  s                75      0.534401   3 C  py        
    12      0.478278   1 O  px               45     -0.442542   2 C  pz        
 
 Vector   22  Occ=0.000000D+00  E= 8.622008D-02
              MO Center=  1.3D+00,  1.8D-01, -5.9D-01, r^2= 7.0D+00
   Bfn.  Coefficient  Atom+Function         Bfn.  Coefficient  Atom+Function  
  ----- ------------  ---------------      ----- ------------  ---------------
    36      2.682992   2 C  s               145      2.102754   8 H  s         
    67     -1.381303   3 C  s               157     -1.373232  10 H  s         
   127     -1.216890   5 H  s               133      1.129608   6 H  s         
   105     -1.098937   4 C  px              107     -1.070853   4 C  pz        
    98     -0.848493   4 C  s                75      0.749005   3 C  py        
 
 Vector   23  Occ=0.000000D+00  E= 9.211942D-02
              MO Center=  1.1D+00, -6.9D-01, -5.7D-01, r^2= 6.6D+00
   Bfn.  Coefficient  Atom+Function         Bfn.  Coefficient  Atom+Function  
  ----- ------------  ---------------      ----- ------------  ---------------
    36      2.593855   2 C  s               151      2.145918   9 H  s         
   145     -1.441724   8 H  s                98     -1.263530   4 C  s         
   106      1.216181   4 C  py               67     -1.024074   3 C  s         
   105      0.996724   4 C  px              133      0.939033   6 H  s         
   127     -0.823845   5 H  s               107     -0.751141   4 C  pz        
 
 Vector   24  Occ=0.000000D+00  E= 1.039670D-01
              MO Center=  4.1D-01,  5.4D-01, -9.9D-01, r^2= 7.0D+00
   Bfn.  Coefficient  Atom+Function         Bfn.  Coefficient  Atom+Function  
  ----- ------------  ---------------      ----- ------------  ---------------
   157      1.937416  10 H  s               133      1.773119   6 H  s         
    36      1.633735   2 C  s                98     -1.619120   4 C  s         
   139     -1.619843   7 H  s               106     -1.428142   4 C  py        
   151     -1.280944   9 H  s                76     -1.227682   3 C  pz        
   105      1.064595   4 C  px               45     -0.597225   2 C  pz        
 
 Vector   25  Occ=0.000000D+00  E= 1.394093D-01
              MO Center=  7.7D-01,  2.3D-01, -4.0D-01, r^2= 7.9D+00
   Bfn.  Coefficient  Atom+Function         Bfn.  Coefficient  Atom+Function  
  ----- ------------  ---------------      ----- ------------  ---------------
    36      4.624408   2 C  s                98     -3.511792   4 C  s         
    45     -3.399802   2 C  pz               67     -2.715653   3 C  s         
   127      2.699296   5 H  s                76      2.244787   3 C  pz        
   105      2.067835   4 C  px              133     -1.935029   6 H  s         
   139      1.799061   7 H  s               107     -1.551011   4 C  pz        
 
 Vector   26  Occ=0.000000D+00  E= 1.706779D-01
              MO Center=  4.6D-01,  5.2D-01, -1.4D-01, r^2= 7.3D+00
   Bfn.  Coefficient  Atom+Function         Bfn.  Coefficient  Atom+Function  
  ----- ------------  ---------------      ----- ------------  ---------------
    75      2.298505   3 C  py              107      1.624226   4 C  pz        
    36      1.418845   2 C  s                67     -1.359897   3 C  s         
   139     -1.297893   7 H  s               157      1.060018  10 H  s         
    74     -0.970322   3 C  px               44      0.710807   2 C  py        
   106     -0.596351   4 C  py               43     -0.586672   2 C  px        
 
 Vector   27  Occ=0.000000D+00  E= 1.975208D-01
              MO Center=  8.2D-01, -8.4D-02, -9.7D-01, r^2= 5.1D+00
   Bfn.  Coefficient  Atom+Function         Bfn.  Coefficient  Atom+Function  
  ----- ------------  ---------------      ----- ------------  ---------------
    67      3.150006   3 C  s                44     -2.615262   2 C  py        
   106      1.989466   4 C  py               36     -1.776212   2 C  s         
    43      1.003731   2 C  px               74      0.739976   3 C  px        
   105      0.707205   4 C  px               45     -0.668689   2 C  pz        
   157     -0.669069  10 H  s               150      0.638206   9 H  s         
 
 Vector   28  Occ=0.000000D+00  E= 2.026122D-01
              MO Center=  9.5D-01, -4.6D-01, -7.1D-01, r^2= 6.7D+00
   Bfn.  Coefficient  Atom+Function         Bfn.  Coefficient  Atom+Function  
  ----- ------------  ---------------      ----- ------------  ---------------
    36      2.506857   2 C  s                75      1.686367   3 C  py        
   105     -1.448543   4 C  px              133     -1.334176   6 H  s         
   107     -0.903807   4 C  pz              106      0.834571   4 C  py        
   139     -0.836012   7 H  s                45      0.737666   2 C  pz        
   156     -0.718419  10 H  s                76      0.684052   3 C  pz        
 
 Vector   29  Occ=0.000000D+00  E= 2.366888D-01
              MO Center= -3.2D-01,  4.3D-01, -4.0D-02, r^2= 5.4D+00
   Bfn.  Coefficient  Atom+Function         Bfn.  Coefficient  Atom+Function  
  ----- ------------  ---------------      ----- ------------  ---------------
    67      4.804420   3 C  s                36     -3.188065   2 C  s         
   139     -1.622938   7 H  s                66     -1.445661   3 C  s         
   133     -1.303612   6 H  s                98      1.275732   4 C  s         
   107      0.956972   4 C  pz               74     -0.791857   3 C  px        
     5     -0.772033   1 O  s               106      0.764185   4 C  py        
 
 Vector   30  Occ=0.000000D+00  E= 2.479051D-01
              MO Center=  5.5D-01,  1.6D-02, -1.1D-01, r^2= 5.8D+00
   Bfn.  Coefficient  Atom+Function         Bfn.  Coefficient  Atom+Function  
  ----- ------------  ---------------      ----- ------------  ---------------
    67      5.882489   3 C  s                43      4.156887   2 C  px        
    75     -3.005025   3 C  py               44     -2.605258   2 C  py        
   107     -2.073166   4 C  pz               36     -2.051414   2 C  s         
   157     -1.838899  10 H  s                45     -1.504629   2 C  pz        
    98     -1.384954   4 C  s               105     -1.168157   4 C  px        
 
 Vector   31  Occ=0.000000D+00  E= 2.689399D-01
              MO Center=  2.8D-01, -1.7D-01,  2.5D-01, r^2= 5.6D+00
   Bfn.  Coefficient  Atom+Function         Bfn.  Coefficient  Atom+Function  
  ----- ------------  ---------------      ----- ------------  ---------------
    36      4.375173   2 C  s                 5     -2.276114   1 O  s         
    67      2.264051   3 C  s                43     -1.677390   2 C  px        
   105      1.541354   4 C  px               66     -1.179429   3 C  s         
    98     -1.142500   4 C  s               133     -1.055661   6 H  s         
   139     -0.976099   7 H  s               106     -0.821485   4 C  py        
 
 Vector   32  Occ=0.000000D+00  E= 2.779236D-01
              MO Center=  4.2D-01,  3.4D-01,  2.9D-01, r^2= 4.2D+00
   Bfn.  Coefficient  Atom+Function         Bfn.  Coefficient  Atom+Function  
  ----- ------------  ---------------      ----- ------------  ---------------
    36      2.378513   2 C  s                67     -1.699612   3 C  s         
     5     -1.666579   1 O  s                43     -1.150469   2 C  px        
    74     -0.724728   3 C  px               98     -0.662232   4 C  s         
    45     -0.632044   2 C  pz              145      0.585850   8 H  s         
     4      0.488309   1 O  s               157     -0.443011  10 H  s         
 
 Vector   33  Occ=0.000000D+00  E= 3.008853D-01
              MO Center=  4.3D-01,  3.6D-01, -4.0D-01, r^2= 5.0D+00
   Bfn.  Coefficient  Atom+Function         Bfn.  Coefficient  Atom+Function  
  ----- ------------  ---------------      ----- ------------  ---------------
    43      1.832881   2 C  px               98     -1.779175   4 C  s         
   106      1.751197   4 C  py              151      1.710471   9 H  s         
    76      1.553118   3 C  pz               44     -1.194711   2 C  py        
    36     -1.164506   2 C  s               139      1.145065   7 H  s         
    66      1.038822   3 C  s               107     -0.999827   4 C  pz        
 
 Vector   34  Occ=0.000000D+00  E= 3.374571D-01
              MO Center=  1.2D-01,  4.0D-01, -4.1D-01, r^2= 5.7D+00
   Bfn.  Coefficient  Atom+Function         Bfn.  Coefficient  Atom+Function  
  ----- ------------  ---------------      ----- ------------  ---------------
    67      4.392335   3 C  s                76     -3.976616   3 C  pz        
   139     -3.232959   7 H  s                36     -2.091127   2 C  s         
   133      2.067241   6 H  s               107     -1.776260   4 C  pz        
   157     -1.736294  10 H  s                98      1.461369   4 C  s         
    43      1.363340   2 C  px               44     -1.056623   2 C  py        
 
 Vector   35  Occ=0.000000D+00  E= 3.625909D-01
              MO Center=  8.1D-01, -3.8D-02, -3.6D-01, r^2= 6.8D+00
   Bfn.  Coefficient  Atom+Function         Bfn.  Coefficient  Atom+Function  
  ----- ------------  ---------------      ----- ------------  ---------------
    98      8.066664   4 C  s                76      3.338189   3 C  pz        
   145     -3.338296   8 H  s                97     -3.228086   4 C  s         
   133     -2.472144   6 H  s               151     -1.975941   9 H  s         
   139      1.638265   7 H  s                44      1.481061   2 C  py        
    45     -1.458247   2 C  pz              157     -1.372909  10 H  s         
 
 Vector   36  Occ=0.000000D+00  E= 3.730352D-01
              MO Center=  6.2D-01,  1.4D-01,  7.0D-02, r^2= 6.4D+00
   Bfn.  Coefficient  Atom+Function         Bfn.  Coefficient  Atom+Function  
  ----- ------------  ---------------      ----- ------------  ---------------
    36     13.350471   2 C  s                67     -8.449558   3 C  s         
    98     -8.393299   4 C  s               127     -3.556592   5 H  s         
   157      2.348721  10 H  s                97      2.279785   4 C  s         
    35     -2.119331   2 C  s                44      1.838677   2 C  py        
    75      1.674189   3 C  py               74     -1.644259   3 C  px        
 
 Vector   37  Occ=0.000000D+00  E= 3.858301D-01
              MO Center=  8.8D-01, -3.4D-01, -2.1D-01, r^2= 6.1D+00
   Bfn.  Coefficient  Atom+Function         Bfn.  Coefficient  Atom+Function  
  ----- ------------  ---------------      ----- ------------  ---------------
    98      4.860262   4 C  s                36      4.707963   2 C  s         
   127     -3.697593   5 H  s                45      2.714198   2 C  pz        
   151     -2.420373   9 H  s               145     -2.102405   8 H  s         
    76     -2.091618   3 C  pz               35     -1.980180   2 C  s         
    67     -1.929178   3 C  s               133      1.864213   6 H  s         
 
 Vector   38  Occ=0.000000D+00  E= 3.954590D-01
              MO Center=  1.2D-01,  8.3D-02, -2.0D-01, r^2= 6.4D+00
   Bfn.  Coefficient  Atom+Function         Bfn.  Coefficient  Atom+Function  
  ----- ------------  ---------------      ----- ------------  ---------------
    98     12.541374   4 C  s                45      5.831177   2 C  pz        
    67     -5.198542   3 C  s                76     -3.199627   3 C  pz        
   157     -2.785408  10 H  s                36     -2.493243   2 C  s         
   133      2.327653   6 H  s                44      2.240202   2 C  py        
    75      1.948321   3 C  py               43     -1.822646   2 C  px        
 
 Vector   39  Occ=0.000000D+00  E= 4.026927D-01
              MO Center= -1.3D-01,  1.6D-01,  2.3D-01, r^2= 6.5D+00
   Bfn.  Coefficient  Atom+Function         Bfn.  Coefficient  Atom+Function  
  ----- ------------  ---------------      ----- ------------  ---------------
    67    -13.573292   3 C  s                36     12.679666   2 C  s         
    45     -4.652838   2 C  pz               44      4.556935   2 C  py        
    98     -4.118735   4 C  s                43     -2.916683   2 C  px        
   127      2.923932   5 H  s                66      2.713224   3 C  s         
   139      2.370300   7 H  s               105      2.215071   4 C  px        
 
 Vector   40  Occ=0.000000D+00  E= 4.164289D-01
              MO Center=  9.2D-01, -4.8D-01, -9.2D-01, r^2= 5.6D+00
   Bfn.  Coefficient  Atom+Function         Bfn.  Coefficient  Atom+Function  
  ----- ------------  ---------------      ----- ------------  ---------------
    98      7.288224   4 C  s                36     -5.047704   2 C  s         
    45      3.228609   2 C  pz              105     -2.782356   4 C  px        
   151     -2.595616   9 H  s               145      1.972653   8 H  s         
   157     -1.975483  10 H  s               127     -1.288594   5 H  s         
    67      1.113575   3 C  s                97     -1.087000   4 C  s         
 
 Vector   41  Occ=0.000000D+00  E= 4.320742D-01
              MO Center=  4.0D-01,  2.1D-01, -2.2D-01, r^2= 6.6D+00
   Bfn.  Coefficient  Atom+Function         Bfn.  Coefficient  Atom+Function  
  ----- ------------  ---------------      ----- ------------  ---------------
    36      6.826544   2 C  s                98     -2.747247   4 C  s         
    67     -2.617573   3 C  s               151      2.212129   9 H  s         
    75      1.880287   3 C  py               44      1.577416   2 C  py        
   132      1.402979   6 H  s               133     -1.328683   6 H  s         
   106      1.106478   4 C  py               74     -1.025744   3 C  px        
 
 Vector   42  Occ=0.000000D+00  E= 4.476842D-01
              MO Center=  8.3D-02,  7.6D-03, -5.8D-02, r^2= 6.2D+00
   Bfn.  Coefficient  Atom+Function         Bfn.  Coefficient  Atom+Function  
  ----- ------------  ---------------      ----- ------------  ---------------
    36     10.250085   2 C  s                98     -9.336218   4 C  s         
    45     -5.663685   2 C  pz               67     -2.846575   3 C  s         
   127      2.772359   5 H  s                76      2.741423   3 C  pz        
   133     -2.355916   6 H  s                44      2.217777   2 C  py        
    35     -2.066236   2 C  s               106     -1.950630   4 C  py        
 
 Vector   43  Occ=0.000000D+00  E= 4.646510D-01
              MO Center=  1.5D-01,  7.1D-01, -7.0D-01, r^2= 5.3D+00
   Bfn.  Coefficient  Atom+Function         Bfn.  Coefficient  Atom+Function  
  ----- ------------  ---------------      ----- ------------  ---------------
   139      3.471070   7 H  s               107     -2.519314   4 C  pz        
   157     -2.527693  10 H  s                75     -2.446341   3 C  py        
    45     -2.057371   2 C  pz               98     -1.954725   4 C  s         
    43      1.862177   2 C  px               44     -1.791822   2 C  py        
   138     -1.426894   7 H  s                76      1.062750   3 C  pz        
 
 Vector   44  Occ=0.000000D+00  E= 4.722369D-01
              MO Center=  2.8D-01,  5.0D-01,  2.4D-01, r^2= 5.3D+00
   Bfn.  Coefficient  Atom+Function         Bfn.  Coefficient  Atom+Function  
  ----- ------------  ---------------      ----- ------------  ---------------
    98     -4.321603   4 C  s                36      4.199318   2 C  s         
   133      1.737610   6 H  s                45     -1.565782   2 C  pz        
    67     -1.487944   3 C  s               145      1.481037   8 H  s         
   132     -1.392788   6 H  s               126      1.137501   5 H  s         
    35     -1.068465   2 C  s                73      0.981891   3 C  pz        
 
 Vector   45  Occ=0.000000D+00  E= 5.082129D-01
              MO Center=  8.9D-01, -3.8D-01, -9.2D-01, r^2= 4.8D+00
   Bfn.  Coefficient  Atom+Function         Bfn.  Coefficient  Atom+Function  
  ----- ------------  ---------------      ----- ------------  ---------------
    98     11.449577   4 C  s                36     -7.514390   2 C  s         
    45      4.608933   2 C  pz              107      3.057002   4 C  pz        
   106      1.343300   4 C  py              144     -1.338504   8 H  s         
   156     -1.214417  10 H  s               127     -1.150676   5 H  s         
   150     -1.087978   9 H  s                14     -1.060631   1 O  pz        
 
 Vector   46  Occ=0.000000D+00  E= 5.372175D-01
              MO Center=  9.7D-02, -4.0D-01, -4.9D-01, r^2= 4.4D+00
   Bfn.  Coefficient  Atom+Function         Bfn.  Coefficient  Atom+Function  
  ----- ------------  ---------------      ----- ------------  ---------------
    98     -7.200685   4 C  s                36      6.805376   2 C  s         
    45     -3.642502   2 C  pz               76      3.303397   3 C  pz        
   133     -1.930496   6 H  s               105      1.517422   4 C  px        
   139      1.500948   7 H  s               107     -1.449616   4 C  pz        
    14     -1.160007   1 O  pz                5     -1.149712   1 O  s         
 
 Vector   47  Occ=0.000000D+00  E= 6.578413D-01
              MO Center= -3.8D-01,  3.6D-02, -2.2D-02, r^2= 4.3D+00
   Bfn.  Coefficient  Atom+Function         Bfn.  Coefficient  Atom+Function  
  ----- ------------  ---------------      ----- ------------  ---------------
    36     11.639048   2 C  s                67     -9.015670   3 C  s         
    98     -4.124326   4 C  s                43     -2.578345   2 C  px        
    75      2.423900   3 C  py               13      2.232715   1 O  py        
    76      2.093474   3 C  pz              105      1.593071   4 C  px        
   139      1.594960   7 H  s                44      1.456270   2 C  py        
 
 Vector   48  Occ=0.000000D+00  E= 6.741124D-01
              MO Center= -2.9D-01,  3.5D-01,  1.2D-01, r^2= 3.9D+00
   Bfn.  Coefficient  Atom+Function         Bfn.  Coefficient  Atom+Function  
  ----- ------------  ---------------      ----- ------------  ---------------
    36      8.027590   2 C  s                67     -7.874869   3 C  s         
     5      2.968025   1 O  s                75      2.545754   3 C  py        
    98     -2.127671   4 C  s                13      2.100163   1 O  py        
    43     -1.231639   2 C  px               45     -1.236164   2 C  pz        
     4     -1.097825   1 O  s                44      0.953162   2 C  py        
 
 Vector   49  Occ=0.000000D+00  E= 7.081038D-01
              MO Center=  1.7D-01, -3.2D-01, -2.7D-01, r^2= 4.5D+00
   Bfn.  Coefficient  Atom+Function         Bfn.  Coefficient  Atom+Function  
  ----- ------------  ---------------      ----- ------------  ---------------
    67      9.430690   3 C  s                36     -7.327843   2 C  s         
    43      3.639617   2 C  px               44     -3.465431   2 C  py        
    75     -2.729886   3 C  py               98     -2.499932   4 C  s         
     5      2.316240   1 O  s                12      1.698565   1 O  px        
   106      1.664889   4 C  py               13     -1.297555   1 O  py        
 
 Vector   50  Occ=0.000000D+00  E= 7.610294D-01
              MO Center=  6.4D-01, -6.4D-03, -3.4D-01, r^2= 4.1D+00
   Bfn.  Coefficient  Atom+Function         Bfn.  Coefficient  Atom+Function  
  ----- ------------  ---------------      ----- ------------  ---------------
    45      2.439025   2 C  pz              127     -1.689014   5 H  s         
   105     -1.644203   4 C  px               43      1.488140   2 C  px        
     5     -1.403552   1 O  s               126     -1.323698   5 H  s         
    36      1.309667   2 C  s               144      1.263182   8 H  s         
    76     -1.038135   3 C  pz               66      1.013766   3 C  s         
 
 Vector   51  Occ=0.000000D+00  E= 7.947696D-01
              MO Center=  2.8D-01,  4.5D-02, -1.9D-01, r^2= 4.4D+00
   Bfn.  Coefficient  Atom+Function         Bfn.  Coefficient  Atom+Function  
  ----- ------------  ---------------      ----- ------------  ---------------
     5      4.137552   1 O  s                36     -2.779936   2 C  s         
    76     -2.545543   3 C  pz                4     -1.619042   1 O  s         
    45      1.543645   2 C  pz              133      1.386295   6 H  s         
    12      1.361061   1 O  px               43      1.225578   2 C  px        
    35     -1.046573   2 C  s                66     -1.050905   3 C  s         
 
 Vector   52  Occ=0.000000D+00  E= 8.318662D-01
              MO Center=  3.2D-01,  1.8D-01,  1.5D-03, r^2= 4.4D+00
   Bfn.  Coefficient  Atom+Function         Bfn.  Coefficient  Atom+Function  
  ----- ------------  ---------------      ----- ------------  ---------------
    36      6.633709   2 C  s                98     -4.068972   4 C  s         
     5     -3.899755   1 O  s                43     -2.573871   2 C  px        
   105      1.939683   4 C  px               35     -1.896778   2 C  s         
    45     -1.770665   2 C  pz               44      1.479794   2 C  py        
    66     -1.175783   3 C  s                97      1.061611   4 C  s         
 
 Vector   53  Occ=0.000000D+00  E= 8.550350D-01
              MO Center=  6.0D-01,  1.3D-01, -3.9D-01, r^2= 4.2D+00
   Bfn.  Coefficient  Atom+Function         Bfn.  Coefficient  Atom+Function  
  ----- ------------  ---------------      ----- ------------  ---------------
    98     -4.730840   4 C  s                36      4.626630   2 C  s         
    45     -4.576337   2 C  pz               76      2.113967   3 C  pz        
   127      1.785034   5 H  s               106     -1.561712   4 C  py        
    44      1.489602   2 C  py              105      1.350947   4 C  px        
   150     -1.238792   9 H  s               139      1.146406   7 H  s         
 
 Vector   54  Occ=0.000000D+00  E= 8.723108D-01
              MO Center=  1.7D-01, -3.6D-02, -1.3D-01, r^2= 4.3D+00
   Bfn.  Coefficient  Atom+Function         Bfn.  Coefficient  Atom+Function  
  ----- ------------  ---------------      ----- ------------  ---------------
     5      4.654329   1 O  s                36     -1.828652   2 C  s         
     4     -1.574972   1 O  s               138      1.542414   7 H  s         
    76      1.327531   3 C  pz               67     -1.258939   3 C  s         
    12      1.187127   1 O  px               66     -1.171394   3 C  s         
    43      0.881169   2 C  px               98     -0.873043   4 C  s         
 
 Vector   55  Occ=0.000000D+00  E= 9.198360D-01
              MO Center=  5.0D-01,  3.1D-01, -4.7D-01, r^2= 4.6D+00
   Bfn.  Coefficient  Atom+Function         Bfn.  Coefficient  Atom+Function  
  ----- ------------  ---------------      ----- ------------  ---------------
    35      4.928227   2 C  s                36     -1.721443   2 C  s         
    67      1.528429   3 C  s               132     -1.443062   6 H  s         
    72      1.319425   3 C  py               66     -1.214221   3 C  s         
    84      1.190835   3 C  d  0             41      1.165915   2 C  py        
   156     -1.145639  10 H  s               116     -1.069521   4 C  d  1      
 
 Vector   56  Occ=0.000000D+00  E= 9.615648D-01
              MO Center=  4.5D-01,  3.0D-01, -5.3D-01, r^2= 4.7D+00
   Bfn.  Coefficient  Atom+Function         Bfn.  Coefficient  Atom+Function  
  ----- ------------  ---------------      ----- ------------  ---------------
    35      4.217375   2 C  s                67      2.545598   3 C  s         
   138     -2.502768   7 H  s                76     -1.841167   3 C  pz        
    42     -1.749276   2 C  pz               83     -1.689768   3 C  d -1      
    36     -1.453839   2 C  s               115     -1.459933   4 C  d  0      
   132      1.451587   6 H  s                98     -1.401194   4 C  s         
 
 Vector   57  Occ=0.000000D+00  E= 9.917227D-01
              MO Center=  3.3D-01,  5.0D-01, -1.2D-01, r^2= 4.1D+00
   Bfn.  Coefficient  Atom+Function         Bfn.  Coefficient  Atom+Function  
  ----- ------------  ---------------      ----- ------------  ---------------
    36      7.327878   2 C  s                98     -4.797971   4 C  s         
    67     -3.817477   3 C  s                45     -3.687228   2 C  pz        
    43     -2.283999   2 C  px               44      2.094619   2 C  py        
    66     -1.590772   3 C  s               127      1.535930   5 H  s         
    75      1.425516   3 C  py               35     -1.297443   2 C  s         
 
 Vector   58  Occ=0.000000D+00  E= 1.012200D+00
              MO Center=  4.0D-01,  5.1D-01, -7.7D-02, r^2= 4.3D+00
   Bfn.  Coefficient  Atom+Function         Bfn.  Coefficient  Atom+Function  
  ----- ------------  ---------------      ----- ------------  ---------------
    36      5.707896   2 C  s                67     -4.646815   3 C  s         
    45     -2.230737   2 C  pz               44      1.921678   2 C  py        
    98     -1.806464   4 C  s               156     -1.504800  10 H  s         
    43     -1.400203   2 C  px              144      1.394799   8 H  s         
    74     -1.328206   3 C  px               82      1.328825   3 C  d -2      
 
 Vector   59  Occ=0.000000D+00  E= 1.041550D+00
              MO Center=  6.9D-01, -1.5D-01, -4.6D-01, r^2= 4.2D+00
   Bfn.  Coefficient  Atom+Function         Bfn.  Coefficient  Atom+Function  
  ----- ------------  ---------------      ----- ------------  ---------------
    35      2.689721   2 C  s                36      2.615906   2 C  s         
    66     -2.405804   3 C  s               150      1.958687   9 H  s         
   144     -1.903636   8 H  s                 5     -1.867060   1 O  s         
   117      1.723015   4 C  d  2             41      1.569936   2 C  py        
    44      1.373458   2 C  py               67     -1.255346   3 C  s         
 
 Vector   60  Occ=0.000000D+00  E= 1.078742D+00
              MO Center=  6.8D-01,  4.2D-03, -7.4D-02, r^2= 4.1D+00
   Bfn.  Coefficient  Atom+Function         Bfn.  Coefficient  Atom+Function  
  ----- ------------  ---------------      ----- ------------  ---------------
    98     -4.175434   4 C  s                66      4.042525   3 C  s         
    45     -3.817068   2 C  pz               97     -3.737258   4 C  s         
    36      3.552748   2 C  s                41     -2.560759   2 C  py        
   104     -2.520332   4 C  pz               42     -2.349014   2 C  pz        
    72     -2.352454   3 C  py               53      2.250778   2 C  d  0      
 
 Vector   61  Occ=0.000000D+00  E= 1.105329D+00
              MO Center=  3.7D-01,  6.2D-02,  6.1D-02, r^2= 3.8D+00
   Bfn.  Coefficient  Atom+Function         Bfn.  Coefficient  Atom+Function  
  ----- ------------  ---------------      ----- ------------  ---------------
    36      7.556490   2 C  s                67     -5.365228   3 C  s         
    98     -2.896306   4 C  s               126     -1.988923   5 H  s         
    66      1.974634   3 C  s                45     -1.878984   2 C  pz        
   132      1.758046   6 H  s                72     -1.592082   3 C  py        
    41     -1.423713   2 C  py               53      1.413585   2 C  d  0      
 
 Vector   62  Occ=0.000000D+00  E= 1.147972D+00
              MO Center=  6.2D-01,  7.9D-03, -2.8D-02, r^2= 3.5D+00
   Bfn.  Coefficient  Atom+Function         Bfn.  Coefficient  Atom+Function  
  ----- ------------  ---------------      ----- ------------  ---------------
    67      5.152429   3 C  s                36     -3.894506   2 C  s         
    44     -2.383147   2 C  py              126      1.816759   5 H  s         
    97     -1.783987   4 C  s                54      1.577356   2 C  d  1      
    43      1.543789   2 C  px               55      1.479910   2 C  d  2      
   132     -1.474906   6 H  s                75     -1.438899   3 C  py        
 
 Vector   63  Occ=0.000000D+00  E= 1.215517D+00
              MO Center=  5.6D-01,  2.1D-01, -1.5D-01, r^2= 3.8D+00
   Bfn.  Coefficient  Atom+Function         Bfn.  Coefficient  Atom+Function  
  ----- ------------  ---------------      ----- ------------  ---------------
    36      6.821570   2 C  s                66     -5.088602   3 C  s         
    97     -3.412106   4 C  s                67     -3.268299   3 C  s         
    35      3.090713   2 C  s                72      1.823093   3 C  py        
   138      1.800563   7 H  s                51     -1.745628   2 C  d -2      
    52      1.688502   2 C  d -1            104     -1.504144   4 C  pz        
 
 Vector   64  Occ=0.000000D+00  E= 1.345940D+00
              MO Center=  3.1D-01,  5.9D-01,  2.5D-01, r^2= 3.6D+00
   Bfn.  Coefficient  Atom+Function         Bfn.  Coefficient  Atom+Function  
  ----- ------------  ---------------      ----- ------------  ---------------
    66      5.037850   3 C  s                35      3.736433   2 C  s         
    67     -3.470306   3 C  s                36     -2.485816   2 C  s         
    65     -2.475310   3 C  s               132     -2.257441   6 H  s         
   133      1.569071   6 H  s                72      1.447279   3 C  py        
    34     -1.356029   2 C  s               139      1.166073   7 H  s         
 
 Vector   65  Occ=0.000000D+00  E= 1.412427D+00
              MO Center=  1.3D-01,  5.5D-01, -4.2D-02, r^2= 3.3D+00
   Bfn.  Coefficient  Atom+Function         Bfn.  Coefficient  Atom+Function  
  ----- ------------  ---------------      ----- ------------  ---------------
    36      4.246460   2 C  s                67     -3.675649   3 C  s         
    66      3.575230   3 C  s                35     -3.543198   2 C  s         
    73     -2.550099   3 C  pz              138     -2.419698   7 H  s         
   139      2.331626   7 H  s                76      1.849145   3 C  pz        
   126      1.689241   5 H  s                34      1.471204   2 C  s         
 
 Vector   66  Occ=0.000000D+00  E= 1.433375D+00
              MO Center=  1.1D+00, -5.0D-01, -1.2D+00, r^2= 3.5D+00
   Bfn.  Coefficient  Atom+Function         Bfn.  Coefficient  Atom+Function  
  ----- ------------  ---------------      ----- ------------  ---------------
    98     10.329536   4 C  s                97     -7.675599   4 C  s         
    96      3.111364   4 C  s               145     -2.428223   8 H  s         
   151     -2.410633   9 H  s                36     -2.363691   2 C  s         
   157     -2.117839  10 H  s               150      1.756345   9 H  s         
   144      1.704007   8 H  s               104      1.489584   4 C  pz        
 
 Vector   67  Occ=0.000000D+00  E= 1.442799D+00
              MO Center=  4.1D-01,  2.2D-02, -1.4D-01, r^2= 4.1D+00
   Bfn.  Coefficient  Atom+Function         Bfn.  Coefficient  Atom+Function  
  ----- ------------  ---------------      ----- ------------  ---------------
    66      4.402152   3 C  s                35     -3.285938   2 C  s         
    67     -3.048673   3 C  s                36      2.364831   2 C  s         
    98      2.176506   4 C  s               133      2.001251   6 H  s         
    45      1.797596   2 C  pz               76     -1.757267   3 C  pz        
   127     -1.649178   5 H  s                65     -1.541705   3 C  s         
 
 Vector   68  Occ=0.000000D+00  E= 1.446470D+00
              MO Center=  3.1D-01, -4.1D-02, -9.6D-02, r^2= 3.0D+00
   Bfn.  Coefficient  Atom+Function         Bfn.  Coefficient  Atom+Function  
  ----- ------------  ---------------      ----- ------------  ---------------
    98      5.104050   4 C  s                97     -2.820583   4 C  s         
    36     -2.441822   2 C  s                45      2.058358   2 C  pz        
     5      2.013056   1 O  s                35     -1.701208   2 C  s         
   127     -1.390972   5 H  s                96      1.189964   4 C  s         
    42     -1.073581   2 C  pz              126      1.057751   5 H  s         
 
 Vector   69  Occ=0.000000D+00  E= 1.474124D+00
              MO Center=  9.6D-01, -2.7D-01, -9.9D-01, r^2= 3.4D+00
   Bfn.  Coefficient  Atom+Function         Bfn.  Coefficient  Atom+Function  
  ----- ------------  ---------------      ----- ------------  ---------------
    66      2.156516   3 C  s                36      1.443924   2 C  s         
    67     -1.365115   3 C  s                 5     -1.156629   1 O  s         
    97      0.989912   4 C  s                98     -0.991249   4 C  s         
   103      0.980665   4 C  py              133      0.948115   6 H  s         
    71     -0.892671   3 C  px              132     -0.884454   6 H  s         
 
 Vector   70  Occ=0.000000D+00  E= 1.478469D+00
              MO Center=  9.6D-01, -3.9D-01, -1.0D+00, r^2= 3.3D+00
   Bfn.  Coefficient  Atom+Function         Bfn.  Coefficient  Atom+Function  
  ----- ------------  ---------------      ----- ------------  ---------------
    36      2.819737   2 C  s               156     -2.744912  10 H  s         
   157      2.123837  10 H  s               102     -2.031194   4 C  px        
   104     -1.815966   4 C  pz               66     -1.724700   3 C  s         
   126      1.713682   5 H  s               103      1.699652   4 C  py        
   127     -1.351405   5 H  s                35     -1.322815   2 C  s         
 
 Vector   71  Occ=0.000000D+00  E= 1.515996D+00
              MO Center=  4.1D-01,  5.4D-02, -3.9D-01, r^2= 4.0D+00
   Bfn.  Coefficient  Atom+Function         Bfn.  Coefficient  Atom+Function  
  ----- ------------  ---------------      ----- ------------  ---------------
    98      2.266592   4 C  s               144      1.938493   8 H  s         
   102     -1.691298   4 C  px              145     -1.453341   8 H  s         
   103     -1.440790   4 C  py               45      1.250409   2 C  pz        
   150     -1.077815   9 H  s                66      0.965727   3 C  s         
    97     -0.881791   4 C  s               106      0.794787   4 C  py        
 
 Vector   72  Occ=0.000000D+00  E= 1.544171D+00
              MO Center=  2.8D-01,  4.9D-01, -1.6D-01, r^2= 4.5D+00
   Bfn.  Coefficient  Atom+Function         Bfn.  Coefficient  Atom+Function  
  ----- ------------  ---------------      ----- ------------  ---------------
    36      4.522664   2 C  s                35     -3.941225   2 C  s         
    98     -3.789866   4 C  s                97      3.297066   4 C  s         
    67     -2.552765   3 C  s                73      2.197559   3 C  pz        
   132     -1.833027   6 H  s               133      1.428089   6 H  s         
   138      1.400437   7 H  s                34      1.392816   2 C  s         
 
 Vector   73  Occ=0.000000D+00  E= 1.578936D+00
              MO Center=  5.1D-01, -5.2D-02, -7.2D-02, r^2= 3.2D+00
   Bfn.  Coefficient  Atom+Function         Bfn.  Coefficient  Atom+Function  
  ----- ------------  ---------------      ----- ------------  ---------------
    35      3.672477   2 C  s                36     -2.940330   2 C  s         
    40     -2.195313   2 C  px               67      1.866631   3 C  s         
    97     -1.775498   4 C  s               126      1.781704   5 H  s         
    72      1.714148   3 C  py               34     -1.479780   2 C  s         
    66     -1.401731   3 C  s                45      1.347304   2 C  pz        
 
 Vector   74  Occ=0.000000D+00  E= 1.602532D+00
              MO Center=  3.7D-01,  3.3D-01, -1.8D-01, r^2= 3.4D+00
   Bfn.  Coefficient  Atom+Function         Bfn.  Coefficient  Atom+Function  
  ----- ------------  ---------------      ----- ------------  ---------------
    66      5.324420   3 C  s                36      5.157082   2 C  s         
    35     -4.614586   2 C  s                67     -3.979543   3 C  s         
    41     -3.757162   2 C  py               71      2.532233   3 C  px        
    72     -2.350717   3 C  py               40      1.906945   2 C  px        
   104     -1.660997   4 C  pz               82     -1.647364   3 C  d -2      
 
 Vector   75  Occ=0.000000D+00  E= 1.645333D+00
              MO Center=  4.3D-01,  2.3D-01, -2.5D-03, r^2= 3.6D+00
   Bfn.  Coefficient  Atom+Function         Bfn.  Coefficient  Atom+Function  
  ----- ------------  ---------------      ----- ------------  ---------------
    35      2.415006   2 C  s                66      2.406435   3 C  s         
    98      2.021637   4 C  s                 5     -1.709134   1 O  s         
    97     -1.535065   4 C  s                67     -1.138872   3 C  s         
   144      1.065456   8 H  s               104     -1.055520   4 C  pz        
   150     -0.965758   9 H  s               103     -0.957311   4 C  py        
 
 Vector   76  Occ=0.000000D+00  E= 1.694141D+00
              MO Center=  4.6D-01,  2.8D-01, -3.8D-01, r^2= 3.9D+00
   Bfn.  Coefficient  Atom+Function         Bfn.  Coefficient  Atom+Function  
  ----- ------------  ---------------      ----- ------------  ---------------
    97     -5.737840   4 C  s                35      5.219030   2 C  s         
    42     -3.050177   2 C  pz              104     -3.018780   4 C  pz        
    72     -1.887565   3 C  py              102      1.775249   4 C  px        
    34     -1.594809   2 C  s               138      1.586398   7 H  s         
    40      1.568179   2 C  px               96      1.523655   4 C  s         
 
 Vector   77  Occ=0.000000D+00  E= 1.701125D+00
              MO Center=  2.8D-02,  1.5D-01, -9.1D-02, r^2= 3.6D+00
   Bfn.  Coefficient  Atom+Function         Bfn.  Coefficient  Atom+Function  
  ----- ------------  ---------------      ----- ------------  ---------------
     5      3.737279   1 O  s                72      3.012765   3 C  py        
    36     -2.217076   2 C  s                66     -2.069516   3 C  s         
   138     -1.764733   7 H  s                12      1.449093   1 O  px        
    41      1.256978   2 C  py               43      1.160869   2 C  px        
    44     -0.976123   2 C  py               42      0.877940   2 C  pz        
 
 Vector   78  Occ=0.000000D+00  E= 1.791834D+00
              MO Center=  3.6D-01,  2.6D-01,  4.2D-02, r^2= 3.5D+00
   Bfn.  Coefficient  Atom+Function         Bfn.  Coefficient  Atom+Function  
  ----- ------------  ---------------      ----- ------------  ---------------
    35      3.388449   2 C  s                97     -2.796141   4 C  s         
    36      1.743002   2 C  s                45     -1.273734   2 C  pz        
   104     -1.187854   4 C  pz                5     -1.167585   1 O  s         
    42     -1.077749   2 C  pz               67     -1.059643   3 C  s         
    72      1.050135   3 C  py              102      0.952086   4 C  px        
 
 Vector   79  Occ=0.000000D+00  E= 1.817334D+00
              MO Center= -5.9D-01,  1.6D-01,  1.7D-01, r^2= 2.6D+00
   Bfn.  Coefficient  Atom+Function         Bfn.  Coefficient  Atom+Function  
  ----- ------------  ---------------      ----- ------------  ---------------
    35      3.951350   2 C  s                 5     -3.202435   1 O  s         
    40     -2.403657   2 C  px               41      2.120453   2 C  py        
    72      1.972948   3 C  py               66     -1.734908   3 C  s         
    71     -1.651885   3 C  px               12     -1.347236   1 O  px        
   132     -1.054151   6 H  s               138     -1.045616   7 H  s         
 
 Vector   80  Occ=0.000000D+00  E= 1.846067D+00
              MO Center=  1.3D-01,  2.4D-01, -1.4D-01, r^2= 3.8D+00
   Bfn.  Coefficient  Atom+Function         Bfn.  Coefficient  Atom+Function  
  ----- ------------  ---------------      ----- ------------  ---------------
    35      2.332908   2 C  s                97     -1.026245   4 C  s         
   104     -1.022856   4 C  pz              156     -0.971486  10 H  s         
    36     -0.865973   2 C  s                71     -0.771468   3 C  px        
   150      0.680871   9 H  s               157      0.670038  10 H  s         
   126     -0.620105   5 H  s               151     -0.576709   9 H  s         
 
 Vector   81  Occ=0.000000D+00  E= 1.868523D+00
              MO Center=  4.5D-01,  2.2D-01, -4.0D-01, r^2= 4.0D+00
   Bfn.  Coefficient  Atom+Function         Bfn.  Coefficient  Atom+Function  
  ----- ------------  ---------------      ----- ------------  ---------------
    35      6.369383   2 C  s                66     -4.243011   3 C  s         
    72      3.473696   3 C  py               97     -3.252845   4 C  s         
    36      2.279004   2 C  s               104     -1.790869   4 C  pz        
    67     -1.704785   3 C  s                34     -1.599715   2 C  s         
    41      1.596270   2 C  py               45     -1.394450   2 C  pz        
 
 Vector   82  Occ=0.000000D+00  E= 1.920951D+00
              MO Center=  3.2D-01, -1.5D-01, -3.0D-01, r^2= 3.2D+00
   Bfn.  Coefficient  Atom+Function         Bfn.  Coefficient  Atom+Function  
  ----- ------------  ---------------      ----- ------------  ---------------
    36      1.483211   2 C  s                98     -1.418912   4 C  s         
    45     -1.261468   2 C  pz              103     -1.230356   4 C  py        
    97     -1.192639   4 C  s                35      1.057884   2 C  s         
    66     -0.805759   3 C  s                42     -0.799334   2 C  pz        
   150     -0.765611   9 H  s                41      0.758374   2 C  py        
 
 Vector   83  Occ=0.000000D+00  E= 1.991436D+00
              MO Center=  8.3D-01, -2.2D-01, -3.4D-01, r^2= 3.4D+00
   Bfn.  Coefficient  Atom+Function         Bfn.  Coefficient  Atom+Function  
  ----- ------------  ---------------      ----- ------------  ---------------
    98      3.502231   4 C  s                35      3.301737   2 C  s         
    66     -2.622287   3 C  s                40     -2.264413   2 C  px        
    72      1.904404   3 C  py               41      1.698396   2 C  py        
    43     -1.546391   2 C  px               36     -1.420503   2 C  s         
    67     -1.364204   3 C  s                71     -1.349147   3 C  px        
 
 Vector   84  Occ=0.000000D+00  E= 1.995452D+00
              MO Center=  6.4D-01, -1.1D-01, -7.6D-01, r^2= 3.5D+00
   Bfn.  Coefficient  Atom+Function         Bfn.  Coefficient  Atom+Function  
  ----- ------------  ---------------      ----- ------------  ---------------
    36      4.489479   2 C  s                98     -3.964141   4 C  s         
    45     -2.088172   2 C  pz               35     -2.047653   2 C  s         
    67     -1.634576   3 C  s               156      1.129791  10 H  s         
   107     -1.033633   4 C  pz              104      0.999018   4 C  pz        
     5     -0.839978   1 O  s                34      0.827263   2 C  s         
 
 Vector   85  Occ=0.000000D+00  E= 2.093160D+00
              MO Center= -5.6D-02,  1.2D-01,  1.1D-02, r^2= 3.4D+00
   Bfn.  Coefficient  Atom+Function         Bfn.  Coefficient  Atom+Function  
  ----- ------------  ---------------      ----- ------------  ---------------
    36      3.276690   2 C  s                98     -2.239354   4 C  s         
    67     -1.528285   3 C  s                35     -1.020584   2 C  s         
   138     -0.702618   7 H  s                13      0.683838   1 O  py        
   156      0.662399  10 H  s                71      0.625809   3 C  px        
    40     -0.582331   2 C  px              144      0.575709   8 H  s         
 
 Vector   86  Occ=0.000000D+00  E= 2.100368D+00
              MO Center= -3.1D-01,  5.8D-02,  8.6D-03, r^2= 3.1D+00
   Bfn.  Coefficient  Atom+Function         Bfn.  Coefficient  Atom+Function  
  ----- ------------  ---------------      ----- ------------  ---------------
    67     -5.420221   3 C  s                36      5.235414   2 C  s         
    66      3.240410   3 C  s                35     -3.159205   2 C  s         
    41     -3.057260   2 C  py               71      2.677461   3 C  px        
    13      1.755849   1 O  py               82     -1.401240   3 C  d -2      
    55      1.295119   2 C  d  2             75      1.297195   3 C  py        
 
 Vector   87  Occ=0.000000D+00  E= 2.168453D+00
              MO Center=  5.3D-01, -7.0D-02, -4.9D-01, r^2= 3.2D+00
   Bfn.  Coefficient  Atom+Function         Bfn.  Coefficient  Atom+Function  
  ----- ------------  ---------------      ----- ------------  ---------------
    98      2.268599   4 C  s                67     -1.819865   3 C  s         
    35     -1.517986   2 C  s                73      1.064566   3 C  pz        
    40      0.928085   2 C  px              156     -0.918868  10 H  s         
    43     -0.807421   2 C  px               44      0.810946   2 C  py        
    36      0.796774   2 C  s                45      0.799425   2 C  pz        
 
 Vector   88  Occ=0.000000D+00  E= 2.200616D+00
              MO Center=  4.3D-01,  2.1D-01, -3.2D-01, r^2= 3.7D+00
   Bfn.  Coefficient  Atom+Function         Bfn.  Coefficient  Atom+Function  
  ----- ------------  ---------------      ----- ------------  ---------------
    98      2.262948   4 C  s                36     -1.504528   2 C  s         
    45      1.119169   2 C  pz               76     -0.969960   3 C  pz        
   132      0.731556   6 H  s               103     -0.676484   4 C  py        
    42     -0.660129   2 C  pz               97     -0.657074   4 C  s         
   117     -0.607345   4 C  d  2            138     -0.567404   7 H  s         
 
 Vector   89  Occ=0.000000D+00  E= 2.233127D+00
              MO Center=  7.5D-01, -1.2D-01, -2.3D-01, r^2= 3.5D+00
   Bfn.  Coefficient  Atom+Function         Bfn.  Coefficient  Atom+Function  
  ----- ------------  ---------------      ----- ------------  ---------------
    36      3.351336   2 C  s                67     -1.745073   3 C  s         
    98     -1.576645   4 C  s                 5     -1.082258   1 O  s         
    42     -0.956748   2 C  pz               45     -0.835425   2 C  pz        
   150      0.830152   9 H  s                43     -0.757882   2 C  px        
    72     -0.657336   3 C  py              102      0.645908   4 C  px        
 
 Vector   90  Occ=0.000000D+00  E= 2.247617D+00
              MO Center=  6.6D-01, -2.0D-01, -6.7D-01, r^2= 3.7D+00
   Bfn.  Coefficient  Atom+Function         Bfn.  Coefficient  Atom+Function  
  ----- ------------  ---------------      ----- ------------  ---------------
   150      1.222561   9 H  s               144     -0.932930   8 H  s         
    36      0.842698   2 C  s                66     -0.804172   3 C  s         
   117      0.781964   4 C  d  2             72      0.762937   3 C  py        
    98     -0.721461   4 C  s                67     -0.629409   3 C  s         
    83      0.558247   3 C  d -1              5      0.506336   1 O  s         
 
 Vector   91  Occ=0.000000D+00  E= 2.266949D+00
              MO Center=  9.4D-01, -2.7D-01, -1.1D+00, r^2= 3.0D+00
   Bfn.  Coefficient  Atom+Function         Bfn.  Coefficient  Atom+Function  
  ----- ------------  ---------------      ----- ------------  ---------------
    66      2.322496   3 C  s                36      1.801051   2 C  s         
    41     -1.558406   2 C  py               67     -1.332557   3 C  s         
    35     -1.254659   2 C  s                72     -1.084486   3 C  py        
    98     -1.002946   4 C  s               156      0.953895  10 H  s         
    71      0.936053   3 C  px              126     -0.916419   5 H  s         
 
 Vector   92  Occ=0.000000D+00  E= 2.286268D+00
              MO Center=  4.8D-01,  1.5D-01, -1.8D-01, r^2= 3.6D+00
   Bfn.  Coefficient  Atom+Function         Bfn.  Coefficient  Atom+Function  
  ----- ------------  ---------------      ----- ------------  ---------------
    98      3.558276   4 C  s                36     -2.237759   2 C  s         
[...]
    21     -0.872048   1 O  d -1             42     -0.803482   2 C  pz        
    97     -0.714710   4 C  s                45     -0.697566   2 C  pz        
    98     -0.521498   4 C  s                 5     -0.516139   1 O  s         
    67     -0.504243   3 C  s                83     -0.490816   3 C  d -1      
 
 Vector  154  Occ=0.000000D+00  E= 6.676721D+00
              MO Center= -8.7D-01, -1.8D-01,  2.0D-01, r^2= 5.7D-01
   Bfn.  Coefficient  Atom+Function         Bfn.  Coefficient  Atom+Function  
  ----- ------------  ---------------      ----- ------------  ---------------
    18      1.063080   1 O  d  1             23     -1.036842   1 O  d  1      
    97     -0.852916   4 C  s                42     -0.779483   2 C  pz        
    35      0.756142   2 C  s               102      0.642473   4 C  px        
    54     -0.548470   2 C  d  1             14      0.404694   1 O  pz        
    16     -0.390200   1 O  d -1             11      0.387908   1 O  pz        
 
 Vector  155  Occ=0.000000D+00  E= 6.842580D+00
              MO Center= -8.8D-01, -1.9D-01,  2.0D-01, r^2= 5.9D-01
   Bfn.  Coefficient  Atom+Function         Bfn.  Coefficient  Atom+Function  
  ----- ------------  ---------------      ----- ------------  ---------------
     5      2.113093   1 O  s                40      1.773481   2 C  px        
     9      1.361421   1 O  px               97     -1.284803   4 C  s         
     4      1.205469   1 O  s                20      1.048727   1 O  d -2      
    42     -0.976905   2 C  pz               35     -0.852475   2 C  s         
    12      0.847608   1 O  px               15     -0.833853   1 O  d -2      
 
 Vector  156  Occ=0.000000D+00  E= 7.056806D+00
              MO Center= -8.9D-01, -1.9D-01,  2.0D-01, r^2= 6.4D-01
   Bfn.  Coefficient  Atom+Function         Bfn.  Coefficient  Atom+Function  
  ----- ------------  ---------------      ----- ------------  ---------------
    66     -3.157635   3 C  s                35      3.031815   2 C  s         
    40     -2.729639   2 C  px               72      2.703264   3 C  py        
    24     -1.579589   1 O  d  2             36      1.451068   2 C  s         
    67     -1.307138   3 C  s                10      1.281628   1 O  py        
    19      1.017294   1 O  d  2             13      0.865887   1 O  py        
 
 Vector  157  Occ=0.000000D+00  E= 2.196914D+01
              MO Center=  9.3D-01, -2.4D-01, -8.9D-01, r^2= 1.2D+00
   Bfn.  Coefficient  Atom+Function         Bfn.  Coefficient  Atom+Function  
  ----- ------------  ---------------      ----- ------------  ---------------
    98     -1.615777   4 C  s                95      1.566965   4 C  s         
    96     -1.389083   4 C  s                67      1.251208   3 C  s         
    94     -1.235218   4 C  s                64     -0.708085   3 C  s         
    36     -0.579479   2 C  s                63      0.559310   3 C  s         
    65      0.515183   3 C  s                40      0.495248   2 C  px        
 
 Vector  158  Occ=0.000000D+00  E= 2.200697D+01
              MO Center=  1.4D-01,  6.0D-01,  2.0D-01, r^2= 9.0D-01
   Bfn.  Coefficient  Atom+Function         Bfn.  Coefficient  Atom+Function  
  ----- ------------  ---------------      ----- ------------  ---------------
    64      1.393629   3 C  s                65     -1.301409   3 C  s         
    34     -1.205958   2 C  s                63     -1.091922   3 C  s         
    33      1.046690   2 C  s                36     -1.036539   2 C  s         
    35      0.858491   2 C  s                32     -0.817446   2 C  s         
   138      0.447356   7 H  s                96     -0.393795   4 C  s         
 
 Vector  159  Occ=0.000000D+00  E= 2.210613D+01
              MO Center=  5.1D-01,  5.8D-02, -5.4D-02, r^2= 9.8D-01
   Bfn.  Coefficient  Atom+Function         Bfn.  Coefficient  Atom+Function  
  ----- ------------  ---------------      ----- ------------  ---------------
    36      2.059460   2 C  s                33     -1.383221   2 C  s         
    34      1.339490   2 C  s                67     -1.266220   3 C  s         
    35     -1.233118   2 C  s                98     -1.216596   4 C  s         
    32      1.084072   2 C  s                64      0.839808   3 C  s         
    95      0.733921   4 C  s                97      0.720745   4 C  s         
 
 Vector  160  Occ=0.000000D+00  E= 4.341409D+01
              MO Center= -8.8D-01, -1.8D-01,  2.0D-01, r^2= 1.2D-01
   Bfn.  Coefficient  Atom+Function         Bfn.  Coefficient  Atom+Function  
  ----- ------------  ---------------      ----- ------------  ---------------
     4      2.503946   1 O  s                 3     -1.873746   1 O  s         
     2      1.731476   1 O  s                 1     -1.395832   1 O  s         
     5     -0.879295   1 O  s                36      0.832286   2 C  s         
     9      0.560859   1 O  px               66     -0.502092   3 C  s         
    40      0.467192   2 C  px               72      0.452200   3 C  py        
 

 center of mass
 --------------
 x =   0.30619377 y =   0.09486526 z =  -0.27792445

 moments of inertia (a.u.)
 ------------------
         199.736642084624          45.665501232817          83.775578678498
          45.665501232817         247.797014035609         -52.643135372297
          83.775578678498         -52.643135372297         238.839307031050
 
     Multipole analysis of the density
     ---------------------------------
 
     L   x y z        total         alpha         beta         nuclear
     -   - - -        -----         -----         ----         -------
     0   0 0 0     -0.000000    -16.000000    -16.000000     32.000000
 
     1   1 0 0      0.689482     -6.226865     -6.226865     13.143212
     1   0 1 0      0.335997     -1.604731     -1.604731      3.545459
     1   0 0 1     -0.056577      5.322412      5.322412    -10.701401
 
     2   2 0 0    -20.010259    -54.347359    -54.347359     88.684458
     2   1 1 0     -1.118347     13.886770     13.886770    -28.891888
     2   1 0 1      0.148809     26.478626     26.478626    -52.808444
     2   0 2 0    -17.780481    -40.364662    -40.364662     62.948843
     2   0 1 1      0.262717    -15.386201    -15.386201     31.035120
     2   0 0 2    -18.189401    -45.639979    -45.639979     73.090558
 
 *** CALLING NEW AORESP DRIVER FOR CLOSED AND OPEN SHELLS ***
 Entering AOResponse driver routine


--------------------------------------------------------------------------------

          ****************
          *** RESPONSE ***
          ****************

 Response module for NWChem and dynamic CPKS solver
 developed by J. Autschbach and coworkers, SUNY Buffalo
 The methodology used in this program is described in 
 ChemPhysChem 12 (2011), 3224-3235 (main reference)
 J. Chem. Phys. 123 (2005), 114103
 J. Chem. Phys. 122 (2005), 224115
 J. Chem. Phys. 122 (2005), 074105
 Comp. Lett. 3 (2007), 131-150 (contact JA for a copy)
 Please cite this work in publications based on results
 obtained with this code. Thank you!

 For extension of response module to open shell
 calculations please acknowledge:
 F. Aquino, Northwestern University, Schatz Rsrch Group
 The update to the methodology is described in
 J. Phys. Chem. A 118 (2014) 517-525



          -----------------------------------------------
          Solving response equations for perturbing field
          -----------------------------------------------

 number of frequencies:     1
 frequency in a.u.:  0.9319600E-01
 Perturbing field: electric
 Using GIAO formalism for OptRot
 Adding quadrupole terms to OptRot
 to create an origin in dependent tensor.
 Using El. Dipole Length Gauge
 
 Applying DAMPING constant of  0.003700 a.u.
 
 Setting up CPKS
 with frequency omega =      0.09319600 a.u.
 and a damping of            0.00370000 a.u.

 
                            NWChem Dynamic CPHF Module
                            --------------------------
 
 
    scftype = RHF 
    nclosed =   16
      nopen =    0
  variables =     9216
  num. vecs =        3
  tolerance =   1.0D-07
  max. iter =  100

 SCF residual:   5.941288457884009E-006


Iterative solution of linear equations
  No. of variables     4608
  No. of equations        3
  Maximum subspace       99
       Convergence  1.0D-07
        Start time     94.4


   iter   nsub   residual    time 
   ----  ------  --------  --------- 
 dft_CPHF2_read: failed to open
 ./methyloxirane_blyp-def2-tzvp_488.9_44.inp.aoresp_fiao_f1
     1      3    3.68D+00     143.7
     2      6    2.69D+00     193.3
     3      9    2.47D-01     242.8
     4     12    5.78D-02     292.7
     5     15    1.02D-02     342.2
     6     18    1.17D-03     391.9
     7     21    1.29D-04     441.6
     8     24    1.13D-05     491.3
     9     27    1.30D-06     540.9
    10     30    4.17D-07     590.9
    11     33    1.82D-08     640.5

 Calculating some arrays needed for GIAO optical rotation

    0 giaofock schwarz done =      92.05%
    0 giaofock schwarz done =      93.14%
 aor_r1_tensor_giao: roadata output requested
 dip-quad polarizability Re:

              1        2        3        4        5        6      
    1   77.4392  -6.5705 -27.4783  -4.0873   1.1208   9.2392
    2  -11.6482  25.9556   3.1887  21.5494 -21.5448   3.3093
    3   -6.4425   0.9302  39.7378   0.0660  11.9009 -42.1612
 traceless dip-quad polarizability:

              1        2        3      
    1   74.8632  -9.8557 -41.2174
    2   -9.8557 -47.4265   1.6813
    3  -41.2174   1.6813 -27.4368

              1        2        3      
    1  -24.0776  38.9333   4.7830
    2   38.9333  25.7189 -32.3172
    3    4.7830 -32.3172  -1.6413

              1        2        3      
    1   14.6051   1.3953  59.6067
    2    1.3953  24.3678  17.8514
    3   59.6067  17.8514 -38.9729

 roa begin

 alpha real:
 XX       0.4097042994178E+02
 XY      -0.5140805622251E+01
 XZ      -0.2986657998292E+01
 YX      -0.5140805638207E+01
 YY       0.4362750868875E+02
 YZ       0.3107576502986E+01
 ZX      -0.2986658002939E+01
 ZY       0.3107576502217E+01
 ZZ       0.4104304477419E+02

 alpha im:
 XX       0.1111135311481E+00
 XY      -0.2963876620762E-01
 XZ      -0.1083073911390E-01
 YX      -0.2963876025598E-01
 YY       0.1267606454066E+00
 YZ       0.1778683683230E-01
 ZX      -0.1083073560588E-01
 ZY       0.1778683689744E-01
 ZZ       0.1199723431244E+00

 beta real:
 XX      -0.1372291858968E+00
 XY       0.9468527286228E+00
 XZ       0.1866672266482E+00
 YX      -0.8976811843506E+00
 YY       0.1386209128240E+00
 YZ      -0.1547751311427E+01
 ZX      -0.3980741223385E+00
 ZY       0.1887151772069E+01
 ZZ      -0.6839665346241E-02

 G-prime = -omega beta(real):
 XX      -0.1372291858968E+00
 XY       0.9468527286228E+00
 XZ       0.1866672266482E+00
 YX      -0.8976811843506E+00
 YY       0.1386209128240E+00
 YZ      -0.1547751311427E+01
 ZX      -0.3980741223385E+00
 ZY       0.1887151772069E+01
 ZZ      -0.6839665346241E-02

 beta im:
 XX      -0.5926960204637E-02
 XY       0.1366349661406E-01
 XZ       0.2619311909372E-02
 YX      -0.7843962313488E-02
 YY       0.4545792020895E-02
 YZ      -0.2348541796050E-01
 ZX      -0.1089763538840E-01
 ZY       0.4052588752968E-01
 ZZ       0.4991366969602E-03

 G-prime = -omega beta(imag):
 XX      -0.5926960204637E-02
 XY       0.1366349661406E-01
 XZ       0.2619311909372E-02
 YX      -0.7843962313488E-02
 YY       0.4545792020895E-02
 YZ      -0.2348541796050E-01
 ZX      -0.1089763538840E-01
 ZY       0.4052588752968E-01
 ZZ       0.4991366969602E-03

 dipole-quadrupole real (Cartesian):
 XXX      0.7743920717604E+02
 XXY     -0.6570498740777E+01
 XXZ     -0.2747829631340E+02
 XYY     -0.4087256199263E+01
 XYZ      0.1120845737811E+01
 XZZ      0.9239225075831E+01
 YXX     -0.1164822134482E+02
 YXY      0.2595555047369E+02
 YXZ      0.3188683024243E+01
 YYY      0.2154942067855E+02
 YYZ     -0.2154481765181E+02
 YZZ      0.3309264766774E+01
 ZXX     -0.6442459003706E+01
 ZXY      0.9302221781270E+00
 ZXZ      0.3973783084669E+02
 ZYY      0.6602281205834E-01
 ZYZ      0.1190093354356E+02
 ZZZ     -0.4216115644401E+02

 dipole-quadrupole imag (Cartesian):
 XXX      0.2709669843875E+00
 XXY     -0.3593360511071E-01
 XXZ     -0.7539995532024E-01
 XYY     -0.2633013915363E-01
 XYZ      0.1442279997967E-02
 XZZ      0.6171145711070E-01
 YXX     -0.5564635453964E-01
 YXY      0.6429522602255E-01
 YXZ      0.1789660463259E-01
 YYY      0.8293228440793E-01
 YYZ     -0.6022309903595E-01
 YZZ      0.4554339447241E-02
 ZXX     -0.3268156386809E-01
 ZXY     -0.1350980605085E-02
 ZXZ      0.1481081618165E+00
 ZYY      0.7027218884662E-02
 ZYZ      0.5201207015480E-01
 ZZZ     -0.1039956517670E+00

 dipole-quadrupole (traceless):
 XXX      0.7486322273776E+02
 XXY     -0.9855748111165E+01
 XXZ     -0.4121744447011E+02
 XYY     -0.4742647232520E+02
 XYZ      0.1681268606717E+01
 XZZ     -0.2743675041256E+02
 YXX     -0.2407756406748E+02
 YXY      0.3893332571053E+02
 YXZ      0.4783024536364E+01
 YYY      0.2571889896757E+02
 YYZ     -0.3231722647772E+02
 YZZ     -0.1641334900092E+01
 ZXX      0.1460510781227E+02
 ZXY      0.1395333267191E+01
 ZXZ      0.5960674627004E+02
 ZYY      0.2436783053592E+02
 ZYZ      0.1785140031533E+02
 ZZZ     -0.3897293834819E+02

 roa end


 Electric Dipole Response Matrix (nonzero elements):

              1        2        3      
    1   40.9704  -5.1408  -2.9867
    2   -5.1408  43.6275   3.1076
    3   -2.9867   3.1076  41.0430
 
 Imaginary part:

              1        2        3      
    1    0.1111  -0.0296  -0.0108
    2   -0.0296   0.1268   0.0178
    3   -0.0108   0.0178   0.1200

 ------------------------------------------
 average:        41.88033 + I       0.11928


 DFT Linear Response polarizability / au 
 Frequency  =       0.0931960 / au
 Wavelength =     488.8981609 / nm
              X              Y              Z
 -----------------------------------------------
 X      40.9704299     -5.1408056     -2.9866580
 Y      -5.1408056     43.6275087      3.1075765
 Z      -2.9866580      3.1075765     41.0430448
 -----------------------------------------------
 Eigenvalues =      36.9025307     49.7275835     39.0108693
 Isotropic   =      41.8803278
 Anisotropic =       9.7258253
 -----------------------------------------------
 *************************

 DFT Linear Response IMAG polarizability / au 
 Frequency  =       0.0931960 / au
 Wavelength =     488.8981609 / nm
              X              Y              Z
 -----------------------------------------------
 X       0.1111135     -0.0296388     -0.0108307
 Y      -0.0296388      0.1267606      0.0177868
 Z      -0.0108307      0.0177868      0.1199723
 -----------------------------------------------
 Eigenvalues =       0.0880757      0.1602491      0.1095217
 Isotropic   =       0.1192822
 Anisotropic =       0.0524156
 -----------------------------------------------
 *************************

 Magnetic Dipole Response Matrix (nonzero elements):
 Optical rotation tensor Beta
 (Buckingham-Dunn version including dipole-quadrupole terms)

              1        2        3      
    1    2.6017  -0.4076   0.2557
    2   -0.4076  -1.5827  -1.7069
    3    0.2557  -1.7069  -0.9605
 
 Imaginary part:

              1        2        3      
    1    0.0636  -0.1466  -0.0281
    2    0.0842  -0.0488   0.2520
    3    0.1169  -0.4348  -0.0054

 ------------------------------------------
 average:         0.01949 + I       0.00315

 Principal components and PAS (Real part)
                 -3.01070
                  2.69920
                  0.36995
 ------------------------
 average:         0.01949

              1        2        3      
    1    0.0269   0.9794  -0.2002
    2    0.7699  -0.1480  -0.6208
    3    0.6376   0.1375   0.7580

 Chiral response tensor (Real part):

              1        2        3      
    1   -1.2716   0.2038  -0.1279
    2    0.2038   0.8206   0.8535
    3   -0.1279   0.8535   0.5095
 
 Principal components and PAS (Real part)
                  1.53458
                 -1.32037
                 -0.15575
 ------------------------
 average:         0.01949

              1        2        3      
    1    0.0269   0.9794  -0.2002
    2    0.7699  -0.1480  -0.6208
    3    0.6376   0.1375   0.7580
 Exiting AOResponse driver routine

 Task  times  cpu:      623.7s     wall:      634.8s
 
 
                                NWChem Input Module
                                -------------------
 
 
 Summary of allocated global arrays
-----------------------------------
  No active global arrays



                         GA Statistics for process    0
                         ------------------------------

       create   destroy   get      put      acc     scatter   gather  read&inc
calls: 3294     3294     7.00e+06 3.14e+06 7.20e+05 2694        0     1109     
number of processes/call 1.01e+00 1.03e+00 1.43e+00 0.00e+00 0.00e+00
bytes total:             1.63e+09 1.26e+08 1.72e+09 1.84e+02 0.00e+00 8.87e+03
bytes remote:            6.78e+08 3.29e+07 9.69e+08 0.00e+00 0.00e+00 0.00e+00
Max memory consumed for GA by this process: 11242192 bytes
 
MA_summarize_allocated_blocks: starting scan ...
MA_summarize_allocated_blocks: scan completed: 0 heap blocks, 0 stack blocks
MA usage statistics:

	allocation statistics:
					      heap	     stack
					      ----	     -----
	current number of blocks	         0	         0
	maximum number of blocks	        24	        52
	current total bytes		         0	         0
	maximum total bytes		   7519856	  48969448
	maximum total K-bytes		      7520	     48970
	maximum total M-bytes		         8	        49
 
 
                                     CITATION
                                     --------
                Please cite the following reference when publishing
                           results obtained with NWChem:
 
                 M. Valiev, E.J. Bylaska, N. Govind, K. Kowalski,
              T.P. Straatsma, H.J.J. van Dam, D. Wang, J. Nieplocha,
                        E. Apra, T.L. Windus, W.A. de Jong
                 "NWChem: a comprehensive and scalable open-source
                  solution for large scale molecular simulations"
                      Comput. Phys. Commun. 181, 1477 (2010)
                           doi:10.1016/j.cpc.2010.04.018
 
                                      AUTHORS
                                      -------
          E. Apra, E. J. Bylaska, W. A. de Jong, N. Govind, K. Kowalski,
       T. P. Straatsma, M. Valiev, H. J. J. van Dam, D. Wang, T. L. Windus,
        J. Hammond, J. Autschbach, K. Bhaskaran-Nair, J. Brabec, K. Lopata,
    S. A. Fischer, S. Krishnamoorthy, M. Jacquelin, W. Ma, M. Klemm, O. Villa,
      Y. Chen, V. Anisimov, F. Aquino, S. Hirata, M. T. Hackler, V. Konjkov,
            D. Mejia-Rodriguez, T. Risthaus, M. Malagoli, A. Marenich,
   A. Otero-de-la-Roza, J. Mullin, P. Nichols, R. Peverati, J. Pittner, Y. Zhao,
        P.-D. Fan, A. Fonari, M. J. Williamson, R. J. Harrison, J. R. Rehr,
      M. Dupuis, D. Silverstein, D. M. A. Smith, J. Nieplocha, V. Tipparaju,
    M. Krishnan, B. E. Van Kuiken, A. Vazquez-Mayagoitia, L. Jensen, M. Swart,
      Q. Wu, T. Van Voorhis, A. A. Auer, M. Nooijen, L. D. Crosby, E. Brown,
      G. Cisneros, G. I. Fann, H. Fruchtl, J. Garza, K. Hirao, R. A. Kendall,
      J. A. Nichols, K. Tsemekhman, K. Wolinski, J. Anchell, D. E. Bernholdt,
      P. Borowski, T. Clark, D. Clerc, H. Dachsel, M. J. O. Deegan, K. Dyall,
    D. Elwood, E. Glendening, M. Gutowski, A. C. Hess, J. Jaffe, B. G. Johnson,
     J. Ju, R. Kobayashi, R. Kutteh, Z. Lin, R. Littlefield, X. Long, B. Meng,
      T. Nakajima, S. Niu, L. Pollack, M. Rosing, K. Glaesemann, G. Sandrone,
      M. Stave, H. Taylor, G. Thomas, J. H. van Lenthe, A. T. Wong, Z. Zhang.

 Total times  cpu:      696.8s     wall:      710.0s
