 argument  1 = methyloxirane_blyp-def2-tzvp_488.9_19.inp
 


============================== echo of input deck ==============================
echo
start methyloxirane_blyp-def2-tzvp_488.9_19.inp
title "methyloxirane roa calculations at 488.9 nm, input generated in va  with delta_type=2"
charge 0



geometry units angstrom nocenter noautoz noautosym nucleus point;symmetry c1
 O -0.879107 -0.180295  0.205258
 C  0.574246 -0.157702  0.122663
 C -0.185517  1.088386  0.340095
 C  1.184419 -0.519978 -1.210285
 H  1.057948 -0.603274  0.997075
 H -0.228083  1.538035  1.335351
 H -0.325300  1.782098 -0.492682
 H  2.261903 -0.210006 -1.246137
 H  1.141436 -1.623964 -1.376599
 H  0.644499 -0.020572 -2.043950
end

basis spherical
* library def2-TZVP
end

 set prop:newaoresp 1
 set aor:roadata T
 set cphf:maxsub 100
 set cphf:acc 1.0d-10
 set cphf:maxiter 100

property
    response 1   0.093196
    bdtensor
    convergence 1e-7
    damping 0.0037
    giao
end

dft
 direct
 mult 1
 xc becke88 lyp
 iterations 250
 tolerances tight
 grid xfine
 convergence nolevelshifting
 convergence energy 1e-8
 convergence gradient 1e-7


end

task dft gradient
task dft property
================================================================================


                                         
                                         
 
 
              Northwest Computational Chemistry Package (NWChem) 6.8
              ------------------------------------------------------
 
 
                    Environmental Molecular Sciences Laboratory
                       Pacific Northwest National Laboratory
                                Richland, WA 99352
 
                              Copyright (c) 1994-2017
                       Pacific Northwest National Laboratory
                            Battelle Memorial Institute
 
             NWChem is an open-source computational chemistry package
                        distributed under the terms of the
                      Educational Community License (ECL) 2.0
             A copy of the license is included with this distribution
                              in the LICENSE.TXT file
 
                                  ACKNOWLEDGMENT
                                  --------------

            This software and its documentation were developed at the
            EMSL at Pacific Northwest National Laboratory, a multiprogram
            national laboratory, operated for the U.S. Department of Energy
            by Battelle under Contract Number DE-AC05-76RL01830. Support
            for this work was provided by the Department of Energy Office
            of Biological and Environmental Research, Office of Basic
            Energy Sciences, and the Office of Advanced Scientific Computing.


           Job information
           ---------------

    hostname        = cpn-f11-18-01.cbls.ccr.buffalo.edu
    program         = /util/academic/nwchem/nwchem-6.8/bin/LINUX64/nwchem
    date            = Fri Mar  1 10:15:26 2019

    compiled        = Tue_Nov_06_14:59:08_2018
    source          = /util/academic/nwchem/nwchem-6.8
    nwchem branch   = 6.8
    nwchem revision = v6.8-47-gdf6c956
    ga revision     = ga-5.6.3
    use scalapack   = F
    input           = methyloxirane_blyp-def2-tzvp_488.9_19.inp
    prefix          = methyloxirane_blyp-def2-tzvp_488.9_19.inp.
    data base       = ./methyloxirane_blyp-def2-tzvp_488.9_19.inp.db
    status          = startup
    nproc           =        7
    time left       =     -1s



           Memory information
           ------------------

    heap     =   13107198 doubles =    100.0 Mbytes
    stack    =   13107195 doubles =    100.0 Mbytes
    global   =   26214400 doubles =    200.0 Mbytes (distinct from heap & stack)
    total    =   52428793 doubles =    400.0 Mbytes
    verify   = yes
    hardfail = no 


           Directory information
           ---------------------
 
  0 permanent = .
  0 scratch   = .
 
 
 
 
                                NWChem Input Module
                                -------------------
 
 
                    methyloxirane roa calculations at 488.9 nm, input generated in va  with delta_type=2
                    ------------------------------------------

 Scaling coordinates for geometry "geometry" by  1.889725989
 (inverse scale =  0.529177249)

 
 
                             Geometry "geometry" -> ""
                             -------------------------
 
 Output coordinates in angstroms (scale by  1.889725989 to convert to a.u.)
 
  No.       Tag          Charge          X              Y              Z
 ---- ---------------- ---------- -------------- -------------- --------------
    1 O                    8.0000    -0.87910700    -0.18029500     0.20525800
    2 C                    6.0000     0.57424600    -0.15770200     0.12266300
    3 C                    6.0000    -0.18551700     1.08838600     0.34009500
    4 C                    6.0000     1.18441900    -0.51997800    -1.21028500
    5 H                    1.0000     1.05794800    -0.60327400     0.99707500
    6 H                    1.0000    -0.22808300     1.53803500     1.33535100
    7 H                    1.0000    -0.32530000     1.78209800    -0.49268200
    8 H                    1.0000     2.26190300    -0.21000600    -1.24613700
    9 H                    1.0000     1.14143600    -1.62396400    -1.37659900
   10 H                    1.0000     0.64449900    -0.02057200    -2.04395000
 
      Atomic Mass 
      ----------- 
 
      O                 15.994910
      C                 12.000000
      H                  1.007825
 

 Effective nuclear repulsion energy (a.u.)     123.3537500695

            Nuclear Dipole moment (a.u.) 
            ----------------------------
        X                 Y               Z
 ---------------- ---------------- ----------------
    13.1495354593     3.5606084796   -10.7148219443
 
 
            XYZ format geometry
            -------------------
    10
 geometry
 O                    -0.87910700    -0.18029500     0.20525800
 C                     0.57424600    -0.15770200     0.12266300
 C                    -0.18551700     1.08838600     0.34009500
 C                     1.18441900    -0.51997800    -1.21028500
 H                     1.05794800    -0.60327400     0.99707500
 H                    -0.22808300     1.53803500     1.33535100
 H                    -0.32530000     1.78209800    -0.49268200
 H                     2.26190300    -0.21000600    -1.24613700
 H                     1.14143600    -1.62396400    -1.37659900
 H                     0.64449900    -0.02057200    -2.04395000
 
 ==============================================================================
                                internuclear distances
 ------------------------------------------------------------------------------
       center one      |      center two      | atomic units |  angstroms
 ------------------------------------------------------------------------------
    2 C                |   1 O                |     2.75120  |     1.45587
    3 C                |   1 O                |     2.74420  |     1.45217
    3 C                |   2 C                |     2.78839  |     1.47555
    4 C                |   2 C                |     2.85361  |     1.51007
    5 H                |   2 C                |     2.06759  |     1.09412
    6 H                |   3 C                |     2.06537  |     1.09295
    7 H                |   3 C                |     2.06516  |     1.09284
    8 H                |   4 C                |     2.11981  |     1.12176
    9 H                |   4 C                |     2.11133  |     1.11727
   10 H                |   4 C                |     2.10084  |     1.11172
 ------------------------------------------------------------------------------
                         number of included internuclear distances:         10
 ==============================================================================



 ==============================================================================
                                 internuclear angles
 ------------------------------------------------------------------------------
        center 1       |       center 2       |       center 3       |  degrees
 ------------------------------------------------------------------------------
    2 C                |   1 O                |   3 C                |    60.98
    2 C                |   1 O                |   3 C                |    60.98
    1 O                |   2 C                |   4 C                |   116.73
    1 O                |   2 C                |   5 H                |   112.93
    3 C                |   2 C                |   4 C                |   122.73
    3 C                |   2 C                |   5 H                |   116.99
    4 C                |   2 C                |   5 H                |   115.41
    3 C                |   1 O                |   2 C                |    60.98
    1 O                |   3 C                |   6 H                |   115.17
    1 O                |   3 C                |   7 H                |   115.01
    2 C                |   3 C                |   6 H                |   120.11
    2 C                |   3 C                |   7 H                |   119.32
    6 H                |   3 C                |   7 H                |   115.33
    2 C                |   4 C                |   8 H                |   110.49
    2 C                |   4 C                |   9 H                |   110.67
    2 C                |   4 C                |  10 H                |   110.97
    8 H                |   4 C                |   9 H                |   107.77
    8 H                |   4 C                |  10 H                |   108.57
    9 H                |   4 C                |  10 H                |   108.27
 ------------------------------------------------------------------------------
                            number of included internuclear angles:         19
 ==============================================================================



  warning:::::::::::::: from_environment
  NWCHEM_BASIS_LIBRARY set to: <
 /util/academic/nwchem/nwchem-6.8/src/basis/libraries>
  but file does not exist !
  using .nwchemrc or compiled library


 Summary of "ao basis" -> "" (spherical)
 ------------------------------------------------------------------------------
       Tag                 Description            Shells   Functions and Types
 ---------------- ------------------------------  ------  ---------------------
 *                         def2-TZVP                  on all atoms 


 
                                 NWChem DFT Module
                                 -----------------
 
 
                    methyloxirane roa calculations at 488.9 nm, input generated in va  with delta_type=2
 
 
                      Basis "ao basis" -> "ao basis" (spherical)
                      -----
  O (Oxygen)
  ----------
            Exponent  Coefficients 
       -------------- ---------------------------------------------------------
  1 S  2.70323826E+04  0.000217
  1 S  4.05238714E+03  0.001684
  1 S  9.22327227E+02  0.008740
  1 S  2.61240710E+02  0.035240
  1 S  8.53546414E+01  0.111535
  1 S  3.10350352E+01  0.255890
 
  2 S  1.22608607E+01  0.397687
  2 S  4.99870760E+00  0.246278
 
  3 S  1.17031082E+00  1.000000
 
  4 S  4.64747410E-01  1.000000
 
  5 S  1.85045364E-01  1.000000
 
  6 P  6.32749548E+01  0.006069
  6 P  1.46270494E+01  0.041913
  6 P  4.45012235E+00  0.161538
  6 P  1.52757996E+00  0.357070
 
  7 P  5.29351179E-01  1.000000
 
  8 P  1.74784213E-01  1.000000
 
  9 D  2.31400000E+00  1.000000
 
 10 D  6.45000000E-01  1.000000
 
 11 F  1.42800000E+00  1.000000
 
  C (Carbon)
  ----------
            Exponent  Coefficients 
       -------------- ---------------------------------------------------------
  1 S  1.35753497E+04  0.000222
  1 S  2.03523337E+03  0.001723
  1 S  4.63225624E+02  0.008926
  1 S  1.31200196E+02  0.035728
  1 S  4.28530159E+01  0.110763
  1 S  1.55841858E+01  0.242956
 
  2 S  6.20671385E+00  0.414403
  2 S  2.57648965E+00  0.237450
 
  3 S  5.76963394E-01  1.000000
 
  4 S  2.29728314E-01  1.000000
 
  5 S  9.51644400E-02  1.000000
 
  6 P  3.46972322E+01  0.005333
  6 P  7.95826228E+00  0.035864
  6 P  2.37808269E+00  0.142159
  6 P  8.14332082E-01  0.342705
 
  7 P  2.88875473E-01  1.000000
 
  8 P  1.00568237E-01  1.000000
 
  9 D  1.09700000E+00  1.000000
 
 10 D  3.18000000E-01  1.000000
 
 11 F  7.61000000E-01  1.000000
 
  H (Hydrogen)
  ------------
            Exponent  Coefficients 
       -------------- ---------------------------------------------------------
  1 S  3.40613410E+01  0.006025
  1 S  5.12357460E+00  0.045021
  1 S  1.16466260E+00  0.201897
 
  2 S  3.27230410E-01  1.000000
 
  3 S  1.03072410E-01  1.000000
 
  4 P  8.00000000E-01  1.000000
 


 Summary of "ao basis" -> "ao basis" (spherical)
 ------------------------------------------------------------------------------
       Tag                 Description            Shells   Functions and Types
 ---------------- ------------------------------  ------  ---------------------
 O                         def2-TZVP                11       31   5s3p2d1f
 C                         def2-TZVP                11       31   5s3p2d1f
 H                         def2-TZVP                 4        6   3s1p




 Summary of "ao basis" -> "ao basis" (spherical)
 ------------------------------------------------------------------------------
       Tag                 Description            Shells   Functions and Types
 ---------------- ------------------------------  ------  ---------------------
 O                         def2-TZVP                11       31   5s3p2d1f
 C                         def2-TZVP                11       31   5s3p2d1f
 H                         def2-TZVP                 4        6   3s1p


  Caching 1-el integrals 
  itol2e modified to match energy
  convergence criterion.
  tol_rho modified to match energy
  convergence criterion.
 
            General Information
            -------------------
          SCF calculation type: DFT
          Wavefunction type:  closed shell.
          No. of atoms     :    10
          No. of electrons :    32
           Alpha electrons :    16
            Beta electrons :    16
          Charge           :     0
          Spin multiplicity:     1
          Use of symmetry is: off; symmetry adaption is: off
          Maximum number of iterations: 250
          This is a Direct SCF calculation.
          AO basis - number of functions:   160
                     number of shells:    68
          Convergence on energy requested:  1.00D-08
          Convergence on density requested:  1.00D-05
          Convergence on gradient requested:  1.00D-07
 
              XC Information
              --------------
                    Becke 1988 Exchange Functional  1.000          
              Lee-Yang-Parr Correlation Functional  1.000          
 
             Grid Information
             ----------------
          Grid used for XC integration:  xfine     
          Radial quadrature: Mura-Knowles        
          Angular quadrature: Lebedev. 
          Tag              B.-S. Rad. Rad. Pts. Rad. Cut. Ang. Pts.
          ---              ---------- --------- --------- ---------
          O                   0.60      100          11.0      1454
          C                   0.70      100          11.0      1454
          H                   0.35      100          12.0      1202
          Grid pruning is: on 
          Number of quadrature shells:  1000
          Spatial weights used:  Erf1
 
          Convergence Information
          -----------------------
          Convergence aids based upon iterative change in 
          total energy or number of iterations. 
          Levelshifting, if invoked, occurs when the 
          HOMO/LUMO gap drops below (HL_TOL):  1.00D-02
          DIIS, if invoked, will attempt to extrapolate 
          using up to (NFOCK): 10 stored Fock matrices.

                    Damping( 0%)  Levelshifting(0.0)       DIIS
                  --------------- ------------------- ---------------
          dE  on:    start             N/A                start   
          dE off:    2 iters           N/A              250 iters 

 
      Screening Tolerance Information
      -------------------------------
          Density screening/tol_rho:  1.00D-11
          AO Gaussian exp screening on grid/accAOfunc:  18
          CD Gaussian exp screening on grid/accCDfunc:  20
          XC Gaussian exp screening on grid/accXCfunc:  20
          Schwarz screening/accCoul:  1.00D-09

 
      Superposition of Atomic Density Guess
      -------------------------------------
 
 Sum of atomic energies:        -190.79714706
 
      Non-variational initial energy
      ------------------------------

 Total energy =    -193.125218
 1-e energy   =    -501.720695
 2-e energy   =     185.241727
 HOMO         =      -0.350468
 LUMO         =       0.090248
 
   Time after variat. SCF:      0.5
   Time prior to 1st pass:      0.5

 Grid_pts file          = ./methyloxirane_blyp-def2-tzvp_488.9_19.inp.gridpts.0
 Record size in doubles =  12289        No. of grid_pts per rec  =   3070
 Max. records in memory =     76        Max. recs in file   =    554552


           Memory utilization after 1st SCF pass: 
           Heap Space remaining (MW):       12.17            12167542
          Stack Space remaining (MW):       13.11            13106116

   convergence    iter        energy       DeltaE   RMS-Dens  Diis-err    time
 ---------------- ----- ----------------- --------- --------- ---------  ------
 d= 0,ls=0.0,diis     1   -193.0194655977 -3.16D+02  9.13D-03  1.06D+00     6.3
 d= 0,ls=0.0,diis     2   -192.8567698505  1.63D-01  7.56D-03  2.57D+00    11.8
 d= 0,ls=0.0,diis     3   -193.0764773606 -2.20D-01  1.80D-03  3.88D-01    17.4
 d= 0,ls=0.0,diis     4   -193.1068050709 -3.03D-02  6.74D-04  1.74D-02    22.9
 d= 0,ls=0.0,diis     5   -193.1083909678 -1.59D-03  2.94D-04  2.71D-03    28.4
 d= 0,ls=0.0,diis     6   -193.1087286781 -3.38D-04  3.13D-05  3.69D-05    34.0
 d= 0,ls=0.0,diis     7   -193.1087330744 -4.40D-06  8.44D-06  4.46D-06    39.5
 d= 0,ls=0.0,diis     8   -193.1087335683 -4.94D-07  2.19D-06  3.28D-07    45.0
 d= 0,ls=0.0,diis     9   -193.1087336042 -3.59D-08  6.87D-07  1.75D-08    50.5
 d= 0,ls=0.0,diis    10   -193.1087336062 -1.97D-09  1.96D-07  2.42D-09    56.0


         Total DFT energy =     -193.108733606159
      One electron energy =     -505.338717954813
           Coulomb energy =      215.879182436890
    Exchange-Corr. energy =      -27.002948157701
 Nuclear repulsion energy =      123.353750069465

 Numeric. integr. density =       31.999999962560

     Total iterative time =     55.5s


 
                       DFT Final Molecular Orbital Analysis
                       ------------------------------------
 
 Vector    1  Occ=2.000000D+00  E=-1.877997D+01
              MO Center= -8.8D-01, -1.8D-01,  2.1D-01, r^2= 1.5D-02
   Bfn.  Coefficient  Atom+Function         Bfn.  Coefficient  Atom+Function  
  ----- ------------  ---------------      ----- ------------  ---------------
     2      0.638477   1 O  s                 1      0.435422   1 O  s         
     3      0.039885   1 O  s                 4     -0.033233   1 O  s         
 
 Vector    2  Occ=2.000000D+00  E=-9.963470D+00
              MO Center=  5.7D-01, -1.6D-01,  1.2D-01, r^2= 2.8D-02
   Bfn.  Coefficient  Atom+Function         Bfn.  Coefficient  Atom+Function  
  ----- ------------  ---------------      ----- ------------  ---------------
    33      0.606913   2 C  s                32      0.467262   2 C  s         
    34      0.042489   2 C  s                36      0.037417   2 C  s         
    35     -0.027111   2 C  s         
 
 Vector    3  Occ=2.000000D+00  E=-9.955769D+00
              MO Center= -1.9D-01,  1.1D+00,  3.4D-01, r^2= 2.8D-02
   Bfn.  Coefficient  Atom+Function         Bfn.  Coefficient  Atom+Function  
  ----- ------------  ---------------      ----- ------------  ---------------
    64      0.607027   3 C  s                63      0.467224   3 C  s         
    65      0.039716   3 C  s         
 
 Vector    4  Occ=2.000000D+00  E=-9.913296D+00
              MO Center=  1.2D+00, -5.2D-01, -1.2D+00, r^2= 2.8D-02
   Bfn.  Coefficient  Atom+Function         Bfn.  Coefficient  Atom+Function  
  ----- ------------  ---------------      ----- ------------  ---------------
    95      0.607046   4 C  s                94      0.467236   4 C  s         
    96      0.040428   4 C  s                98      0.035789   4 C  s         
 
 Vector    5  Occ=2.000000D+00  E=-9.627056D-01
              MO Center= -4.7D-01,  5.6D-02,  2.1D-01, r^2= 6.5D-01
   Bfn.  Coefficient  Atom+Function         Bfn.  Coefficient  Atom+Function  
  ----- ------------  ---------------      ----- ------------  ---------------
     4      0.375213   1 O  s                 3      0.277423   1 O  s         
     2     -0.192778   1 O  s                34      0.139871   2 C  s         
    65      0.139133   3 C  s                 5      0.122717   1 O  s         
    35      0.105181   2 C  s                 6      0.093280   1 O  px        
    66      0.093579   3 C  s                69     -0.091367   3 C  py        
 
 Vector    6  Occ=2.000000D+00  E=-6.677557D-01
              MO Center=  9.2D-01, -3.8D-01, -7.4D-01, r^2= 1.6D+00
   Bfn.  Coefficient  Atom+Function         Bfn.  Coefficient  Atom+Function  
  ----- ------------  ---------------      ----- ------------  ---------------
    97      0.285414   4 C  s                96      0.273684   4 C  s         
    35      0.190616   2 C  s                34      0.178948   2 C  s         
    95     -0.171997   4 C  s                 4     -0.151436   1 O  s         
    33     -0.111756   2 C  s                 3     -0.105987   1 O  s         
    94     -0.082379   4 C  s                 5     -0.075644   1 O  s         
 
 Vector    7  Occ=2.000000D+00  E=-5.897367D-01
              MO Center= -1.3D-01,  7.2D-01,  2.2D-01, r^2= 2.0D+00
   Bfn.  Coefficient  Atom+Function         Bfn.  Coefficient  Atom+Function  
  ----- ------------  ---------------      ----- ------------  ---------------
    66      0.327848   3 C  s                65      0.279272   3 C  s         
     4     -0.235593   1 O  s                64     -0.172611   3 C  s         
     3     -0.166364   1 O  s                 5     -0.146264   1 O  s         
     2      0.109841   1 O  s                38      0.105572   2 C  py        
   132      0.103464   6 H  s                97     -0.102052   4 C  s         
 
 Vector    8  Occ=2.000000D+00  E=-5.290410D-01
              MO Center=  4.2D-01,  7.0D-03, -1.1D-01, r^2= 2.7D+00
   Bfn.  Coefficient  Atom+Function         Bfn.  Coefficient  Atom+Function  
  ----- ------------  ---------------      ----- ------------  ---------------
    35      0.299388   2 C  s                34      0.222619   2 C  s         
    97     -0.162185   4 C  s                66     -0.148917   3 C  s         
    33     -0.136816   2 C  s                96     -0.133004   4 C  s         
   126      0.133545   5 H  s                 6      0.107104   1 O  px        
   125      0.106634   5 H  s                39      0.101295   2 C  pz        
 
 Vector    9  Occ=2.000000D+00  E=-4.476025D-01
              MO Center=  1.1D-01,  2.8D-01,  2.6D-01, r^2= 2.5D+00
   Bfn.  Coefficient  Atom+Function         Bfn.  Coefficient  Atom+Function  
  ----- ------------  ---------------      ----- ------------  ---------------
    70      0.209632   3 C  pz               39      0.153788   2 C  pz        
   132      0.145708   6 H  s                73      0.131714   3 C  pz        
     8      0.126441   1 O  pz              126      0.115611   5 H  s         
     6     -0.113225   1 O  px               38     -0.108405   2 C  py        
   131      0.108112   6 H  s                37      0.106062   2 C  px        
 
 Vector   10  Occ=2.000000D+00  E=-4.133942D-01
              MO Center=  5.4D-02,  2.8D-01, -2.5D-01, r^2= 2.6D+00
   Bfn.  Coefficient  Atom+Function         Bfn.  Coefficient  Atom+Function  
  ----- ------------  ---------------      ----- ------------  ---------------
    69      0.214400   3 C  py              101      0.155299   4 C  pz        
   138      0.154453   7 H  s                 6     -0.142048   1 O  px        
    38     -0.138761   2 C  py               37      0.128060   2 C  px        
     7     -0.122330   1 O  py               72      0.121096   3 C  py        
    70     -0.118790   3 C  pz                9     -0.113550   1 O  px        
 
 Vector   11  Occ=2.000000D+00  E=-3.746958D-01
              MO Center=  8.6D-01, -2.9D-01, -7.0D-01, r^2= 2.8D+00
   Bfn.  Coefficient  Atom+Function         Bfn.  Coefficient  Atom+Function  
  ----- ------------  ---------------      ----- ------------  ---------------
    99      0.205885   4 C  px              144      0.181138   8 H  s         
   100      0.157580   4 C  py              102      0.134431   4 C  px        
   150     -0.134589   9 H  s                37      0.132233   2 C  px        
     7      0.125837   1 O  py              143      0.125742   8 H  s         
     6     -0.122177   1 O  px               10      0.106126   1 O  py        
 
 Vector   12  Occ=2.000000D+00  E=-3.541018D-01
              MO Center=  6.0D-01, -3.6D-01, -8.7D-01, r^2= 2.9D+00
   Bfn.  Coefficient  Atom+Function         Bfn.  Coefficient  Atom+Function  
  ----- ------------  ---------------      ----- ------------  ---------------
   100      0.257956   4 C  py              150     -0.189264   9 H  s         
   156      0.171260  10 H  s               103      0.169669   4 C  py        
     7     -0.168407   1 O  py               10     -0.134705   1 O  py        
   149     -0.130965   9 H  s               155      0.120512  10 H  s         
    70      0.116122   3 C  pz              106      0.104730   4 C  py        
 
 Vector   13  Occ=2.000000D+00  E=-3.293769D-01
              MO Center=  3.5D-01,  2.6D-01, -2.2D-01, r^2= 2.8D+00
   Bfn.  Coefficient  Atom+Function         Bfn.  Coefficient  Atom+Function  
  ----- ------------  ---------------      ----- ------------  ---------------
    39      0.221587   2 C  pz              101     -0.198824   4 C  pz        
    70     -0.174166   3 C  pz              138      0.162128   7 H  s         
     7     -0.160267   1 O  py               42      0.149952   2 C  pz        
   104     -0.139248   4 C  pz               10     -0.129087   1 O  py        
    99      0.126031   4 C  px              132     -0.109730   6 H  s         
 
 Vector   14  Occ=2.000000D+00  E=-3.203373D-01
              MO Center=  4.4D-01, -7.7D-02, -2.9D-01, r^2= 3.0D+00
   Bfn.  Coefficient  Atom+Function         Bfn.  Coefficient  Atom+Function  
  ----- ------------  ---------------      ----- ------------  ---------------
     7      0.204595   1 O  py               10      0.167654   1 O  py        
    99     -0.168128   4 C  px              126      0.157046   5 H  s         
   156      0.156304  10 H  s                 6     -0.148331   1 O  px        
   144     -0.140307   8 H  s                37      0.132538   2 C  px        
     9     -0.121631   1 O  px               39      0.121427   2 C  pz        
 
 Vector   15  Occ=2.000000D+00  E=-2.633275D-01
              MO Center=  2.6D-02,  1.4D-01,  2.3D-02, r^2= 2.3D+00
   Bfn.  Coefficient  Atom+Function         Bfn.  Coefficient  Atom+Function  
  ----- ------------  ---------------      ----- ------------  ---------------
    68      0.263335   3 C  px               38      0.255322   2 C  py        
     6     -0.236801   1 O  px               41      0.199154   2 C  py        
    71      0.195612   3 C  px                9     -0.185229   1 O  px        
    12     -0.156731   1 O  px              150      0.117607   9 H  s         
   100     -0.112510   4 C  py               67      0.106780   3 C  s         
 
 Vector   16  Occ=2.000000D+00  E=-2.199424D-01
              MO Center= -5.8D-01, -2.5D-02,  2.0D-01, r^2= 1.6D+00
   Bfn.  Coefficient  Atom+Function         Bfn.  Coefficient  Atom+Function  
  ----- ------------  ---------------      ----- ------------  ---------------
     8      0.449021   1 O  pz               11      0.357630   1 O  pz        
    14      0.296157   1 O  pz              133     -0.131109   6 H  s         
   139      0.116486   7 H  s               132     -0.104268   6 H  s         
   138      0.103900   7 H  s               145     -0.101033   8 H  s         
   126     -0.096521   5 H  s                98      0.086377   4 C  s         
 
 Vector   17  Occ=0.000000D+00  E= 2.432530D-02
              MO Center=  1.2D+00, -1.7D-01, -7.1D-01, r^2= 7.1D+00
   Bfn.  Coefficient  Atom+Function         Bfn.  Coefficient  Atom+Function  
  ----- ------------  ---------------      ----- ------------  ---------------
    98      4.423984   4 C  s               145     -1.519976   8 H  s         
   151     -1.493202   9 H  s               157     -1.327492  10 H  s         
   127     -1.188974   5 H  s                45      1.117836   2 C  pz        
   139     -0.845483   7 H  s                67      0.631304   3 C  s         
   133     -0.559768   6 H  s                75      0.332350   3 C  py        
 
 Vector   18  Occ=0.000000D+00  E= 4.233910D-02
              MO Center= -1.2D-01,  6.8D-01,  1.2D-01, r^2= 4.4D+00
   Bfn.  Coefficient  Atom+Function         Bfn.  Coefficient  Atom+Function  
  ----- ------------  ---------------      ----- ------------  ---------------
    98     -1.976116   4 C  s                36      1.944355   2 C  s         
     5     -1.267963   1 O  s                74     -0.942463   3 C  px        
   151      0.777857   9 H  s                45     -0.457391   2 C  pz        
    13     -0.437318   1 O  py               44      0.387009   2 C  py        
    66      0.352845   3 C  s               157      0.349962  10 H  s         
 
 Vector   19  Occ=0.000000D+00  E= 4.929274D-02
              MO Center=  3.4D-01,  6.7D-01, -1.8D-01, r^2= 6.3D+00
   Bfn.  Coefficient  Atom+Function         Bfn.  Coefficient  Atom+Function  
  ----- ------------  ---------------      ----- ------------  ---------------
    67      3.246000   3 C  s                36     -2.401061   2 C  s         
   139     -1.618796   7 H  s               127      1.361073   5 H  s         
   145      0.781438   8 H  s                44     -0.699782   2 C  py        
   133     -0.646207   6 H  s               157     -0.623464  10 H  s         
    45     -0.550533   2 C  pz               74      0.493202   3 C  px        
 
 Vector   20  Occ=0.000000D+00  E= 5.006563D-02
              MO Center=  6.5D-01,  3.6D-01,  4.9D-01, r^2= 7.4D+00
   Bfn.  Coefficient  Atom+Function         Bfn.  Coefficient  Atom+Function  
  ----- ------------  ---------------      ----- ------------  ---------------
    98      3.062976   4 C  s                67     -1.901773   3 C  s         
   133      1.730972   6 H  s               127      1.641226   5 H  s         
    36     -1.467693   2 C  s               157     -1.205217  10 H  s         
   145     -0.947481   8 H  s                44      0.930256   2 C  py        
    43     -0.721365   2 C  px               76     -0.627050   3 C  pz        
 
 Vector   21  Occ=0.000000D+00  E= 6.375157D-02
              MO Center=  2.6D-01,  1.0D-01, -2.1D-01, r^2= 5.1D+00
   Bfn.  Coefficient  Atom+Function         Bfn.  Coefficient  Atom+Function  
  ----- ------------  ---------------      ----- ------------  ---------------
   139     -1.286031   7 H  s                98     -1.209971   4 C  s         
    67      1.172819   3 C  s               151      1.057078   9 H  s         
     5      0.866718   1 O  s                43      0.810918   2 C  px        
   133     -0.666064   6 H  s                75      0.551287   3 C  py        
    12      0.476583   1 O  px               45     -0.416302   2 C  pz        
 
 Vector   22  Occ=0.000000D+00  E= 8.382850D-02
              MO Center=  1.4D+00,  8.4D-02, -6.3D-01, r^2= 6.7D+00
   Bfn.  Coefficient  Atom+Function         Bfn.  Coefficient  Atom+Function  
  ----- ------------  ---------------      ----- ------------  ---------------
    36      2.469747   2 C  s               145      2.113026   8 H  s         
    67     -1.351338   3 C  s               157     -1.318795  10 H  s         
   127     -1.210934   5 H  s               105     -1.194103   4 C  px        
   107     -0.975756   4 C  pz              133      0.952528   6 H  s         
    75      0.730614   3 C  py               98     -0.629289   4 C  s         
 
 Vector   23  Occ=0.000000D+00  E= 8.983974D-02
              MO Center=  1.0D+00, -6.0D-01, -4.3D-01, r^2= 6.7D+00
   Bfn.  Coefficient  Atom+Function         Bfn.  Coefficient  Atom+Function  
  ----- ------------  ---------------      ----- ------------  ---------------
    36      2.770163   2 C  s               151      1.981842   9 H  s         
    98     -1.263269   4 C  s               106      1.175934   4 C  py        
   145     -1.122976   8 H  s               127     -1.065604   5 H  s         
    67     -1.041991   3 C  s               133      0.972200   6 H  s         
   107     -0.833555   4 C  pz              105      0.821141   4 C  px        
 
 Vector   24  Occ=0.000000D+00  E= 1.008442D-01
              MO Center=  3.9D-01,  5.8D-01, -9.5D-01, r^2= 7.0D+00
   Bfn.  Coefficient  Atom+Function         Bfn.  Coefficient  Atom+Function  
  ----- ------------  ---------------      ----- ------------  ---------------
   157      1.867701  10 H  s               133      1.730698   6 H  s         
    36      1.712457   2 C  s                98     -1.688271   4 C  s         
   139     -1.609787   7 H  s               106     -1.366191   4 C  py        
    76     -1.227348   3 C  pz              151     -1.180297   9 H  s         
   105      1.009996   4 C  px               45     -0.549325   2 C  pz        
 
 Vector   25  Occ=0.000000D+00  E= 1.386208D-01
              MO Center=  8.1D-01,  1.8D-01, -4.6D-01, r^2= 7.9D+00
   Bfn.  Coefficient  Atom+Function         Bfn.  Coefficient  Atom+Function  
  ----- ------------  ---------------      ----- ------------  ---------------
    36      4.725653   2 C  s                98     -3.714032   4 C  s         
    45     -3.443145   2 C  pz               67     -2.767584   3 C  s         
   127      2.738903   5 H  s                76      2.173953   3 C  pz        
   105      2.076524   4 C  px              133     -1.796160   6 H  s         
   139      1.695557   7 H  s               107     -1.600998   4 C  pz        
 
 Vector   26  Occ=0.000000D+00  E= 1.701031D-01
              MO Center=  4.2D-01,  5.6D-01, -1.2D-01, r^2= 7.3D+00
   Bfn.  Coefficient  Atom+Function         Bfn.  Coefficient  Atom+Function  
  ----- ------------  ---------------      ----- ------------  ---------------
    75      2.337914   3 C  py              107      1.603849   4 C  pz        
    67     -1.523123   3 C  s                36      1.499227   2 C  s         
   139     -1.190767   7 H  s               157      0.991723  10 H  s         
    74     -0.979474   3 C  px               44      0.715492   2 C  py        
    43     -0.612439   2 C  px              106     -0.524545   4 C  py        
 
 Vector   27  Occ=0.000000D+00  E= 1.977770D-01
              MO Center=  8.5D-01, -6.5D-02, -9.7D-01, r^2= 5.1D+00
   Bfn.  Coefficient  Atom+Function         Bfn.  Coefficient  Atom+Function  
  ----- ------------  ---------------      ----- ------------  ---------------
    67      3.115570   3 C  s                44     -2.637628   2 C  py        
   106      1.999940   4 C  py               36     -1.639833   2 C  s         
    43      1.039026   2 C  px               74      0.743722   3 C  px        
   157     -0.694654  10 H  s                45     -0.679238   2 C  pz        
   105      0.624550   4 C  px              150      0.626770   9 H  s         
 
 Vector   28  Occ=0.000000D+00  E= 2.024729D-01
              MO Center=  9.4D-01, -4.7D-01, -7.0D-01, r^2= 6.6D+00
   Bfn.  Coefficient  Atom+Function         Bfn.  Coefficient  Atom+Function  
  ----- ------------  ---------------      ----- ------------  ---------------
    36      2.683944   2 C  s                75      1.691667   3 C  py        
   105     -1.440854   4 C  px              133     -1.224110   6 H  s         
   107     -0.885302   4 C  pz               45      0.802935   2 C  pz        
   106      0.773948   4 C  py              139     -0.746196   7 H  s         
   156     -0.703011  10 H  s                76      0.677170   3 C  pz        
 
 Vector   29  Occ=0.000000D+00  E= 2.359978D-01
              MO Center= -2.9D-01,  3.8D-01, -5.9D-02, r^2= 5.4D+00
   Bfn.  Coefficient  Atom+Function         Bfn.  Coefficient  Atom+Function  
  ----- ------------  ---------------      ----- ------------  ---------------
    67      4.536882   3 C  s                36     -3.151963   2 C  s         
   139     -1.526839   7 H  s                66     -1.443712   3 C  s         
    98      1.343347   4 C  s               133     -1.250137   6 H  s         
   107      0.984626   4 C  pz               74     -0.785234   3 C  px        
     5     -0.744428   1 O  s               106      0.743112   4 C  py        
 
 Vector   30  Occ=0.000000D+00  E= 2.473075D-01
              MO Center=  5.3D-01,  1.9D-02, -9.2D-02, r^2= 5.9D+00
   Bfn.  Coefficient  Atom+Function         Bfn.  Coefficient  Atom+Function  
  ----- ------------  ---------------      ----- ------------  ---------------
    67      5.990139   3 C  s                43      4.170247   2 C  px        
    75     -2.989107   3 C  py               44     -2.604766   2 C  py        
   107     -2.059696   4 C  pz               36     -2.024310   2 C  s         
   157     -1.779445  10 H  s                45     -1.490132   2 C  pz        
    98     -1.482203   4 C  s               105     -1.168844   4 C  px        
 
 Vector   31  Occ=0.000000D+00  E= 2.681343D-01
              MO Center=  3.1D-01, -1.5D-01,  2.3D-01, r^2= 5.7D+00
   Bfn.  Coefficient  Atom+Function         Bfn.  Coefficient  Atom+Function  
  ----- ------------  ---------------      ----- ------------  ---------------
    36      4.315501   2 C  s                 5     -2.217475   1 O  s         
    67      2.175808   3 C  s                43     -1.596203   2 C  px        
   105      1.502708   4 C  px               98     -1.222424   4 C  s         
    66     -1.189771   3 C  s               139     -0.953949   7 H  s         
   133     -0.885994   6 H  s               127     -0.839118   5 H  s         
 
 Vector   32  Occ=0.000000D+00  E= 2.774938D-01
              MO Center=  4.0D-01,  3.1D-01,  3.0D-01, r^2= 4.2D+00
   Bfn.  Coefficient  Atom+Function         Bfn.  Coefficient  Atom+Function  
  ----- ------------  ---------------      ----- ------------  ---------------
    36      2.484720   2 C  s                 5     -1.742447   1 O  s         
    67     -1.571291   3 C  s                43     -1.270703   2 C  px        
    74     -0.722554   3 C  px               98     -0.655853   4 C  s         
    45     -0.644672   2 C  pz              145      0.527297   8 H  s         
     4      0.495196   1 O  s                66      0.375914   3 C  s         
 
 Vector   33  Occ=0.000000D+00  E= 3.007266D-01
              MO Center=  4.5D-01,  3.6D-01, -3.9D-01, r^2= 5.0D+00
   Bfn.  Coefficient  Atom+Function         Bfn.  Coefficient  Atom+Function  
  ----- ------------  ---------------      ----- ------------  ---------------
    43      1.853427   2 C  px              106      1.771112   4 C  py        
    98     -1.688196   4 C  s               151      1.687001   9 H  s         
    76      1.346144   3 C  pz               36     -1.293951   2 C  s         
    44     -1.235172   2 C  py               66      1.035449   3 C  s         
   107     -0.995890   4 C  pz              139      0.962287   7 H  s         
 
 Vector   34  Occ=0.000000D+00  E= 3.369120D-01
              MO Center=  1.1D-01,  4.3D-01, -3.9D-01, r^2= 5.8D+00
   Bfn.  Coefficient  Atom+Function         Bfn.  Coefficient  Atom+Function  
  ----- ------------  ---------------      ----- ------------  ---------------
    67      4.460575   3 C  s                76     -4.029638   3 C  pz        
   139     -3.182400   7 H  s                36     -2.275771   2 C  s         
   133      2.074431   6 H  s               107     -1.746682   4 C  pz        
   157     -1.632441  10 H  s                43      1.391534   2 C  px        
    98      1.142443   4 C  s                44     -1.123421   2 C  py        
 
 Vector   35  Occ=0.000000D+00  E= 3.609055D-01
              MO Center=  9.4D-01, -7.4D-02, -5.3D-01, r^2= 6.8D+00
   Bfn.  Coefficient  Atom+Function         Bfn.  Coefficient  Atom+Function  
  ----- ------------  ---------------      ----- ------------  ---------------
    98      8.439074   4 C  s               145     -3.387208   8 H  s         
    97     -3.333695   4 C  s                76      2.978072   3 C  pz        
   133     -2.182132   6 H  s               151     -1.981149   9 H  s         
   157     -1.586816  10 H  s                45     -1.367657   2 C  pz        
    44      1.344069   2 C  py              139      1.347795   7 H  s         
 
 Vector   36  Occ=0.000000D+00  E= 3.715542D-01
              MO Center=  5.5D-01,  2.6D-01, -4.4D-02, r^2= 6.3D+00
   Bfn.  Coefficient  Atom+Function         Bfn.  Coefficient  Atom+Function  
  ----- ------------  ---------------      ----- ------------  ---------------
    36     12.866151   2 C  s                67     -8.316045   3 C  s         
    98     -8.354354   4 C  s               127     -3.021066   5 H  s         
    97      2.229065   4 C  s               157      2.228972  10 H  s         
    44      2.036614   2 C  py               35     -1.895553   2 C  s         
    74     -1.602252   3 C  px               75      1.596198   3 C  py        
 
 Vector   37  Occ=0.000000D+00  E= 3.837464D-01
              MO Center=  8.8D-01, -3.4D-01, -1.3D-01, r^2= 6.1D+00
   Bfn.  Coefficient  Atom+Function         Bfn.  Coefficient  Atom+Function  
  ----- ------------  ---------------      ----- ------------  ---------------
    36      6.323989   2 C  s               127     -4.067609   5 H  s         
    98      3.435195   4 C  s                45      2.833983   2 C  pz        
    67     -2.736014   3 C  s                35     -2.204027   2 C  s         
   151     -2.145551   9 H  s                76     -2.110552   3 C  pz        
   145     -1.863992   8 H  s               133      1.842719   6 H  s         
 
 Vector   38  Occ=0.000000D+00  E= 3.931569D-01
              MO Center=  1.6D-01,  1.6D-01, -1.3D-01, r^2= 6.4D+00
   Bfn.  Coefficient  Atom+Function         Bfn.  Coefficient  Atom+Function  
  ----- ------------  ---------------      ----- ------------  ---------------
    98     11.555421   4 C  s                67     -5.950386   3 C  s         
    45      5.538773   2 C  pz               76     -3.237303   3 C  pz        
   133      2.637063   6 H  s               157     -2.632742  10 H  s         
    44      2.315268   2 C  py               75      1.826254   3 C  py        
    43     -1.816782   2 C  px               36     -1.762969   2 C  s         
 
 Vector   39  Occ=0.000000D+00  E= 4.011060D-01
              MO Center= -2.3D-01,  1.9D-01,  2.3D-01, r^2= 6.5D+00
   Bfn.  Coefficient  Atom+Function         Bfn.  Coefficient  Atom+Function  
  ----- ------------  ---------------      ----- ------------  ---------------
    67    -12.293913   3 C  s                36     11.415555   2 C  s         
    45     -5.014143   2 C  pz               98     -4.509916   4 C  s         
    44      4.012930   2 C  py              127      3.041438   5 H  s         
    66      2.702423   3 C  s                43     -2.584384   2 C  px        
   139      2.460397   7 H  s               105      2.185441   4 C  px        
 
 Vector   40  Occ=0.000000D+00  E= 4.098787D-01
              MO Center=  9.7D-01, -4.8D-01, -9.3D-01, r^2= 5.7D+00
   Bfn.  Coefficient  Atom+Function         Bfn.  Coefficient  Atom+Function  
  ----- ------------  ---------------      ----- ------------  ---------------
    98      6.329223   4 C  s                36     -3.608113   2 C  s         
   151     -2.589381   9 H  s                45      2.569950   2 C  pz        
   105     -2.512552   4 C  px              145      1.925814   8 H  s         
   157     -1.774239  10 H  s                97     -1.091033   4 C  s         
   127     -1.022926   5 H  s               144     -0.956908   8 H  s         
 
 Vector   41  Occ=0.000000D+00  E= 4.241631D-01
              MO Center=  3.9D-01,  2.3D-01, -1.4D-01, r^2= 6.6D+00
   Bfn.  Coefficient  Atom+Function         Bfn.  Coefficient  Atom+Function  
  ----- ------------  ---------------      ----- ------------  ---------------
    36      8.827490   2 C  s                67     -4.844375   3 C  s         
    98     -2.979244   4 C  s                44      2.447331   2 C  py        
    75      2.375493   3 C  py              151      2.044944   9 H  s         
    43     -1.545170   2 C  px               74     -1.379447   3 C  px        
   132      1.340929   6 H  s                35     -1.121511   2 C  s         
 
 Vector   42  Occ=0.000000D+00  E= 4.453485D-01
              MO Center= -2.2D-02, -5.8D-03, -9.4D-02, r^2= 6.0D+00
   Bfn.  Coefficient  Atom+Function         Bfn.  Coefficient  Atom+Function  
  ----- ------------  ---------------      ----- ------------  ---------------
    36     10.068643   2 C  s                98     -8.837736   4 C  s         
    45     -5.567044   2 C  pz               67     -3.309924   3 C  s         
   127      2.943365   5 H  s                76      2.630672   3 C  pz        
    44      2.473381   2 C  py              133     -2.094029   6 H  s         
   157      2.099966  10 H  s                35     -2.047283   2 C  s         
 
 Vector   43  Occ=0.000000D+00  E= 4.585052D-01
              MO Center=  1.3D-01,  6.7D-01, -6.3D-01, r^2= 5.3D+00
   Bfn.  Coefficient  Atom+Function         Bfn.  Coefficient  Atom+Function  
  ----- ------------  ---------------      ----- ------------  ---------------
   139      3.251814   7 H  s               157     -2.425937  10 H  s         
   107     -2.382408   4 C  pz               75     -2.283150   3 C  py        
    45     -1.920715   2 C  pz               43      1.752358   2 C  px        
    44     -1.708716   2 C  py              138     -1.341432   7 H  s         
    98     -1.227899   4 C  s                76      1.099516   3 C  pz        
 
 Vector   44  Occ=0.000000D+00  E= 4.668476D-01
              MO Center=  3.7D-01,  3.3D-01,  2.0D-01, r^2= 5.4D+00
   Bfn.  Coefficient  Atom+Function         Bfn.  Coefficient  Atom+Function  
  ----- ------------  ---------------      ----- ------------  ---------------
    36      4.019471   2 C  s                98     -3.737176   4 C  s         
   133      1.587323   6 H  s                45     -1.476279   2 C  pz        
    67     -1.455393   3 C  s               145      1.379807   8 H  s         
   132     -1.243955   6 H  s               126      1.199851   5 H  s         
    35     -1.154813   2 C  s               127     -1.146694   5 H  s         
 
 Vector   45  Occ=0.000000D+00  E= 5.008717D-01
              MO Center=  9.7D-01, -3.7D-01, -9.6D-01, r^2= 4.8D+00
   Bfn.  Coefficient  Atom+Function         Bfn.  Coefficient  Atom+Function  
  ----- ------------  ---------------      ----- ------------  ---------------
    98     13.171276   4 C  s                36     -8.791558   2 C  s         
    45      5.428190   2 C  pz              107      3.458211   4 C  pz        
   106      1.393868   4 C  py              127     -1.293778   5 H  s         
   156     -1.270788  10 H  s               105     -1.232506   4 C  px        
   144     -1.213525   8 H  s               145     -1.083833   8 H  s         
 
 Vector   46  Occ=0.000000D+00  E= 5.358110D-01
              MO Center=  1.0D-02, -3.9D-01, -4.3D-01, r^2= 4.3D+00
   Bfn.  Coefficient  Atom+Function         Bfn.  Coefficient  Atom+Function  
  ----- ------------  ---------------      ----- ------------  ---------------
    98     -6.463595   4 C  s                36      6.286179   2 C  s         
    45     -3.353199   2 C  pz               76      3.275442   3 C  pz        
   133     -1.851052   6 H  s               105      1.454916   4 C  px        
   139      1.446118   7 H  s               107     -1.250361   4 C  pz        
    14     -1.241755   1 O  pz                5     -1.066210   1 O  s         
 
 Vector   47  Occ=0.000000D+00  E= 6.576494D-01
              MO Center= -3.7D-01,  3.6D-02, -1.9D-02, r^2= 4.3D+00
   Bfn.  Coefficient  Atom+Function         Bfn.  Coefficient  Atom+Function  
  ----- ------------  ---------------      ----- ------------  ---------------
    36     11.513746   2 C  s                67     -8.904216   3 C  s         
    98     -3.990152   4 C  s                43     -2.585628   2 C  px        
    75      2.411018   3 C  py               13      2.206436   1 O  py        
    76      2.045094   3 C  pz              105      1.570421   4 C  px        
   139      1.509373   7 H  s                44      1.465660   2 C  py        
 
 Vector   48  Occ=0.000000D+00  E= 6.737532D-01
              MO Center= -2.9D-01,  3.5D-01,  1.2D-01, r^2= 3.9D+00
   Bfn.  Coefficient  Atom+Function         Bfn.  Coefficient  Atom+Function  
  ----- ------------  ---------------      ----- ------------  ---------------
    36      8.210397   2 C  s                67     -7.907846   3 C  s         
     5      2.968267   1 O  s                75      2.576419   3 C  py        
    98     -2.247404   4 C  s                13      2.123000   1 O  py        
    45     -1.286934   2 C  pz               43     -1.264577   2 C  px        
     4     -1.105308   1 O  s                44      0.957869   2 C  py        
 
 Vector   49  Occ=0.000000D+00  E= 7.065595D-01
              MO Center=  1.6D-01, -3.1D-01, -2.6D-01, r^2= 4.5D+00
   Bfn.  Coefficient  Atom+Function         Bfn.  Coefficient  Atom+Function  
  ----- ------------  ---------------      ----- ------------  ---------------
    67      9.486842   3 C  s                36     -7.402077   2 C  s         
    43      3.663433   2 C  px               44     -3.480692   2 C  py        
    75     -2.751669   3 C  py               98     -2.442951   4 C  s         
     5      2.289993   1 O  s                12      1.699885   1 O  px        
   106      1.644178   4 C  py               13     -1.316822   1 O  py        
 
 Vector   50  Occ=0.000000D+00  E= 7.603680D-01
              MO Center=  6.3D-01, -1.1D-02, -3.4D-01, r^2= 4.0D+00
   Bfn.  Coefficient  Atom+Function         Bfn.  Coefficient  Atom+Function  
  ----- ------------  ---------------      ----- ------------  ---------------
    45      2.408183   2 C  pz              127     -1.699284   5 H  s         
   105     -1.623857   4 C  px               36      1.521628   2 C  s         
    43      1.447818   2 C  px                5     -1.423489   1 O  s         
   126     -1.349818   5 H  s               144      1.191630   8 H  s         
    76     -1.003755   3 C  pz               66      0.985579   3 C  s         
 
 Vector   51  Occ=0.000000D+00  E= 7.943456D-01
              MO Center=  2.7D-01,  4.6D-02, -1.8D-01, r^2= 4.4D+00
   Bfn.  Coefficient  Atom+Function         Bfn.  Coefficient  Atom+Function  
  ----- ------------  ---------------      ----- ------------  ---------------
     5      4.196120   1 O  s                36     -2.881145   2 C  s         
    76     -2.535495   3 C  pz                4     -1.619686   1 O  s         
    45      1.600936   2 C  pz               12      1.359034   1 O  px        
   133      1.342089   6 H  s                43      1.261538   2 C  px        
    66     -1.022397   3 C  s                35     -1.016380   2 C  s         
 
 Vector   52  Occ=0.000000D+00  E= 8.317892D-01
              MO Center=  3.2D-01,  1.7D-01, -7.4D-03, r^2= 4.4D+00
   Bfn.  Coefficient  Atom+Function         Bfn.  Coefficient  Atom+Function  
  ----- ------------  ---------------      ----- ------------  ---------------
    36      6.523575   2 C  s                98     -4.010297   4 C  s         
     5     -3.867074   1 O  s                43     -2.545885   2 C  px        
   105      1.920172   4 C  px               35     -1.871392   2 C  s         
    45     -1.706778   2 C  pz               44      1.465261   2 C  py        
    66     -1.200578   3 C  s                97      1.069721   4 C  s         
 
 Vector   53  Occ=0.000000D+00  E= 8.541724D-01
              MO Center=  6.0D-01,  1.3D-01, -3.9D-01, r^2= 4.2D+00
   Bfn.  Coefficient  Atom+Function         Bfn.  Coefficient  Atom+Function  
  ----- ------------  ---------------      ----- ------------  ---------------
    98     -4.764850   4 C  s                36      4.671431   2 C  s         
    45     -4.604020   2 C  pz               76      2.077748   3 C  pz        
   127      1.823090   5 H  s               106     -1.577552   4 C  py        
    44      1.515916   2 C  py              105      1.375421   4 C  px        
   150     -1.160681   9 H  s               139      1.084949   7 H  s         
 
 Vector   54  Occ=0.000000D+00  E= 8.712273D-01
              MO Center=  1.7D-01, -3.5D-02, -1.1D-01, r^2= 4.2D+00
   Bfn.  Coefficient  Atom+Function         Bfn.  Coefficient  Atom+Function  
  ----- ------------  ---------------      ----- ------------  ---------------
     5      4.634260   1 O  s                36     -1.831622   2 C  s         
     4     -1.571345   1 O  s               138      1.445381   7 H  s         
    76      1.302591   3 C  pz               67     -1.233389   3 C  s         
    12      1.191052   1 O  px               66     -1.150490   3 C  s         
    43      0.867000   2 C  px               97      0.828885   4 C  s         
 
 Vector   55  Occ=0.000000D+00  E= 9.204684D-01
              MO Center=  5.1D-01,  3.1D-01, -4.7D-01, r^2= 4.5D+00
   Bfn.  Coefficient  Atom+Function         Bfn.  Coefficient  Atom+Function  
  ----- ------------  ---------------      ----- ------------  ---------------
    35      4.936832   2 C  s                36     -1.754118   2 C  s         
    67      1.465211   3 C  s               132     -1.336105   6 H  s         
    72      1.280426   3 C  py               66     -1.267141   3 C  s         
    84      1.159191   3 C  d  0             41      1.148668   2 C  py        
   156     -1.116898  10 H  s               116     -1.069709   4 C  d  1      
 
 Vector   56  Occ=0.000000D+00  E= 9.615927D-01
              MO Center=  4.5D-01,  3.1D-01, -5.2D-01, r^2= 4.7D+00
   Bfn.  Coefficient  Atom+Function         Bfn.  Coefficient  Atom+Function  
  ----- ------------  ---------------      ----- ------------  ---------------
    35      4.244223   2 C  s                67      2.510166   3 C  s         
   138     -2.374523   7 H  s                76     -1.801732   3 C  pz        
    42     -1.759058   2 C  pz               83     -1.667695   3 C  d -1      
   115     -1.439597   4 C  d  0             36     -1.426565   2 C  s         
    98     -1.415862   4 C  s               132      1.383893   6 H  s         
 
 Vector   57  Occ=0.000000D+00  E= 9.916772D-01
              MO Center=  3.3D-01,  5.0D-01, -1.2D-01, r^2= 4.0D+00
   Bfn.  Coefficient  Atom+Function         Bfn.  Coefficient  Atom+Function  
  ----- ------------  ---------------      ----- ------------  ---------------
    36      7.360914   2 C  s                98     -4.747546   4 C  s         
    67     -3.889964   3 C  s                45     -3.710934   2 C  pz        
    43     -2.315390   2 C  px               44      2.117191   2 C  py        
    66     -1.590616   3 C  s               127      1.562956   5 H  s         
    75      1.440705   3 C  py               35     -1.357302   2 C  s         
 
 Vector   58  Occ=0.000000D+00  E= 1.012803D+00
              MO Center=  3.8D-01,  5.2D-01, -6.4D-02, r^2= 4.3D+00
   Bfn.  Coefficient  Atom+Function         Bfn.  Coefficient  Atom+Function  
  ----- ------------  ---------------      ----- ------------  ---------------
    36      5.757312   2 C  s                67     -4.677545   3 C  s         
    45     -2.266772   2 C  pz               44      1.946440   2 C  py        
    98     -1.809737   4 C  s               156     -1.447446  10 H  s         
    43     -1.408045   2 C  px               74     -1.348600   3 C  px        
    76      1.336970   3 C  pz               82      1.342986   3 C  d -2      
 
 Vector   59  Occ=0.000000D+00  E= 1.041954D+00
              MO Center=  7.1D-01, -1.7D-01, -4.7D-01, r^2= 4.2D+00
   Bfn.  Coefficient  Atom+Function         Bfn.  Coefficient  Atom+Function  
  ----- ------------  ---------------      ----- ------------  ---------------
    35      2.678966   2 C  s                36      2.604967   2 C  s         
    66     -2.331559   3 C  s                 5     -1.864408   1 O  s         
   150      1.854701   9 H  s               144     -1.812732   8 H  s         
   117      1.688288   4 C  d  2             41      1.517942   2 C  py        
    44      1.341654   2 C  py               67     -1.247289   3 C  s         
 
 Vector   60  Occ=0.000000D+00  E= 1.078814D+00
              MO Center=  6.8D-01,  1.0D-02, -7.3D-02, r^2= 4.1D+00
   Bfn.  Coefficient  Atom+Function         Bfn.  Coefficient  Atom+Function  
  ----- ------------  ---------------      ----- ------------  ---------------
    98      4.203435   4 C  s                66     -4.045650   3 C  s         
    45      3.800133   2 C  pz               97      3.740514   4 C  s         
    36     -3.445820   2 C  s                41      2.579100   2 C  py        
   104      2.517735   4 C  pz               42      2.376069   2 C  pz        
    72      2.357825   3 C  py               53     -2.251556   2 C  d  0      
 
 Vector   61  Occ=0.000000D+00  E= 1.105588D+00
              MO Center=  3.7D-01,  6.4D-02,  6.3D-02, r^2= 3.8D+00
   Bfn.  Coefficient  Atom+Function         Bfn.  Coefficient  Atom+Function  
  ----- ------------  ---------------      ----- ------------  ---------------
    36      7.513394   2 C  s                67     -5.287880   3 C  s         
    98     -2.923764   4 C  s                66      2.114971   3 C  s         
   126     -2.032277   5 H  s                45     -1.886507   2 C  pz        
   132      1.676574   6 H  s                72     -1.582560   3 C  py        
    41     -1.465104   2 C  py               53      1.433040   2 C  d  0      
 
 Vector   62  Occ=0.000000D+00  E= 1.147239D+00
              MO Center=  6.3D-01,  3.6D-03, -3.4D-02, r^2= 3.5D+00
   Bfn.  Coefficient  Atom+Function         Bfn.  Coefficient  Atom+Function  
  ----- ------------  ---------------      ----- ------------  ---------------
    67      5.073320   3 C  s                36     -3.844244   2 C  s         
    44     -2.372091   2 C  py              126      1.830070   5 H  s         
    97     -1.809924   4 C  s                54      1.579397   2 C  d  1      
    43      1.538363   2 C  px               55      1.482982   2 C  d  2      
    42     -1.445672   2 C  pz               75     -1.417258   3 C  py        
 
 Vector   63  Occ=0.000000D+00  E= 1.215002D+00
              MO Center=  5.6D-01,  2.0D-01, -1.5D-01, r^2= 3.8D+00
   Bfn.  Coefficient  Atom+Function         Bfn.  Coefficient  Atom+Function  
  ----- ------------  ---------------      ----- ------------  ---------------
    36      6.788893   2 C  s                66     -5.023254   3 C  s         
    97     -3.397382   4 C  s                67     -3.291571   3 C  s         
    35      3.183029   2 C  s                72      1.917965   3 C  py        
    51     -1.764677   2 C  d -2             52      1.689028   2 C  d -1      
   138      1.668174   7 H  s               104     -1.515543   4 C  pz        
 
 Vector   64  Occ=0.000000D+00  E= 1.347300D+00
              MO Center=  3.6D-01,  5.3D-01,  2.1D-01, r^2= 3.6D+00
   Bfn.  Coefficient  Atom+Function         Bfn.  Coefficient  Atom+Function  
  ----- ------------  ---------------      ----- ------------  ---------------
    66      4.645584   3 C  s                35      3.946918   2 C  s         
    67     -3.101766   3 C  s                36     -2.702704   2 C  s         
    65     -2.387896   3 C  s               132     -2.048506   6 H  s         
    34     -1.452955   2 C  s               133      1.422127   6 H  s         
    72      1.362788   3 C  py              139      1.065186   7 H  s         
 
 Vector   65  Occ=0.000000D+00  E= 1.414351D+00
              MO Center=  1.8D-01,  5.0D-01, -6.2D-02, r^2= 3.4D+00
   Bfn.  Coefficient  Atom+Function         Bfn.  Coefficient  Atom+Function  
  ----- ------------  ---------------      ----- ------------  ---------------
    36      4.315054   2 C  s                66      3.841110   3 C  s         
    67     -3.842573   3 C  s                35     -3.747248   2 C  s         
    73     -2.290082   3 C  pz              138     -2.231804   7 H  s         
   139      2.186325   7 H  s               126      1.802776   5 H  s         
    76      1.639976   3 C  pz               65     -1.570604   3 C  s         
 
 Vector   66  Occ=0.000000D+00  E= 1.436797D+00
              MO Center=  8.8D-01, -3.8D-01, -9.3D-01, r^2= 3.8D+00
   Bfn.  Coefficient  Atom+Function         Bfn.  Coefficient  Atom+Function  
  ----- ------------  ---------------      ----- ------------  ---------------
    98      8.366778   4 C  s                97     -6.477501   4 C  s         
    96      2.733800   4 C  s               145     -2.082288   8 H  s         
   151     -1.991040   9 H  s               157     -1.782995  10 H  s         
    36     -1.591111   2 C  s               104      1.466084   4 C  pz        
   144      1.460380   8 H  s               150      1.402526   9 H  s         
 
 Vector   67  Occ=0.000000D+00  E= 1.439319D+00
              MO Center=  6.4D-01, -6.0D-02, -6.5D-01, r^2= 3.8D+00
   Bfn.  Coefficient  Atom+Function         Bfn.  Coefficient  Atom+Function  
  ----- ------------  ---------------      ----- ------------  ---------------
    66      3.282781   3 C  s                36      2.737425   2 C  s         
    67     -2.464411   3 C  s                35     -2.001114   2 C  s         
   133      1.311748   6 H  s                 5     -1.287721   1 O  s         
    76     -1.150152   3 C  pz               65     -1.134461   3 C  s         
   132     -0.979817   6 H  s               127     -0.861152   5 H  s         
 
 Vector   68  Occ=0.000000D+00  E= 1.446068D+00
              MO Center=  4.1D-01, -1.5D-01, -7.8D-02, r^2= 3.7D+00
   Bfn.  Coefficient  Atom+Function         Bfn.  Coefficient  Atom+Function  
  ----- ------------  ---------------      ----- ------------  ---------------
    98      7.295879   4 C  s                97     -4.185306   4 C  s         
    35     -2.712512   2 C  s                45      2.609637   2 C  pz        
    66      2.155172   3 C  s                96      1.817010   4 C  s         
    36     -1.803379   2 C  s               127     -1.670450   5 H  s         
    76     -1.610836   3 C  pz              151     -1.608609   9 H  s         
 
 Vector   69  Occ=0.000000D+00  E= 1.466501D+00
              MO Center=  7.0D-01, -9.8D-02, -6.6D-01, r^2= 4.0D+00
   Bfn.  Coefficient  Atom+Function         Bfn.  Coefficient  Atom+Function  
  ----- ------------  ---------------      ----- ------------  ---------------
    66      3.037652   3 C  s                36      1.918079   2 C  s         
    67     -1.909849   3 C  s                 5     -1.590127   1 O  s         
    98     -1.257346   4 C  s                65     -1.223385   3 C  s         
    97      1.181707   4 C  s               133      1.120719   6 H  s         
    71     -1.014260   3 C  px              132     -0.964886   6 H  s         
 
 Vector   70  Occ=0.000000D+00  E= 1.477657D+00
              MO Center=  9.9D-01, -4.0D-01, -1.0D+00, r^2= 3.3D+00
   Bfn.  Coefficient  Atom+Function         Bfn.  Coefficient  Atom+Function  
  ----- ------------  ---------------      ----- ------------  ---------------
    36      2.895635   2 C  s               156     -2.636265  10 H  s         
   157      2.041698  10 H  s               102     -1.903469   4 C  px        
   126      1.824320   5 H  s               104     -1.753192   4 C  pz        
   103      1.700014   4 C  py               35     -1.559877   2 C  s         
    66     -1.531811   3 C  s               127     -1.446176   5 H  s         
 
 Vector   71  Occ=0.000000D+00  E= 1.512300D+00
              MO Center=  3.7D-01,  1.2D-01, -3.4D-01, r^2= 4.0D+00
   Bfn.  Coefficient  Atom+Function         Bfn.  Coefficient  Atom+Function  
  ----- ------------  ---------------      ----- ------------  ---------------
    98      2.678501   4 C  s               144      1.778740   8 H  s         
   102     -1.568110   4 C  px              145     -1.431482   8 H  s         
    45      1.264018   2 C  pz              103     -1.222391   4 C  py        
    97     -1.152530   4 C  s               150     -0.847256   9 H  s         
    36     -0.777062   2 C  s                66      0.770288   3 C  s         
 
 Vector   72  Occ=0.000000D+00  E= 1.540834D+00
              MO Center=  3.2D-01,  4.7D-01, -2.0D-01, r^2= 4.6D+00
   Bfn.  Coefficient  Atom+Function         Bfn.  Coefficient  Atom+Function  
  ----- ------------  ---------------      ----- ------------  ---------------
    36      4.243080   2 C  s                98     -3.724271   4 C  s         
    35     -3.549030   2 C  s                97      3.270578   4 C  s         
    67     -2.332291   3 C  s                73      2.162933   3 C  pz        
   132     -1.746368   6 H  s               133      1.423431   6 H  s         
   138      1.378092   7 H  s               102     -1.255591   4 C  px        
 
 Vector   73  Occ=0.000000D+00  E= 1.577475D+00
              MO Center=  4.9D-01,  2.4D-03, -7.8D-02, r^2= 3.3D+00
   Bfn.  Coefficient  Atom+Function         Bfn.  Coefficient  Atom+Function  
  ----- ------------  ---------------      ----- ------------  ---------------
    35      3.218369   2 C  s                36     -2.629185   2 C  s         
    40     -2.058791   2 C  px               97     -1.888086   4 C  s         
   126      1.815157   5 H  s                67      1.683945   3 C  s         
    72      1.546463   3 C  py               42     -1.453956   2 C  pz        
    34     -1.382081   2 C  s                98      1.369659   4 C  s         
 
 Vector   74  Occ=0.000000D+00  E= 1.597983D+00
              MO Center=  3.6D-01,  3.5D-01, -1.7D-01, r^2= 3.4D+00
   Bfn.  Coefficient  Atom+Function         Bfn.  Coefficient  Atom+Function  
  ----- ------------  ---------------      ----- ------------  ---------------
    36     -5.576109   2 C  s                66     -5.338748   3 C  s         
    35      5.145262   2 C  s                67      4.083174   3 C  s         
    41      3.780277   2 C  py               71     -2.540379   3 C  px        
    72      2.487999   3 C  py               40     -2.129508   2 C  px        
    98      2.034669   4 C  s                82      1.657704   3 C  d -2      
 
 Vector   75  Occ=0.000000D+00  E= 1.641249D+00
              MO Center=  4.8D-01,  1.6D-01, -4.4D-02, r^2= 3.7D+00
   Bfn.  Coefficient  Atom+Function         Bfn.  Coefficient  Atom+Function  
  ----- ------------  ---------------      ----- ------------  ---------------
    66      2.617331   3 C  s                35      2.443168   2 C  s         
    98      1.998665   4 C  s                97     -1.919268   4 C  s         
     5     -1.791461   1 O  s                67     -1.327788   3 C  s         
   104     -1.211725   4 C  pz              103     -1.067362   4 C  py        
   144      1.052573   8 H  s               150     -0.994534   9 H  s         
 
 Vector   76  Occ=0.000000D+00  E= 1.689239D+00
              MO Center=  6.0D-01,  5.0D-02, -4.4D-01, r^2= 3.6D+00
   Bfn.  Coefficient  Atom+Function         Bfn.  Coefficient  Atom+Function  
  ----- ------------  ---------------      ----- ------------  ---------------
    97     -5.362335   4 C  s                35      5.113893   2 C  s         
    42     -2.655756   2 C  pz              104     -2.657561   4 C  pz        
   102      1.906133   4 C  px               66     -1.882322   3 C  s         
    40      1.568220   2 C  px               34     -1.469334   2 C  s         
    96      1.473550   4 C  s                54      1.077903   2 C  d  1      
 
 Vector   77  Occ=0.000000D+00  E= 1.699391D+00
              MO Center= -7.6D-02,  3.6D-01, -7.8D-02, r^2= 3.7D+00
   Bfn.  Coefficient  Atom+Function         Bfn.  Coefficient  Atom+Function  
  ----- ------------  ---------------      ----- ------------  ---------------
     5      3.953363   1 O  s                72      3.305914   3 C  py        
    97      2.489200   4 C  s                36     -2.465529   2 C  s         
   138     -2.025610   7 H  s                42      1.809350   2 C  pz        
    66     -1.676434   3 C  s                35     -1.647654   2 C  s         
   104      1.617930   4 C  pz               12      1.512033   1 O  px        
 
 Vector   78  Occ=0.000000D+00  E= 1.787222D+00
              MO Center=  4.1D-01,  2.6D-01,  2.6D-02, r^2= 3.5D+00
   Bfn.  Coefficient  Atom+Function         Bfn.  Coefficient  Atom+Function  
  ----- ------------  ---------------      ----- ------------  ---------------
    35      2.820856   2 C  s                97     -2.691269   4 C  s         
    36      1.792026   2 C  s                45     -1.329031   2 C  pz        
    67     -1.103548   3 C  s               104     -1.107115   4 C  pz        
    42     -1.037807   2 C  pz               72      0.935669   3 C  py        
   102      0.922227   4 C  px              103     -0.895649   4 C  py        
 
 Vector   79  Occ=0.000000D+00  E= 1.815002D+00
              MO Center= -6.4D-01,  1.7D-01,  1.9D-01, r^2= 2.5D+00
   Bfn.  Coefficient  Atom+Function         Bfn.  Coefficient  Atom+Function  
  ----- ------------  ---------------      ----- ------------  ---------------
    35      4.086433   2 C  s                 5     -3.336473   1 O  s         
    40     -2.455481   2 C  px               41      2.085771   2 C  py        
    72      1.977238   3 C  py               66     -1.745204   3 C  s         
    71     -1.653656   3 C  px               12     -1.391708   1 O  px        
   132     -1.054136   6 H  s               138     -1.036378   7 H  s         
 
 Vector   80  Occ=0.000000D+00  E= 1.842471D+00
              MO Center=  8.4D-02,  2.7D-01, -8.5D-02, r^2= 3.7D+00
   Bfn.  Coefficient  Atom+Function         Bfn.  Coefficient  Atom+Function  
  ----- ------------  ---------------      ----- ------------  ---------------
    35      1.841729   2 C  s                36     -1.140268   2 C  s         
   156     -0.895536  10 H  s               104     -0.805710   4 C  pz        
    71     -0.749705   3 C  px               97     -0.667981   4 C  s         
   126     -0.631099   5 H  s               157      0.624551  10 H  s         
    67      0.619825   3 C  s                41     -0.606734   2 C  py        
 
 Vector   81  Occ=0.000000D+00  E= 1.862070D+00
              MO Center=  5.0D-01,  2.1D-01, -4.3D-01, r^2= 4.0D+00
   Bfn.  Coefficient  Atom+Function         Bfn.  Coefficient  Atom+Function  
  ----- ------------  ---------------      ----- ------------  ---------------
    35      6.547771   2 C  s                66     -4.397801   3 C  s         
    72      3.569557   3 C  py               97     -3.156397   4 C  s         
    36      2.099500   2 C  s               104     -1.793503   4 C  pz        
    34     -1.609899   2 C  s                41      1.604275   2 C  py        
    67     -1.566785   3 C  s                45     -1.381169   2 C  pz        
 
 Vector   82  Occ=0.000000D+00  E= 1.917885D+00
              MO Center=  3.3D-01, -1.5D-01, -3.1D-01, r^2= 3.2D+00
   Bfn.  Coefficient  Atom+Function         Bfn.  Coefficient  Atom+Function  
  ----- ------------  ---------------      ----- ------------  ---------------
    98     -1.388369   4 C  s                36      1.378383   2 C  s         
    45     -1.228277   2 C  pz              103     -1.175720   4 C  py        
    97     -1.087356   4 C  s                35      0.979424   2 C  s         
    66     -0.925260   3 C  s                41      0.847853   2 C  py        
    42     -0.736346   2 C  pz              150     -0.703553   9 H  s         
 
 Vector   83  Occ=0.000000D+00  E= 1.991370D+00
              MO Center=  9.5D-01, -3.0D-01, -5.5D-01, r^2= 3.4D+00
   Bfn.  Coefficient  Atom+Function         Bfn.  Coefficient  Atom+Function  
  ----- ------------  ---------------      ----- ------------  ---------------
    98      4.303085   4 C  s                35      3.944931   2 C  s         
    66     -2.765858   3 C  s                36     -2.557795   2 C  s         
    40     -2.021668   2 C  px               72      1.938930   3 C  py        
    41      1.725287   2 C  py               43     -1.389195   2 C  px        
   107      1.351749   4 C  pz               71     -1.256041   3 C  px        
 
 Vector   84  Occ=0.000000D+00  E= 1.993627D+00
              MO Center=  4.9D-01, -2.1D-02, -5.3D-01, r^2= 3.4D+00
   Bfn.  Coefficient  Atom+Function         Bfn.  Coefficient  Atom+Function  
  ----- ------------  ---------------      ----- ------------  ---------------
    36      3.925805   2 C  s                98     -2.806196   4 C  s         
    45     -1.954727   2 C  pz               67     -1.954238   3 C  s         
    35     -1.218332   2 C  s                40     -1.078539   2 C  px        
     5     -1.052698   1 O  s               104      0.937617   4 C  pz        
   156      0.875536  10 H  s                44      0.819144   2 C  py        
 
 Vector   85  Occ=0.000000D+00  E= 2.088811D+00
              MO Center= -1.4D-02,  1.5D-01, -6.7D-02, r^2= 3.6D+00
   Bfn.  Coefficient  Atom+Function         Bfn.  Coefficient  Atom+Function  
  ----- ------------  ---------------      ----- ------------  ---------------
    98      1.946189   4 C  s                41     -1.147287   2 C  py        
    67     -1.073866   3 C  s                66      0.969720   3 C  s         
   156     -0.774050  10 H  s                14      0.721509   1 O  pz        
   138      0.696764   7 H  s                71      0.677909   3 C  px        
    36     -0.659636   2 C  s               150     -0.618401   9 H  s         
 
 Vector   86  Occ=0.000000D+00  E= 2.094705D+00
              MO Center= -3.8D-01,  6.9D-02,  7.8D-02, r^2= 2.9D+00
   Bfn.  Coefficient  Atom+Function         Bfn.  Coefficient  Atom+Function  
  ----- ------------  ---------------      ----- ------------  ---------------
    36      6.163124   2 C  s                67     -5.461815   3 C  s         
    35     -3.271345   2 C  s                66      3.137950   3 C  s         
    41     -2.844094   2 C  py               71      2.663700   3 C  px        
    13      1.877966   1 O  py               82     -1.425327   3 C  d -2      
    98     -1.367063   4 C  s                55      1.316319   2 C  d  2      
 
 Vector   87  Occ=0.000000D+00  E= 2.165720D+00
              MO Center=  5.2D-01, -1.0D-02, -5.1D-01, r^2= 3.2D+00
   Bfn.  Coefficient  Atom+Function         Bfn.  Coefficient  Atom+Function  
  ----- ------------  ---------------      ----- ------------  ---------------
    98      2.242196   4 C  s                67     -1.921964   3 C  s         
    35     -1.308459   2 C  s                73      1.057178   3 C  pz        
   156     -0.961928  10 H  s                36      0.894110   2 C  s         
    43     -0.874563   2 C  px               44      0.872796   2 C  py        
    40      0.794647   2 C  px               42     -0.797673   2 C  pz        
 
 Vector   88  Occ=0.000000D+00  E= 2.200935D+00
              MO Center=  4.6D-01,  1.4D-01, -3.6D-01, r^2= 3.7D+00
   Bfn.  Coefficient  Atom+Function         Bfn.  Coefficient  Atom+Function  
  ----- ------------  ---------------      ----- ------------  ---------------
    98      1.999734   4 C  s                36     -1.154007   2 C  s         
    45      0.972769   2 C  pz               76     -0.913374   3 C  pz        
   132      0.781358   6 H  s                42     -0.767149   2 C  pz        
    97     -0.737971   4 C  s               103     -0.721469   4 C  py        
   117     -0.623964   4 C  d  2            138     -0.603999   7 H  s         
 
 Vector   89  Occ=0.000000D+00  E= 2.219378D+00
              MO Center=  8.6D-01, -1.7D-01, -4.4D-01, r^2= 3.6D+00
   Bfn.  Coefficient  Atom+Function         Bfn.  Coefficient  Atom+Function  
  ----- ------------  ---------------      ----- ------------  ---------------
    36      3.313482   2 C  s                98     -1.802397   4 C  s         
    67     -1.659230   3 C  s               150      1.117261   9 H  s         
    45     -1.024668   2 C  pz                5     -0.919647   1 O  s         
    42     -0.757076   2 C  pz               43     -0.754985   2 C  px        
    44      0.642768   2 C  py              156     -0.637408  10 H  s         
 
 Vector   90  Occ=0.000000D+00  E= 2.230937D+00
              MO Center=  6.3D-01, -2.0D-01, -6.0D-01, r^2= 3.8D+00
   Bfn.  Coefficient  Atom+Function         Bfn.  Coefficient  Atom+Function  
  ----- ------------  ---------------      ----- ------------  ---------------
   144      1.063243   8 H  s               150     -1.013410   9 H  s         
    72     -0.709530   3 C  py              117     -0.708640   4 C  d  2      
     5     -0.630136   1 O  s                83     -0.632978   3 C  d -1      
    42     -0.601116   2 C  pz               67      0.500508   3 C  s         
   158     -0.499838  10 H  px              114     -0.441659   4 C  d -1      
 
 Vector   91  Occ=0.000000D+00  E= 2.257699D+00
              MO Center=  9.5D-01, -2.4D-01, -9.5D-01, r^2= 3.3D+00
   Bfn.  Coefficient  Atom+Function         Bfn.  Coefficient  Atom+Function  
  ----- ------------  ---------------      ----- ------------  ---------------
    66      2.973321   3 C  s                41     -1.777941   2 C  py        
    36      1.766083   2 C  s                35     -1.668120   2 C  s         
    67     -1.643172   3 C  s                72     -1.579230   3 C  py        
   126     -1.039210   5 H  s                71      0.986096   3 C  px        
   156      0.861658  10 H  s               144     -0.779650   8 H  s         
 
 Vector   92  Occ=0.000000D+00  E= 2.279912D+00
              MO Center=  4.2D-01,  2.0D-01, -2.1D-01, r^2= 3.5D+00
   Bfn.  Coefficient  Atom+Function         Bfn.  Coefficient  Atom+Function  
  ----- ------------  ---------------      ----- ------------  ---------------
    98      3.753457   4 C  s                36     -2.782842   2 C  s         
[...]
    21     -0.871754   1 O  d -1             42     -0.809419   2 C  pz        
    97     -0.725352   4 C  s                45     -0.704722   2 C  pz        
    98     -0.522279   4 C  s                 5     -0.513480   1 O  s         
    67     -0.512358   3 C  s                83     -0.492996   3 C  d -1      
 
 Vector  154  Occ=0.000000D+00  E= 6.676099D+00
              MO Center= -8.7D-01, -1.8D-01,  2.0D-01, r^2= 5.7D-01
   Bfn.  Coefficient  Atom+Function         Bfn.  Coefficient  Atom+Function  
  ----- ------------  ---------------      ----- ------------  ---------------
    18      1.062422   1 O  d  1             23     -1.036494   1 O  d  1      
    97     -0.867151   4 C  s                42     -0.782493   2 C  pz        
    35      0.759709   2 C  s               102      0.633115   4 C  px        
    54     -0.546440   2 C  d  1             14      0.405466   1 O  pz        
    16     -0.393209   1 O  d -1             11      0.388722   1 O  pz        
 
 Vector  155  Occ=0.000000D+00  E= 6.841905D+00
              MO Center= -8.8D-01, -1.9D-01,  2.0D-01, r^2= 5.9D-01
   Bfn.  Coefficient  Atom+Function         Bfn.  Coefficient  Atom+Function  
  ----- ------------  ---------------      ----- ------------  ---------------
     5      2.111133   1 O  s                40      1.768249   2 C  px        
     9      1.360849   1 O  px               97     -1.287884   4 C  s         
     4      1.203807   1 O  s                20      1.048809   1 O  d -2      
    42     -0.977661   2 C  pz               12      0.847001   1 O  px        
    35     -0.841697   2 C  s                15     -0.833791   1 O  d -2      
 
 Vector  156  Occ=0.000000D+00  E= 7.055408D+00
              MO Center= -8.9D-01, -1.9D-01,  2.0D-01, r^2= 6.4D-01
   Bfn.  Coefficient  Atom+Function         Bfn.  Coefficient  Atom+Function  
  ----- ------------  ---------------      ----- ------------  ---------------
    66     -3.177069   3 C  s                35      3.024385   2 C  s         
    40     -2.726273   2 C  px               72      2.693064   3 C  py        
    24     -1.578632   1 O  d  2             36      1.446521   2 C  s         
    67     -1.291641   3 C  s                10      1.283055   1 O  py        
    19      1.016849   1 O  d  2             13      0.866620   1 O  py        
 
 Vector  157  Occ=0.000000D+00  E= 2.190761D+01
              MO Center=  9.3D-01, -2.2D-01, -9.1D-01, r^2= 1.2D+00
   Bfn.  Coefficient  Atom+Function         Bfn.  Coefficient  Atom+Function  
  ----- ------------  ---------------      ----- ------------  ---------------
    98      1.769171   4 C  s                95     -1.576288   4 C  s         
    96      1.401652   4 C  s                94      1.246474   4 C  s         
    67     -1.177963   3 C  s                64      0.751588   3 C  s         
    63     -0.594822   3 C  s                97     -0.565249   4 C  s         
    65     -0.559774   3 C  s                40     -0.503046   2 C  px        
 
 Vector  158  Occ=0.000000D+00  E= 2.195734D+01
              MO Center=  9.8D-02,  7.1D-01,  1.1D-01, r^2= 1.1D+00
   Bfn.  Coefficient  Atom+Function         Bfn.  Coefficient  Atom+Function  
  ----- ------------  ---------------      ----- ------------  ---------------
    64      1.514826   3 C  s                65     -1.390569   3 C  s         
    63     -1.190824   3 C  s                34     -0.827477   2 C  s         
    33      0.670391   2 C  s                96     -0.639633   4 C  s         
    95      0.634090   4 C  s                32     -0.522478   2 C  s         
    94     -0.498281   4 C  s                35      0.484916   2 C  s         
 
 Vector  159  Occ=0.000000D+00  E= 2.209499D+01
              MO Center=  5.5D-01, -8.0D-02,  5.3D-02, r^2= 5.1D-01
   Bfn.  Coefficient  Atom+Function         Bfn.  Coefficient  Atom+Function  
  ----- ------------  ---------------      ----- ------------  ---------------
    36      2.300538   2 C  s                33     -1.636837   2 C  s         
    34      1.626983   2 C  s                35     -1.347459   2 C  s         
    67     -1.290310   3 C  s                32      1.281621   2 C  s         
    98     -1.092970   4 C  s                97      0.653606   4 C  s         
    64      0.515238   3 C  s                95      0.466044   4 C  s         
 
 Vector  160  Occ=0.000000D+00  E= 4.341403D+01
              MO Center= -8.8D-01, -1.8D-01,  2.0D-01, r^2= 1.2D-01
   Bfn.  Coefficient  Atom+Function         Bfn.  Coefficient  Atom+Function  
  ----- ------------  ---------------      ----- ------------  ---------------
     4      2.506101   1 O  s                 3     -1.874304   1 O  s         
     2      1.731523   1 O  s                 1     -1.395840   1 O  s         
     5     -0.879099   1 O  s                36      0.834037   2 C  s         
     9      0.561277   1 O  px               66     -0.513301   3 C  s         
    40      0.464631   2 C  px               72      0.456045   3 C  py        
 

 center of mass
 --------------
 x =   0.30619366 y =   0.09486532 z =  -0.27792484

 moments of inertia (a.u.)
 ------------------
         200.263119564478          45.632360281796          83.744869354703
          45.632360281796         248.225486199743         -52.623714059881
          83.744869354703         -52.623714059881         239.271289953410
 
     Multipole analysis of the density
     ---------------------------------
 
     L   x y z        total         alpha         beta         nuclear
     -   - - -        -----         -----         ----         -------
     0   0 0 0     -0.000000    -16.000000    -16.000000     32.000000
 
     1   1 0 0      0.684746     -6.232395     -6.232395     13.149535
     1   0 1 0      0.328772     -1.615918     -1.615918      3.560608
     1   0 0 1     -0.050881      5.331971      5.331971    -10.714822
 
     2   2 0 0    -20.072126    -54.489260    -54.489260     88.906394
     2   1 1 0     -1.103819     13.897968     13.897968    -28.899755
     2   1 0 1      0.174930     26.508159     26.508159    -52.841387
     2   0 2 0    -17.861846    -40.581599    -40.581599     63.301351
     2   0 1 1      0.241218    -15.410534    -15.410534     31.062286
     2   0 0 2    -18.240888    -45.823344    -45.823344     73.405800
 
 *** CALLING NEW AORESP DRIVER FOR CLOSED AND OPEN SHELLS ***
 Entering AOResponse driver routine


--------------------------------------------------------------------------------

          ****************
          *** RESPONSE ***
          ****************

 Response module for NWChem and dynamic CPKS solver
 developed by J. Autschbach and coworkers, SUNY Buffalo
 The methodology used in this program is described in 
 ChemPhysChem 12 (2011), 3224-3235 (main reference)
 J. Chem. Phys. 123 (2005), 114103
 J. Chem. Phys. 122 (2005), 224115
 J. Chem. Phys. 122 (2005), 074105
 Comp. Lett. 3 (2007), 131-150 (contact JA for a copy)
 Please cite this work in publications based on results
 obtained with this code. Thank you!

 For extension of response module to open shell
 calculations please acknowledge:
 F. Aquino, Northwestern University, Schatz Rsrch Group
 The update to the methodology is described in
 J. Phys. Chem. A 118 (2014) 517-525



          -----------------------------------------------
          Solving response equations for perturbing field
          -----------------------------------------------

 number of frequencies:     1
 frequency in a.u.:  0.9319600E-01
 Perturbing field: electric
 Using GIAO formalism for OptRot
 Adding quadrupole terms to OptRot
 to create an origin in dependent tensor.
 Using El. Dipole Length Gauge
 
 Applying DAMPING constant of  0.003700 a.u.
 
 Setting up CPKS
 with frequency omega =      0.09319600 a.u.
 and a damping of            0.00370000 a.u.

 
                            NWChem Dynamic CPHF Module
                            --------------------------
 
 
    scftype = RHF 
    nclosed =   16
      nopen =    0
  variables =     9216
  num. vecs =        3
  tolerance =   1.0D-07
  max. iter =  100

 SCF residual:   4.540330458042186E-006


Iterative solution of linear equations
  No. of variables     4608
  No. of equations        3
  Maximum subspace       99
       Convergence  1.0D-07
        Start time     86.0


   iter   nsub   residual    time 
   ----  ------  --------  --------- 
 dft_CPHF2_read: failed to open
 ./methyloxirane_blyp-def2-tzvp_488.9_19.inp.aoresp_fiao_f1
     1      3    3.79D+00     129.9
     2      6    2.82D+00     173.9
     3      9    2.51D-01     218.0
     4     12    5.64D-02     262.1
     5     15    1.05D-02     306.1
     6     18    1.26D-03     350.2
     7     21    1.44D-04     394.2
     8     24    1.48D-05     438.3
     9     27    1.33D-06     482.3
    10     30    4.78D-07     526.4
    11     33    1.28D-08     570.4

 Calculating some arrays needed for GIAO optical rotation

    0 giaofock schwarz done =      93.59%
    0 giaofock schwarz done =      93.08%
 aor_r1_tensor_giao: roadata output requested
 dip-quad polarizability Re:

              1        2        3        4        5        6      
    1   80.7326  -6.3548 -29.0689  -4.6110   1.1992   8.7167
    2  -11.4232  26.6515   3.4914  21.6899 -23.0402   4.2641
    3   -6.8647   1.1603  39.7135  -0.3348  13.8931 -42.6380
 traceless dip-quad polarizability:

              1        2        3      
    1   78.6798  -9.5322 -43.6033
    2   -9.5322 -49.3357   1.7989
    3  -43.6033   1.7989 -29.3441

              1        2        3      
    1  -24.4002  39.9772   5.2372
    2   39.9772  25.2694 -34.5602
    3    5.2372 -34.5602  -0.8692

              1        2        3      
    1   14.6217   1.7404  59.5703
    2    1.7404  24.4166  20.8397
    3   59.5703  20.8397 -39.0383

 roa begin

 alpha real:
 XX       0.4153699107371E+02
 XY      -0.5203818852717E+01
 XZ      -0.3100766249538E+01
 YX      -0.5203818862391E+01
 YY       0.4449460978599E+02
 YZ       0.3252451698699E+01
 ZX      -0.3100766257254E+01
 ZY       0.3252451695936E+01
 ZZ       0.4178460642052E+02

 alpha im:
 XX       0.1143874734211E+00
 XY      -0.3027342773228E-01
 XZ      -0.1208443758183E-01
 YX      -0.3027342355299E-01
 YY       0.1319081940831E+00
 YZ       0.1925991102348E-01
 ZX      -0.1208443350757E-01
 ZY       0.1925991015232E-01
 ZZ       0.1245468322858E+00

 beta real:
 XX      -0.1475580662833E+00
 XY       0.1006499850142E+01
 XZ       0.1665888274488E+00
 YX      -0.9518313603558E+00
 YY       0.1527386081477E+00
 YZ      -0.1607797830346E+01
 ZX      -0.4648945532100E+00
 ZY       0.1912550197882E+01
 ZZ      -0.9259796510886E-02

 G-prime = -omega beta(real):
 XX      -0.1475580662833E+00
 XY       0.1006499850142E+01
 XZ       0.1665888274488E+00
 YX      -0.9518313603558E+00
 YY       0.1527386081477E+00
 YZ      -0.1607797830346E+01
 ZX      -0.4648945532100E+00
 ZY       0.1912550197882E+01
 ZZ      -0.9259796510886E-02

 beta im:
 XX      -0.6353607316375E-02
 XY       0.1505769394938E-01
 XZ       0.1892932482294E-02
 YX      -0.9286611405037E-02
 YY       0.5118932176082E-02
 YZ      -0.2512559173295E-01
 ZX      -0.1316906152929E-01
 ZY       0.4111263609336E-01
 ZZ       0.4179616856393E-03

 G-prime = -omega beta(imag):
 XX      -0.6353607316375E-02
 XY       0.1505769394938E-01
 XZ       0.1892932482294E-02
 YX      -0.9286611405037E-02
 YY       0.5118932176082E-02
 YZ      -0.2512559173295E-01
 ZX      -0.1316906152929E-01
 ZY       0.4111263609336E-01
 ZZ       0.4179616856393E-03

 dipole-quadrupole real (Cartesian):
 XXX      0.8073262916757E+02
 XXY     -0.6354820081393E+01
 XXZ     -0.2906886618128E+02
 XYY     -0.4611040457020E+01
 XYZ      0.1199239689640E+01
 XZZ      0.8716688275425E+01
 YXX     -0.1142320941701E+02
 YXY      0.2665149909767E+02
 YXZ      0.3491439301663E+01
 YYY      0.2168989486844E+02
 YYZ     -0.2304015536073E+02
 YZZ      0.4264107183580E+01
 ZXX     -0.6864664064789E+01
 ZXY      0.1160294002043E+01
 ZXZ      0.3971353850857E+02
 ZYY     -0.3347501981695E+00
 ZYZ      0.1389313819790E+02
 ZZZ     -0.4263795805257E+02

 dipole-quadrupole imag (Cartesian):
 XXX      0.2909343372887E+00
 XXY     -0.3500056913639E-01
 XXZ     -0.8545806129506E-01
 XYY     -0.3038935025187E-01
 XYZ      0.2209823039363E-02
 XZZ      0.5850912489570E-01
 YXX     -0.5500052281050E-01
 YXY      0.6772517397707E-01
 YXZ      0.2078648977840E-01
 YYY      0.8238711381705E-01
 YYZ     -0.6904436987708E-01
 YZZ      0.1064825520213E-01
 ZXX     -0.3667766006109E-01
 ZXY      0.5219574443000E-03
 ZXZ      0.1475992288525E+00
 ZYY      0.4593298392835E-02
 ZYZ      0.6623439314735E-01
 ZZZ     -0.1027804247680E+00

 dipole-quadrupole (traceless):
 XXX      0.7867980525837E+02
 XXY     -0.9532230122090E+01
 XXZ     -0.4360329927192E+02
 XYY     -0.4933569917852E+02
 XYZ      0.1798859534459E+01
 XZZ     -0.2934410607985E+02
 YXX     -0.2440021044302E+02
 YXY      0.3997724864651E+02
 YXZ      0.5237158952495E+01
 YYY      0.2526944598515E+02
 YYZ     -0.3456023304109E+02
 YZZ     -0.8692355421321E+00
 ZXX      0.1462169006058E+02
 ZXY      0.1740441003065E+01
 ZXZ      0.5957030776285E+02
 ZYY      0.2441656086051E+02
 ZYZ      0.2083970729686E+02
 ZZZ     -0.3903825092109E+02

 roa end


 Electric Dipole Response Matrix (nonzero elements):

              1        2        3      
    1   41.5370  -5.2038  -3.1008
    2   -5.2038  44.4946   3.2525
    3   -3.1008   3.2525  41.7846
 
 Imaginary part:

              1        2        3      
    1    0.1144  -0.0303  -0.0121
    2   -0.0303   0.1319   0.0193
    3   -0.0121   0.0193   0.1245

 ------------------------------------------
 average:        42.60540 + I       0.12361


 DFT Linear Response polarizability / au 
 Frequency  =       0.0931960 / au
 Wavelength =     488.8981609 / nm
              X              Y              Z
 -----------------------------------------------
 X      41.5369911     -5.2038189     -3.1007662
 Y      -5.2038189     44.4946098      3.2524517
 Z      -3.1007663      3.2524517     41.7846064
 -----------------------------------------------
 Eigenvalues =      37.4987498     50.6729517     39.6445058
 Isotropic   =      42.6054024
 Anisotropic =       9.9965075
 -----------------------------------------------
 *************************

 DFT Linear Response IMAG polarizability / au 
 Frequency  =       0.0931960 / au
 Wavelength =     488.8981609 / nm
              X              Y              Z
 -----------------------------------------------
 X       0.1143875     -0.0302734     -0.0120844
 Y      -0.0302734      0.1319082      0.0192599
 Z      -0.0120844      0.0192599      0.1245468
 -----------------------------------------------
 Eigenvalues =       0.0914857      0.1668202      0.1125366
 Isotropic   =       0.1236142
 Anisotropic =       0.0549701
 -----------------------------------------------
 *************************

 Magnetic Dipole Response Matrix (nonzero elements):
 Optical rotation tensor Beta
 (Buckingham-Dunn version including dipole-quadrupole terms)

              1        2        3      
    1    2.7489  -0.4186   0.4603
    2   -0.4186  -1.6584  -1.7014
    3    0.4603  -1.7014  -1.0467
 
 Imaginary part:

              1        2        3      
    1    0.0682  -0.1616  -0.0203
    2    0.0996  -0.0549   0.2696
    3    0.1413  -0.4411  -0.0045

 ------------------------------------------
 average:         0.01459 + I       0.00292

 Principal components and PAS (Real part)
                 -3.08137
                  2.90197
                  0.22317
 ------------------------
 average:         0.01459

              1        2        3      
    1    0.0045   0.9710  -0.2390
    2    0.7676  -0.1565  -0.6215
    3    0.6409   0.1806   0.7461

 Chiral response tensor (Real part):

              1        2        3      
    1   -1.3526   0.2093  -0.2301
    2    0.2093   0.8511   0.8507
    3   -0.2301   0.8507   0.5453
 
 Principal components and PAS (Real part)
                  1.56257
                 -1.42910
                 -0.08970
 ------------------------
 average:         0.01459

              1        2        3      
    1    0.0045   0.9710  -0.2390
    2    0.7676  -0.1565  -0.6215
    3    0.6409   0.1806   0.7461
 Exiting AOResponse driver routine

 Task  times  cpu:      554.6s     wall:      564.1s
 
 
                                NWChem Input Module
                                -------------------
 
 
 Summary of allocated global arrays
-----------------------------------
  No active global arrays



                         GA Statistics for process    0
                         ------------------------------

       create   destroy   get      put      acc     scatter   gather  read&inc
calls: 3294     3294     7.73e+06 3.14e+06 7.82e+05 2694        0     1125     
number of processes/call 1.01e+00 1.03e+00 1.44e+00 0.00e+00 0.00e+00
bytes total:             1.86e+09 1.26e+08 1.86e+09 1.84e+02 0.00e+00 9.00e+03
bytes remote:            8.04e+08 3.29e+07 1.09e+09 0.00e+00 0.00e+00 0.00e+00
Max memory consumed for GA by this process: 11242192 bytes
 
MA_summarize_allocated_blocks: starting scan ...
MA_summarize_allocated_blocks: scan completed: 0 heap blocks, 0 stack blocks
MA usage statistics:

	allocation statistics:
					      heap	     stack
					      ----	     -----
	current number of blocks	         0	         0
	maximum number of blocks	        24	        52
	current total bytes		         0	         0
	maximum total bytes		   7519840	  48955000
	maximum total K-bytes		      7520	     48955
	maximum total M-bytes		         8	        49
 
 
                                     CITATION
                                     --------
                Please cite the following reference when publishing
                           results obtained with NWChem:
 
                 M. Valiev, E.J. Bylaska, N. Govind, K. Kowalski,
              T.P. Straatsma, H.J.J. van Dam, D. Wang, J. Nieplocha,
                        E. Apra, T.L. Windus, W.A. de Jong
                 "NWChem: a comprehensive and scalable open-source
                  solution for large scale molecular simulations"
                      Comput. Phys. Commun. 181, 1477 (2010)
                           doi:10.1016/j.cpc.2010.04.018
 
                                      AUTHORS
                                      -------
          E. Apra, E. J. Bylaska, W. A. de Jong, N. Govind, K. Kowalski,
       T. P. Straatsma, M. Valiev, H. J. J. van Dam, D. Wang, T. L. Windus,
        J. Hammond, J. Autschbach, K. Bhaskaran-Nair, J. Brabec, K. Lopata,
    S. A. Fischer, S. Krishnamoorthy, M. Jacquelin, W. Ma, M. Klemm, O. Villa,
      Y. Chen, V. Anisimov, F. Aquino, S. Hirata, M. T. Hackler, V. Konjkov,
            D. Mejia-Rodriguez, T. Risthaus, M. Malagoli, A. Marenich,
   A. Otero-de-la-Roza, J. Mullin, P. Nichols, R. Peverati, J. Pittner, Y. Zhao,
        P.-D. Fan, A. Fonari, M. J. Williamson, R. J. Harrison, J. R. Rehr,
      M. Dupuis, D. Silverstein, D. M. A. Smith, J. Nieplocha, V. Tipparaju,
    M. Krishnan, B. E. Van Kuiken, A. Vazquez-Mayagoitia, L. Jensen, M. Swart,
      Q. Wu, T. Van Voorhis, A. A. Auer, M. Nooijen, L. D. Crosby, E. Brown,
      G. Cisneros, G. I. Fann, H. Fruchtl, J. Garza, K. Hirao, R. A. Kendall,
      J. A. Nichols, K. Tsemekhman, K. Wolinski, J. Anchell, D. E. Bernholdt,
      P. Borowski, T. Clark, D. Clerc, H. Dachsel, M. J. O. Deegan, K. Dyall,
    D. Elwood, E. Glendening, M. Gutowski, A. C. Hess, J. Jaffe, B. G. Johnson,
     J. Ju, R. Kobayashi, R. Kutteh, Z. Lin, R. Littlefield, X. Long, B. Meng,
      T. Nakajima, S. Niu, L. Pollack, M. Rosing, K. Glaesemann, G. Sandrone,
      M. Stave, H. Taylor, G. Thomas, J. H. van Lenthe, A. T. Wong, Z. Zhang.

 Total times  cpu:      621.6s     wall:      632.7s
