 argument  1 = methyloxirane_blyp-def2-tzvp_488.9_13.inp
 


============================== echo of input deck ==============================
echo
start methyloxirane_blyp-def2-tzvp_488.9_13.inp
title "methyloxirane roa calculations at 488.9 nm, input generated in va  with delta_type=2"
charge 0



geometry units angstrom nocenter noautoz noautosym nucleus point;symmetry c1
 O -0.880768 -0.181062  0.204653
 C  0.576200 -0.161088  0.122530
 C -0.187653  1.091831  0.340355
 C  1.185683 -0.519792 -1.210349
 H  1.077110 -0.608409  0.988905
 H -0.221994  1.544153  1.335287
 H -0.323206  1.788332 -0.492016
 H  2.242673 -0.218346 -1.246049
 H  1.141700 -1.605793 -1.372658
 H  0.649604 -0.028374 -2.031538
end

basis spherical
* library def2-TZVP
end

 set prop:newaoresp 1
 set aor:roadata T
 set cphf:maxsub 100
 set cphf:acc 1.0d-10
 set cphf:maxiter 100

property
    response 1   0.093196
    bdtensor
    convergence 1e-7
    damping 0.0037
    giao
end

dft
 direct
 mult 1
 xc becke88 lyp
 iterations 250
 tolerances tight
 grid xfine
 convergence nolevelshifting
 convergence energy 1e-8
 convergence gradient 1e-7


end

task dft gradient
task dft property
================================================================================


                                         
                                         
 
 
              Northwest Computational Chemistry Package (NWChem) 6.8
              ------------------------------------------------------
 
 
                    Environmental Molecular Sciences Laboratory
                       Pacific Northwest National Laboratory
                                Richland, WA 99352
 
                              Copyright (c) 1994-2017
                       Pacific Northwest National Laboratory
                            Battelle Memorial Institute
 
             NWChem is an open-source computational chemistry package
                        distributed under the terms of the
                      Educational Community License (ECL) 2.0
             A copy of the license is included with this distribution
                              in the LICENSE.TXT file
 
                                  ACKNOWLEDGMENT
                                  --------------

            This software and its documentation were developed at the
            EMSL at Pacific Northwest National Laboratory, a multiprogram
            national laboratory, operated for the U.S. Department of Energy
            by Battelle under Contract Number DE-AC05-76RL01830. Support
            for this work was provided by the Department of Energy Office
            of Biological and Environmental Research, Office of Basic
            Energy Sciences, and the Office of Advanced Scientific Computing.


           Job information
           ---------------

    hostname        = cpn-f11-17-02.cbls.ccr.buffalo.edu
    program         = /util/academic/nwchem/nwchem-6.8/bin/LINUX64/nwchem
    date            = Fri Mar  1 10:05:54 2019

    compiled        = Tue_Nov_06_14:59:08_2018
    source          = /util/academic/nwchem/nwchem-6.8
    nwchem branch   = 6.8
    nwchem revision = v6.8-47-gdf6c956
    ga revision     = ga-5.6.3
    use scalapack   = F
    input           = methyloxirane_blyp-def2-tzvp_488.9_13.inp
    prefix          = methyloxirane_blyp-def2-tzvp_488.9_13.inp.
    data base       = ./methyloxirane_blyp-def2-tzvp_488.9_13.inp.db
    status          = startup
    nproc           =        7
    time left       =     -1s



           Memory information
           ------------------

    heap     =   13107198 doubles =    100.0 Mbytes
    stack    =   13107195 doubles =    100.0 Mbytes
    global   =   26214400 doubles =    200.0 Mbytes (distinct from heap & stack)
    total    =   52428793 doubles =    400.0 Mbytes
    verify   = yes
    hardfail = no 


           Directory information
           ---------------------
 
  0 permanent = .
  0 scratch   = .
 
 
 
 
                                NWChem Input Module
                                -------------------
 
 
                    methyloxirane roa calculations at 488.9 nm, input generated in va  with delta_type=2
                    ------------------------------------------

 Scaling coordinates for geometry "geometry" by  1.889725989
 (inverse scale =  0.529177249)

 
 
                             Geometry "geometry" -> ""
                             -------------------------
 
 Output coordinates in angstroms (scale by  1.889725989 to convert to a.u.)
 
  No.       Tag          Charge          X              Y              Z
 ---- ---------------- ---------- -------------- -------------- --------------
    1 O                    8.0000    -0.88076800    -0.18106200     0.20465300
    2 C                    6.0000     0.57620000    -0.16108800     0.12253000
    3 C                    6.0000    -0.18765300     1.09183100     0.34035500
    4 C                    6.0000     1.18568300    -0.51979200    -1.21034900
    5 H                    1.0000     1.07711000    -0.60840900     0.98890500
    6 H                    1.0000    -0.22199400     1.54415300     1.33528700
    7 H                    1.0000    -0.32320600     1.78833200    -0.49201600
    8 H                    1.0000     2.24267300    -0.21834600    -1.24604900
    9 H                    1.0000     1.14170000    -1.60579300    -1.37265800
   10 H                    1.0000     0.64960400    -0.02837400    -2.03153800
 
      Atomic Mass 
      ----------- 
 
      O                 15.994910
      C                 12.000000
      H                  1.007825
 

 Effective nuclear repulsion energy (a.u.)     123.3518857443

            Nuclear Dipole moment (a.u.) 
            ----------------------------
        X                 Y               Z
 ---------------- ---------------- ----------------
    13.1621739468     3.5692634246   -10.7064863630
 
 
            XYZ format geometry
            -------------------
    10
 geometry
 O                    -0.88076800    -0.18106200     0.20465300
 C                     0.57620000    -0.16108800     0.12253000
 C                    -0.18765300     1.09183100     0.34035500
 C                     1.18568300    -0.51979200    -1.21034900
 H                     1.07711000    -0.60840900     0.98890500
 H                    -0.22199400     1.54415300     1.33528700
 H                    -0.32320600     1.78833200    -0.49201600
 H                     2.24267300    -0.21834600    -1.24604900
 H                     1.14170000    -1.60579300    -1.37265800
 H                     0.64960400    -0.02837400    -2.03153800
 
 ==============================================================================
                                internuclear distances
 ------------------------------------------------------------------------------
       center one      |      center two      | atomic units |  angstroms
 ------------------------------------------------------------------------------
    2 C                |   1 O                |     2.75790  |     1.45942
    3 C                |   1 O                |     2.75089  |     1.45571
    3 C                |   2 C                |     2.80338  |     1.48348
    4 C                |   2 C                |     2.85136  |     1.50888
    5 H                |   2 C                |     2.07148  |     1.09618
    6 H                |   3 C                |     2.06635  |     1.09346
    7 H                |   3 C                |     2.06692  |     1.09377
    8 H                |   4 C                |     2.07816  |     1.09971
    9 H                |   4 C                |     2.07670  |     1.09894
   10 H                |   4 C                |     2.07287  |     1.09692
 ------------------------------------------------------------------------------
                         number of included internuclear distances:         10
 ==============================================================================



 ==============================================================================
                                 internuclear angles
 ------------------------------------------------------------------------------
        center 1       |       center 2       |       center 3       |  degrees
 ------------------------------------------------------------------------------
    2 C                |   1 O                |   3 C                |    61.18
    2 C                |   1 O                |   3 C                |    61.18
    1 O                |   2 C                |   4 C                |   116.72
    1 O                |   2 C                |   5 H                |   113.96
    3 C                |   2 C                |   4 C                |   122.58
    3 C                |   2 C                |   5 H                |   117.64
    4 C                |   2 C                |   5 H                |   114.62
    3 C                |   1 O                |   2 C                |    61.18
    1 O                |   3 C                |   6 H                |   115.57
    1 O                |   3 C                |   7 H                |   115.27
    2 C                |   3 C                |   6 H                |   119.94
    2 C                |   3 C                |   7 H                |   119.33
    6 H                |   3 C                |   7 H                |   115.16
    2 C                |   4 C                |   8 H                |   110.59
    2 C                |   4 C                |   9 H                |   110.44
    2 C                |   4 C                |  10 H                |   110.94
    8 H                |   4 C                |   9 H                |   107.73
    8 H                |   4 C                |  10 H                |   108.82
    9 H                |   4 C                |  10 H                |   108.22
 ------------------------------------------------------------------------------
                            number of included internuclear angles:         19
 ==============================================================================



  warning:::::::::::::: from_environment
  NWCHEM_BASIS_LIBRARY set to: <
 /util/academic/nwchem/nwchem-6.8/src/basis/libraries>
  but file does not exist !
  using .nwchemrc or compiled library


 Summary of "ao basis" -> "" (spherical)
 ------------------------------------------------------------------------------
       Tag                 Description            Shells   Functions and Types
 ---------------- ------------------------------  ------  ---------------------
 *                         def2-TZVP                  on all atoms 


 
                                 NWChem DFT Module
                                 -----------------
 
 
                    methyloxirane roa calculations at 488.9 nm, input generated in va  with delta_type=2
 
 
                      Basis "ao basis" -> "ao basis" (spherical)
                      -----
  O (Oxygen)
  ----------
            Exponent  Coefficients 
       -------------- ---------------------------------------------------------
  1 S  2.70323826E+04  0.000217
  1 S  4.05238714E+03  0.001684
  1 S  9.22327227E+02  0.008740
  1 S  2.61240710E+02  0.035240
  1 S  8.53546414E+01  0.111535
  1 S  3.10350352E+01  0.255890
 
  2 S  1.22608607E+01  0.397687
  2 S  4.99870760E+00  0.246278
 
  3 S  1.17031082E+00  1.000000
 
  4 S  4.64747410E-01  1.000000
 
  5 S  1.85045364E-01  1.000000
 
  6 P  6.32749548E+01  0.006069
  6 P  1.46270494E+01  0.041913
  6 P  4.45012235E+00  0.161538
  6 P  1.52757996E+00  0.357070
 
  7 P  5.29351179E-01  1.000000
 
  8 P  1.74784213E-01  1.000000
 
  9 D  2.31400000E+00  1.000000
 
 10 D  6.45000000E-01  1.000000
 
 11 F  1.42800000E+00  1.000000
 
  C (Carbon)
  ----------
            Exponent  Coefficients 
       -------------- ---------------------------------------------------------
  1 S  1.35753497E+04  0.000222
  1 S  2.03523337E+03  0.001723
  1 S  4.63225624E+02  0.008926
  1 S  1.31200196E+02  0.035728
  1 S  4.28530159E+01  0.110763
  1 S  1.55841858E+01  0.242956
 
  2 S  6.20671385E+00  0.414403
  2 S  2.57648965E+00  0.237450
 
  3 S  5.76963394E-01  1.000000
 
  4 S  2.29728314E-01  1.000000
 
  5 S  9.51644400E-02  1.000000
 
  6 P  3.46972322E+01  0.005333
  6 P  7.95826228E+00  0.035864
  6 P  2.37808269E+00  0.142159
  6 P  8.14332082E-01  0.342705
 
  7 P  2.88875473E-01  1.000000
 
  8 P  1.00568237E-01  1.000000
 
  9 D  1.09700000E+00  1.000000
 
 10 D  3.18000000E-01  1.000000
 
 11 F  7.61000000E-01  1.000000
 
  H (Hydrogen)
  ------------
            Exponent  Coefficients 
       -------------- ---------------------------------------------------------
  1 S  3.40613410E+01  0.006025
  1 S  5.12357460E+00  0.045021
  1 S  1.16466260E+00  0.201897
 
  2 S  3.27230410E-01  1.000000
 
  3 S  1.03072410E-01  1.000000
 
  4 P  8.00000000E-01  1.000000
 


 Summary of "ao basis" -> "ao basis" (spherical)
 ------------------------------------------------------------------------------
       Tag                 Description            Shells   Functions and Types
 ---------------- ------------------------------  ------  ---------------------
 O                         def2-TZVP                11       31   5s3p2d1f
 C                         def2-TZVP                11       31   5s3p2d1f
 H                         def2-TZVP                 4        6   3s1p




 Summary of "ao basis" -> "ao basis" (spherical)
 ------------------------------------------------------------------------------
       Tag                 Description            Shells   Functions and Types
 ---------------- ------------------------------  ------  ---------------------
 O                         def2-TZVP                11       31   5s3p2d1f
 C                         def2-TZVP                11       31   5s3p2d1f
 H                         def2-TZVP                 4        6   3s1p


  Caching 1-el integrals 
  itol2e modified to match energy
  convergence criterion.
  tol_rho modified to match energy
  convergence criterion.
 
            General Information
            -------------------
          SCF calculation type: DFT
          Wavefunction type:  closed shell.
          No. of atoms     :    10
          No. of electrons :    32
           Alpha electrons :    16
            Beta electrons :    16
          Charge           :     0
          Spin multiplicity:     1
          Use of symmetry is: off; symmetry adaption is: off
          Maximum number of iterations: 250
          This is a Direct SCF calculation.
          AO basis - number of functions:   160
                     number of shells:    68
          Convergence on energy requested:  1.00D-08
          Convergence on density requested:  1.00D-05
          Convergence on gradient requested:  1.00D-07
 
              XC Information
              --------------
                    Becke 1988 Exchange Functional  1.000          
              Lee-Yang-Parr Correlation Functional  1.000          
 
             Grid Information
             ----------------
          Grid used for XC integration:  xfine     
          Radial quadrature: Mura-Knowles        
          Angular quadrature: Lebedev. 
          Tag              B.-S. Rad. Rad. Pts. Rad. Cut. Ang. Pts.
          ---              ---------- --------- --------- ---------
          O                   0.60      100          11.0      1454
          C                   0.70      100          11.0      1454
          H                   0.35      100          12.0      1202
          Grid pruning is: on 
          Number of quadrature shells:  1000
          Spatial weights used:  Erf1
 
          Convergence Information
          -----------------------
          Convergence aids based upon iterative change in 
          total energy or number of iterations. 
          Levelshifting, if invoked, occurs when the 
          HOMO/LUMO gap drops below (HL_TOL):  1.00D-02
          DIIS, if invoked, will attempt to extrapolate 
          using up to (NFOCK): 10 stored Fock matrices.

                    Damping( 0%)  Levelshifting(0.0)       DIIS
                  --------------- ------------------- ---------------
          dE  on:    start             N/A                start   
          dE off:    2 iters           N/A              250 iters 

 
      Screening Tolerance Information
      -------------------------------
          Density screening/tol_rho:  1.00D-11
          AO Gaussian exp screening on grid/accAOfunc:  18
          CD Gaussian exp screening on grid/accCDfunc:  20
          XC Gaussian exp screening on grid/accXCfunc:  20
          Schwarz screening/accCoul:  1.00D-09

 
      Superposition of Atomic Density Guess
      -------------------------------------
 
 Sum of atomic energies:        -190.79714706
 
      Non-variational initial energy
      ------------------------------

 Total energy =    -193.140052
 1-e energy   =    -501.680711
 2-e energy   =     185.188773
 HOMO         =      -0.349069
 LUMO         =       0.089138
 
   Time after variat. SCF:      0.6
   Time prior to 1st pass:      0.6

 Grid_pts file          = ./methyloxirane_blyp-def2-tzvp_488.9_13.inp.gridpts.0
 Record size in doubles =  12289        No. of grid_pts per rec  =   3070
 Max. records in memory =     76        Max. recs in file   =    554552


           Memory utilization after 1st SCF pass: 
           Heap Space remaining (MW):       12.17            12167542
          Stack Space remaining (MW):       13.11            13106116

   convergence    iter        energy       DeltaE   RMS-Dens  Diis-err    time
 ---------------- ----- ----------------- --------- --------- ---------  ------
 d= 0,ls=0.0,diis     1   -193.0198045459 -3.16D+02  9.14D-03  1.06D+00     6.3
 d= 0,ls=0.0,diis     2   -192.8554376633  1.64D-01  7.57D-03  2.58D+00    11.9
 d= 0,ls=0.0,diis     3   -193.0766282209 -2.21D-01  1.83D-03  3.91D-01    17.4
 d= 0,ls=0.0,diis     4   -193.1071259359 -3.05D-02  6.90D-04  1.88D-02    22.9
 d= 0,ls=0.0,diis     5   -193.1088588125 -1.73D-03  2.93D-04  2.75D-03    28.5
 d= 0,ls=0.0,diis     6   -193.1092017205 -3.43D-04  3.06D-05  3.59D-05    34.0
 d= 0,ls=0.0,diis     7   -193.1092060351 -4.31D-06  8.68D-06  3.93D-06    39.5
 d= 0,ls=0.0,diis     8   -193.1092064779 -4.43D-07  1.89D-06  2.76D-07    45.0
 d= 0,ls=0.0,diis     9   -193.1092065086 -3.07D-08  5.91D-07  1.27D-08    50.5
 d= 0,ls=0.0,diis    10   -193.1092065102 -1.58D-09  1.31D-07  5.32D-10    56.0


         Total DFT energy =     -193.109206510193
      One electron energy =     -505.328508304990
           Coulomb energy =      215.882585521264
    Exchange-Corr. energy =      -27.015169470800
 Nuclear repulsion energy =      123.351885744333

 Numeric. integr. density =       31.999999987235

     Total iterative time =     55.4s


 
                       DFT Final Molecular Orbital Analysis
                       ------------------------------------
 
 Vector    1  Occ=2.000000D+00  E=-1.878052D+01
              MO Center= -8.8D-01, -1.8D-01,  2.0D-01, r^2= 1.5D-02
   Bfn.  Coefficient  Atom+Function         Bfn.  Coefficient  Atom+Function  
  ----- ------------  ---------------      ----- ------------  ---------------
     2      0.638481   1 O  s                 1      0.435423   1 O  s         
     3      0.039848   1 O  s                 4     -0.033113   1 O  s         
 
 Vector    2  Occ=2.000000D+00  E=-9.963797D+00
              MO Center=  5.8D-01, -1.6D-01,  1.2D-01, r^2= 2.8D-02
   Bfn.  Coefficient  Atom+Function         Bfn.  Coefficient  Atom+Function  
  ----- ------------  ---------------      ----- ------------  ---------------
    33      0.606930   2 C  s                32      0.467270   2 C  s         
    34      0.042537   2 C  s                36      0.037255   2 C  s         
    35     -0.027812   2 C  s         
 
 Vector    3  Occ=2.000000D+00  E=-9.956322D+00
              MO Center= -1.9D-01,  1.1D+00,  3.4D-01, r^2= 2.8D-02
   Bfn.  Coefficient  Atom+Function         Bfn.  Coefficient  Atom+Function  
  ----- ------------  ---------------      ----- ------------  ---------------
    64      0.607047   3 C  s                63      0.467232   3 C  s         
    65      0.039772   3 C  s         
 
 Vector    4  Occ=2.000000D+00  E=-9.907634D+00
              MO Center=  1.2D+00, -5.2D-01, -1.2D+00, r^2= 2.8D-02
   Bfn.  Coefficient  Atom+Function         Bfn.  Coefficient  Atom+Function  
  ----- ------------  ---------------      ----- ------------  ---------------
    95      0.606958   4 C  s                94      0.467214   4 C  s         
    96      0.040605   4 C  s                98      0.035827   4 C  s         
 
 Vector    5  Occ=2.000000D+00  E=-9.601191D-01
              MO Center= -4.8D-01,  5.4D-02,  2.1D-01, r^2= 6.5D-01
   Bfn.  Coefficient  Atom+Function         Bfn.  Coefficient  Atom+Function  
  ----- ------------  ---------------      ----- ------------  ---------------
     4      0.376501   1 O  s                 3      0.278423   1 O  s         
     2     -0.193360   1 O  s                34      0.138963   2 C  s         
    65      0.138225   3 C  s                 5      0.123347   1 O  s         
    35      0.105425   2 C  s                66      0.093959   3 C  s         
     6      0.092723   1 O  px               69     -0.090523   3 C  py        
 
 Vector    6  Occ=2.000000D+00  E=-6.703825D-01
              MO Center=  9.4D-01, -3.9D-01, -7.7D-01, r^2= 1.5D+00
   Bfn.  Coefficient  Atom+Function         Bfn.  Coefficient  Atom+Function  
  ----- ------------  ---------------      ----- ------------  ---------------
    97      0.284752   4 C  s                96      0.276003   4 C  s         
    35      0.185393   2 C  s                34      0.175260   2 C  s         
    95     -0.173831   4 C  s                 4     -0.147222   1 O  s         
    33     -0.109449   2 C  s                 3     -0.102991   1 O  s         
    94     -0.083293   4 C  s                 5     -0.072781   1 O  s         
 
 Vector    7  Occ=2.000000D+00  E=-5.895635D-01
              MO Center= -1.3D-01,  7.3D-01,  2.2D-01, r^2= 1.9D+00
   Bfn.  Coefficient  Atom+Function         Bfn.  Coefficient  Atom+Function  
  ----- ------------  ---------------      ----- ------------  ---------------
    66      0.327043   3 C  s                65      0.279428   3 C  s         
     4     -0.236385   1 O  s                64     -0.172604   3 C  s         
     3     -0.167049   1 O  s                 5     -0.146700   1 O  s         
     2      0.110251   1 O  s                38      0.103385   2 C  py        
   132      0.103576   6 H  s               138      0.099114   7 H  s         
 
 Vector    8  Occ=2.000000D+00  E=-5.294760D-01
              MO Center=  4.3D-01,  5.6D-04, -1.1D-01, r^2= 2.7D+00
   Bfn.  Coefficient  Atom+Function         Bfn.  Coefficient  Atom+Function  
  ----- ------------  ---------------      ----- ------------  ---------------
    35      0.303827   2 C  s                34      0.225697   2 C  s         
    97     -0.157352   4 C  s                66     -0.149629   3 C  s         
    33     -0.138838   2 C  s               126      0.132781   5 H  s         
    96     -0.130246   4 C  s                 6      0.106035   1 O  px        
   125      0.106325   5 H  s               101      0.098675   4 C  pz        
 
 Vector    9  Occ=2.000000D+00  E=-4.467341D-01
              MO Center=  1.2D-01,  2.7D-01,  2.4D-01, r^2= 2.5D+00
   Bfn.  Coefficient  Atom+Function         Bfn.  Coefficient  Atom+Function  
  ----- ------------  ---------------      ----- ------------  ---------------
    70      0.207209   3 C  pz               39      0.153880   2 C  pz        
   132      0.144171   6 H  s                73      0.130413   3 C  pz        
     8      0.125198   1 O  pz              126      0.116703   5 H  s         
     6     -0.113633   1 O  px               38     -0.107980   2 C  py        
    37      0.107129   2 C  px              131      0.106879   6 H  s         
 
 Vector   10  Occ=2.000000D+00  E=-4.133248D-01
              MO Center=  4.3D-02,  3.0D-01, -2.4D-01, r^2= 2.6D+00
   Bfn.  Coefficient  Atom+Function         Bfn.  Coefficient  Atom+Function  
  ----- ------------  ---------------      ----- ------------  ---------------
    69      0.213708   3 C  py              138      0.155391   7 H  s         
   101      0.154060   4 C  pz                6     -0.143220   1 O  px        
    38     -0.137791   2 C  py               37      0.127357   2 C  px        
    72      0.121707   3 C  py               70     -0.121049   3 C  pz        
     7     -0.120281   1 O  py                9     -0.114399   1 O  px        
 
 Vector   11  Occ=2.000000D+00  E=-3.771785D-01
              MO Center=  8.9D-01, -3.0D-01, -7.3D-01, r^2= 2.7D+00
   Bfn.  Coefficient  Atom+Function         Bfn.  Coefficient  Atom+Function  
  ----- ------------  ---------------      ----- ------------  ---------------
    99      0.210037   4 C  px              144      0.184512   8 H  s         
   100      0.162365   4 C  py              150     -0.138339   9 H  s         
   102      0.134592   4 C  px              143      0.129171   8 H  s         
    37      0.127775   2 C  px                7      0.119433   1 O  py        
     6     -0.116736   1 O  px              103      0.107410   4 C  py        
 
 Vector   12  Occ=2.000000D+00  E=-3.558571D-01
              MO Center=  5.9D-01, -3.4D-01, -8.7D-01, r^2= 2.9D+00
   Bfn.  Coefficient  Atom+Function         Bfn.  Coefficient  Atom+Function  
  ----- ------------  ---------------      ----- ------------  ---------------
   100      0.257683   4 C  py              150     -0.187910   9 H  s         
   156      0.173366  10 H  s                 7     -0.168195   1 O  py        
   103      0.167152   4 C  py               10     -0.134617   1 O  py        
   149     -0.130919   9 H  s               155      0.122760  10 H  s         
    70      0.117579   3 C  pz              106      0.103627   4 C  py        
 
 Vector   13  Occ=2.000000D+00  E=-3.291489D-01
              MO Center=  3.1D-01,  2.4D-01, -2.3D-01, r^2= 2.7D+00
   Bfn.  Coefficient  Atom+Function         Bfn.  Coefficient  Atom+Function  
  ----- ------------  ---------------      ----- ------------  ---------------
    39      0.211655   2 C  pz              101     -0.189003   4 C  pz        
     7     -0.178196   1 O  py               70     -0.166843   3 C  pz        
   138      0.160819   7 H  s                10     -0.143920   1 O  py        
    42      0.143519   2 C  pz               99      0.136510   4 C  px        
   104     -0.132771   4 C  pz              137      0.108043   7 H  s         
 
 Vector   14  Occ=2.000000D+00  E=-3.216823D-01
              MO Center=  4.3D-01, -5.9D-02, -2.5D-01, r^2= 3.0D+00
   Bfn.  Coefficient  Atom+Function         Bfn.  Coefficient  Atom+Function  
  ----- ------------  ---------------      ----- ------------  ---------------
     7      0.194349   1 O  py              126      0.166083   5 H  s         
    10      0.159489   1 O  py              156      0.157527  10 H  s         
    99     -0.153804   4 C  px                6     -0.142548   1 O  px        
    39      0.140806   2 C  pz              101     -0.131947   4 C  pz        
   144     -0.129137   8 H  s                37      0.127736   2 C  px        
 
 Vector   15  Occ=2.000000D+00  E=-2.621165D-01
              MO Center=  1.8D-02,  1.5D-01,  3.5D-02, r^2= 2.3D+00
   Bfn.  Coefficient  Atom+Function         Bfn.  Coefficient  Atom+Function  
  ----- ------------  ---------------      ----- ------------  ---------------
    68      0.264393   3 C  px               38      0.256295   2 C  py        
     6     -0.236580   1 O  px               41      0.200308   2 C  py        
    71      0.197374   3 C  px                9     -0.185154   1 O  px        
    12     -0.156889   1 O  px              150      0.115263   9 H  s         
   100     -0.110960   4 C  py               67      0.106419   3 C  s         
 
 Vector   16  Occ=2.000000D+00  E=-2.201082D-01
              MO Center= -5.8D-01, -2.6D-02,  2.0D-01, r^2= 1.6D+00
   Bfn.  Coefficient  Atom+Function         Bfn.  Coefficient  Atom+Function  
  ----- ------------  ---------------      ----- ------------  ---------------
     8      0.449019   1 O  pz               11      0.357674   1 O  pz        
    14      0.295401   1 O  pz              133     -0.131307   6 H  s         
   139      0.116163   7 H  s               132     -0.104370   6 H  s         
   138      0.103296   7 H  s               145     -0.102285   8 H  s         
   126     -0.096355   5 H  s                98      0.091580   4 C  s         
 
 Vector   17  Occ=0.000000D+00  E= 2.546638D-02
              MO Center=  1.2D+00, -7.5D-02, -5.7D-01, r^2= 7.2D+00
   Bfn.  Coefficient  Atom+Function         Bfn.  Coefficient  Atom+Function  
  ----- ------------  ---------------      ----- ------------  ---------------
    98      4.397861   4 C  s               145     -1.509312   8 H  s         
   151     -1.482529   9 H  s               157     -1.322002  10 H  s         
   127     -1.246863   5 H  s                45      1.102896   2 C  pz        
   139     -0.869623   7 H  s                67      0.705313   3 C  s         
   133     -0.610549   6 H  s                74     -0.332399   3 C  px        
 
 Vector   18  Occ=0.000000D+00  E= 4.161119D-02
              MO Center= -1.1D-01,  6.2D-01,  6.6D-02, r^2= 4.6D+00
   Bfn.  Coefficient  Atom+Function         Bfn.  Coefficient  Atom+Function  
  ----- ------------  ---------------      ----- ------------  ---------------
    98      2.345994   4 C  s                36     -2.026970   2 C  s         
     5      1.229837   1 O  s                74      0.928491   3 C  px        
   151     -0.876378   9 H  s                45      0.519384   2 C  pz        
   157     -0.496620  10 H  s                13      0.431576   1 O  py        
   145     -0.427478   8 H  s                67      0.420613   3 C  s         
 
 Vector   19  Occ=0.000000D+00  E= 4.941805D-02
              MO Center=  3.0D-01,  7.8D-01, -5.1D-02, r^2= 6.3D+00
   Bfn.  Coefficient  Atom+Function         Bfn.  Coefficient  Atom+Function  
  ----- ------------  ---------------      ----- ------------  ---------------
    67      3.545424   3 C  s                36     -2.006288   2 C  s         
   139     -1.549724   7 H  s               127      1.056744   5 H  s         
    98     -0.992875   4 C  s               133     -0.986757   6 H  s         
   145      0.909485   8 H  s                44     -0.874107   2 C  py        
    45     -0.626791   2 C  pz                5     -0.531384   1 O  s         
 
 Vector   20  Occ=0.000000D+00  E= 5.122602D-02
              MO Center=  6.9D-01,  2.2D-01,  3.3D-01, r^2= 7.5D+00
   Bfn.  Coefficient  Atom+Function         Bfn.  Coefficient  Atom+Function  
  ----- ------------  ---------------      ----- ------------  ---------------
    98      3.172551   4 C  s                36     -1.944585   2 C  s         
   127      1.868570   5 H  s               133      1.526728   6 H  s         
   157     -1.359607  10 H  s                67     -1.149233   3 C  s         
   145     -0.835013   8 H  s                44      0.805477   2 C  py        
    43     -0.763222   2 C  px               76     -0.710468   3 C  pz        
 
 Vector   21  Occ=0.000000D+00  E= 6.359150D-02
              MO Center=  2.3D-01,  1.8D-01, -1.0D-01, r^2= 4.9D+00
   Bfn.  Coefficient  Atom+Function         Bfn.  Coefficient  Atom+Function  
  ----- ------------  ---------------      ----- ------------  ---------------
    98      1.346799   4 C  s               139      1.259123   7 H  s         
    67     -1.222865   3 C  s               151     -0.945038   9 H  s         
     5     -0.882561   1 O  s                43     -0.854932   2 C  px        
   133      0.750763   6 H  s                75     -0.547120   3 C  py        
    12     -0.487529   1 O  px               45      0.432353   2 C  pz        
 
 Vector   22  Occ=0.000000D+00  E= 8.579524D-02
              MO Center=  1.3D+00,  2.1D-01, -5.2D-01, r^2= 7.1D+00
   Bfn.  Coefficient  Atom+Function         Bfn.  Coefficient  Atom+Function  
  ----- ------------  ---------------      ----- ------------  ---------------
    36      2.892447   2 C  s               145      2.013162   8 H  s         
    67     -1.364419   3 C  s               157     -1.336571  10 H  s         
   127     -1.296368   5 H  s               133      1.151419   6 H  s         
   107     -1.136088   4 C  pz               98     -1.039787   4 C  s         
   105     -1.015851   4 C  px               75      0.783470   3 C  py        
 
 Vector   23  Occ=0.000000D+00  E= 9.112065D-02
              MO Center=  1.2D+00, -6.9D-01, -5.9D-01, r^2= 6.5D+00
   Bfn.  Coefficient  Atom+Function         Bfn.  Coefficient  Atom+Function  
  ----- ------------  ---------------      ----- ------------  ---------------
    36      2.458659   2 C  s               151      2.125041   9 H  s         
   145     -1.570702   8 H  s                98     -1.301062   4 C  s         
   106      1.174229   4 C  py              105      1.090487   4 C  px        
   133      0.902021   6 H  s                67     -0.860912   3 C  s         
   127     -0.795426   5 H  s               107     -0.684859   4 C  pz        
 
 Vector   24  Occ=0.000000D+00  E= 1.025878D-01
              MO Center=  4.1D-01,  4.8D-01, -1.1D+00, r^2= 6.8D+00
   Bfn.  Coefficient  Atom+Function         Bfn.  Coefficient  Atom+Function  
  ----- ------------  ---------------      ----- ------------  ---------------
   157      2.023053  10 H  s               133      1.639701   6 H  s         
   139     -1.515928   7 H  s                98     -1.506175   4 C  s         
   106     -1.443022   4 C  py               36      1.392969   2 C  s         
   151     -1.353086   9 H  s                76     -1.179164   3 C  pz        
   105      1.003042   4 C  px               45     -0.522830   2 C  pz        
 
 Vector   25  Occ=0.000000D+00  E= 1.386588D-01
              MO Center=  8.1D-01,  1.9D-01, -4.4D-01, r^2= 7.8D+00
   Bfn.  Coefficient  Atom+Function         Bfn.  Coefficient  Atom+Function  
  ----- ------------  ---------------      ----- ------------  ---------------
    36      4.692813   2 C  s                98     -3.510311   4 C  s         
    45     -3.360141   2 C  pz               67     -2.826502   3 C  s         
   127      2.715192   5 H  s                76      2.111956   3 C  pz        
   105      2.114289   4 C  px              133     -1.741591   6 H  s         
   139      1.646455   7 H  s               107     -1.537047   4 C  pz        
 
 Vector   26  Occ=0.000000D+00  E= 1.705352D-01
              MO Center=  4.5D-01,  5.3D-01, -1.5D-01, r^2= 7.3D+00
   Bfn.  Coefficient  Atom+Function         Bfn.  Coefficient  Atom+Function  
  ----- ------------  ---------------      ----- ------------  ---------------
    75      2.302683   3 C  py              107      1.656170   4 C  pz        
    67     -1.487489   3 C  s                36      1.431276   2 C  s         
   139     -1.208979   7 H  s               157      1.082368  10 H  s         
    74     -0.964369   3 C  px               44      0.735494   2 C  py        
    43     -0.605931   2 C  px              106     -0.576923   4 C  py        
 
 Vector   27  Occ=0.000000D+00  E= 1.970652D-01
              MO Center=  8.4D-01, -6.2D-02, -9.6D-01, r^2= 5.2D+00
   Bfn.  Coefficient  Atom+Function         Bfn.  Coefficient  Atom+Function  
  ----- ------------  ---------------      ----- ------------  ---------------
    67      2.995529   3 C  s                44     -2.583432   2 C  py        
   106      1.997677   4 C  py               36     -1.524657   2 C  s         
    43      1.005935   2 C  px               74      0.711088   3 C  px        
    45     -0.680719   2 C  pz              157     -0.665551  10 H  s         
   105      0.654058   4 C  px              150      0.643263   9 H  s         
 
 Vector   28  Occ=0.000000D+00  E= 2.020817D-01
              MO Center=  9.3D-01, -4.5D-01, -6.9D-01, r^2= 6.7D+00
   Bfn.  Coefficient  Atom+Function         Bfn.  Coefficient  Atom+Function  
  ----- ------------  ---------------      ----- ------------  ---------------
    36      2.614730   2 C  s                75      1.692205   3 C  py        
   105     -1.459274   4 C  px              133     -1.226115   6 H  s         
   107     -0.880308   4 C  pz               45      0.789781   2 C  pz        
   139     -0.769819   7 H  s               106      0.743143   4 C  py        
   156     -0.713387  10 H  s                76      0.657805   3 C  pz        
 
 Vector   29  Occ=0.000000D+00  E= 2.357446D-01
              MO Center= -2.8D-01,  3.9D-01, -6.9D-02, r^2= 5.4D+00
   Bfn.  Coefficient  Atom+Function         Bfn.  Coefficient  Atom+Function  
  ----- ------------  ---------------      ----- ------------  ---------------
    67      4.450754   3 C  s                36     -3.120194   2 C  s         
   139     -1.524291   7 H  s                66     -1.426008   3 C  s         
    98      1.332037   4 C  s               133     -1.220676   6 H  s         
   107      1.013566   4 C  pz               74     -0.767931   3 C  px        
   106      0.769297   4 C  py                5     -0.755612   1 O  s         
 
 Vector   30  Occ=0.000000D+00  E= 2.479711D-01
              MO Center=  5.3D-01,  2.6D-02, -7.7D-02, r^2= 5.9D+00
   Bfn.  Coefficient  Atom+Function         Bfn.  Coefficient  Atom+Function  
  ----- ------------  ---------------      ----- ------------  ---------------
    67      5.853044   3 C  s                43      4.224968   2 C  px        
    75     -2.973596   3 C  py               44     -2.577320   2 C  py        
   107     -2.081358   4 C  pz               36     -2.017170   2 C  s         
   157     -1.849841  10 H  s                45     -1.519331   2 C  pz        
    98     -1.405673   4 C  s               105     -1.219918   4 C  px        
 
 Vector   31  Occ=0.000000D+00  E= 2.681672D-01
              MO Center=  2.9D-01, -1.4D-01,  2.4D-01, r^2= 5.6D+00
   Bfn.  Coefficient  Atom+Function         Bfn.  Coefficient  Atom+Function  
  ----- ------------  ---------------      ----- ------------  ---------------
    36      4.262408   2 C  s                67      2.348294   3 C  s         
     5     -2.176954   1 O  s               105      1.507561   4 C  px        
    43     -1.429787   2 C  px               98     -1.230482   4 C  s         
    66     -1.164697   3 C  s               133     -0.916077   6 H  s         
   139     -0.896936   7 H  s               127     -0.841212   5 H  s         
 
 Vector   32  Occ=0.000000D+00  E= 2.762556D-01
              MO Center=  4.2D-01,  3.1D-01,  3.0D-01, r^2= 4.2D+00
   Bfn.  Coefficient  Atom+Function         Bfn.  Coefficient  Atom+Function  
  ----- ------------  ---------------      ----- ------------  ---------------
    36      2.471701   2 C  s                 5     -1.729641   1 O  s         
    67     -1.580883   3 C  s                43     -1.276641   2 C  px        
    74     -0.729901   3 C  px               98     -0.659024   4 C  s         
    45     -0.617553   2 C  pz              145      0.571528   8 H  s         
     4      0.493451   1 O  s               157     -0.386626  10 H  s         
 
 Vector   33  Occ=0.000000D+00  E= 3.008137D-01
              MO Center=  4.2D-01,  3.8D-01, -3.8D-01, r^2= 5.0D+00
   Bfn.  Coefficient  Atom+Function         Bfn.  Coefficient  Atom+Function  
  ----- ------------  ---------------      ----- ------------  ---------------
    43      1.825369   2 C  px              106      1.742328   4 C  py        
    98     -1.679055   4 C  s               151      1.687080   9 H  s         
    76      1.397460   3 C  pz               44     -1.155916   2 C  py        
    36     -1.141189   2 C  s                66      1.043885   3 C  s         
   139      0.996970   7 H  s               107     -0.973697   4 C  pz        
 
 Vector   34  Occ=0.000000D+00  E= 3.367649D-01
              MO Center=  8.9D-02,  4.3D-01, -3.8D-01, r^2= 5.7D+00
   Bfn.  Coefficient  Atom+Function         Bfn.  Coefficient  Atom+Function  
  ----- ------------  ---------------      ----- ------------  ---------------
    67      4.075541   3 C  s                76     -3.921343   3 C  pz        
   139     -3.105774   7 H  s               133      2.003639   6 H  s         
    36     -1.953039   2 C  s               107     -1.699590   4 C  pz        
   157     -1.693689  10 H  s                98      1.428593   4 C  s         
    43      1.241882   2 C  px               44     -0.919496   2 C  py        
 
 Vector   35  Occ=0.000000D+00  E= 3.604877D-01
              MO Center=  6.7D-01,  6.1D-02, -2.2D-01, r^2= 6.6D+00
   Bfn.  Coefficient  Atom+Function         Bfn.  Coefficient  Atom+Function  
  ----- ------------  ---------------      ----- ------------  ---------------
    98      6.990880   4 C  s                76      3.361004   3 C  pz        
   145     -3.035376   8 H  s                97     -2.861768   4 C  s         
   133     -2.352646   6 H  s                67     -1.934772   3 C  s         
    44      1.874821   2 C  py               36      1.746151   2 C  s         
   139      1.720814   7 H  s               151     -1.644343   9 H  s         
 
 Vector   36  Occ=0.000000D+00  E= 3.705182D-01
              MO Center=  5.5D-01,  2.4D-01, -1.9D-01, r^2= 6.6D+00
   Bfn.  Coefficient  Atom+Function         Bfn.  Coefficient  Atom+Function  
  ----- ------------  ---------------      ----- ------------  ---------------
    36     11.941348   2 C  s                98     -9.060964   4 C  s         
    67     -8.252126   3 C  s               127     -2.845178   5 H  s         
    97      2.687289   4 C  s               157      2.396632  10 H  s         
    44      2.031544   2 C  py              151      1.936157   9 H  s         
    35     -1.717962   2 C  s                75      1.579033   3 C  py        
 
 Vector   37  Occ=0.000000D+00  E= 3.836963D-01
              MO Center=  9.9D-01, -4.3D-01, -9.3D-02, r^2= 6.2D+00
   Bfn.  Coefficient  Atom+Function         Bfn.  Coefficient  Atom+Function  
  ----- ------------  ---------------      ----- ------------  ---------------
    36      6.643761   2 C  s               127     -4.335284   5 H  s         
    98      4.307775   4 C  s                45      2.960697   2 C  pz        
    67     -2.937533   3 C  s                35     -2.333663   2 C  s         
   151     -2.283688   9 H  s               145     -2.166827   8 H  s         
    76     -1.967161   3 C  pz              133      1.668231   6 H  s         
 
 Vector   38  Occ=0.000000D+00  E= 3.945613D-01
              MO Center=  1.6D-01,  6.9D-02, -2.3D-01, r^2= 6.4D+00
   Bfn.  Coefficient  Atom+Function         Bfn.  Coefficient  Atom+Function  
  ----- ------------  ---------------      ----- ------------  ---------------
    98     12.841404   4 C  s                45      5.506700   2 C  pz        
    67     -4.345507   3 C  s                36     -3.899232   2 C  s         
    76     -3.008490   3 C  pz              157     -2.824762  10 H  s         
   133      2.238315   6 H  s                44      1.945173   2 C  py        
   107      1.811197   4 C  pz               97     -1.743577   4 C  s         
 
 Vector   39  Occ=0.000000D+00  E= 4.011018D-01
              MO Center= -1.4D-01,  2.7D-01,  2.7D-01, r^2= 6.6D+00
   Bfn.  Coefficient  Atom+Function         Bfn.  Coefficient  Atom+Function  
  ----- ------------  ---------------      ----- ------------  ---------------
    67    -12.864958   3 C  s                36     11.886163   2 C  s         
    45     -4.548732   2 C  pz               44      4.154196   2 C  py        
    98     -3.811085   4 C  s               127      2.793844   5 H  s         
    66      2.733692   3 C  s                43     -2.714605   2 C  px        
   139      2.284854   7 H  s               105      2.237991   4 C  px        
 
 Vector   40  Occ=0.000000D+00  E= 4.154221D-01
              MO Center=  8.1D-01, -3.7D-01, -8.4D-01, r^2= 5.9D+00
   Bfn.  Coefficient  Atom+Function         Bfn.  Coefficient  Atom+Function  
  ----- ------------  ---------------      ----- ------------  ---------------
    98      6.966489   4 C  s                36     -3.351382   2 C  s         
    45      2.979323   2 C  pz              105     -2.553564   4 C  px        
   151     -2.424452   9 H  s               157     -1.989562  10 H  s         
   145      1.802639   8 H  s                97     -1.140437   4 C  s         
   127     -0.995122   5 H  s               144     -0.969033   8 H  s         
 
 Vector   41  Occ=0.000000D+00  E= 4.267760D-01
              MO Center=  4.7D-01,  2.1D-01, -1.4D-01, r^2= 6.8D+00
   Bfn.  Coefficient  Atom+Function         Bfn.  Coefficient  Atom+Function  
  ----- ------------  ---------------      ----- ------------  ---------------
    36      9.138268   2 C  s                67     -4.526310   3 C  s         
    98     -4.014516   4 C  s                44      2.551376   2 C  py        
    75      2.527536   3 C  py              151      2.376223   9 H  s         
    43     -1.720157   2 C  px               45     -1.466270   2 C  pz        
    74     -1.426689   3 C  px              132      1.328492   6 H  s         
 
 Vector   42  Occ=0.000000D+00  E= 4.463063D-01
              MO Center=  1.0D-01, -1.1D-01, -1.4D-01, r^2= 6.1D+00
   Bfn.  Coefficient  Atom+Function         Bfn.  Coefficient  Atom+Function  
  ----- ------------  ---------------      ----- ------------  ---------------
    36      9.427385   2 C  s                98     -8.915034   4 C  s         
    45     -5.519309   2 C  pz              127      2.891565   5 H  s         
    67     -2.803782   3 C  s                76      2.625508   3 C  pz        
    44      2.178946   2 C  py              157      2.119752  10 H  s         
   133     -2.083656   6 H  s               106     -2.009170   4 C  py        
 
 Vector   43  Occ=0.000000D+00  E= 4.579096D-01
              MO Center=  5.3D-02,  8.8D-01, -5.4D-01, r^2= 5.0D+00
   Bfn.  Coefficient  Atom+Function         Bfn.  Coefficient  Atom+Function  
  ----- ------------  ---------------      ----- ------------  ---------------
   139      3.222838   7 H  s               157     -2.436080  10 H  s         
    75     -2.210360   3 C  py              107     -2.130157   4 C  pz        
    43      1.629027   2 C  px               44     -1.633365   2 C  py        
   138     -1.508088   7 H  s                45     -1.395707   2 C  pz        
    76      1.042523   3 C  pz               74      0.833348   3 C  px        
 
 Vector   44  Occ=0.000000D+00  E= 4.685064D-01
              MO Center=  5.2D-01,  1.1D-01, -9.0D-02, r^2= 5.7D+00
   Bfn.  Coefficient  Atom+Function         Bfn.  Coefficient  Atom+Function  
  ----- ------------  ---------------      ----- ------------  ---------------
    98     -5.375865   4 C  s                36      5.191966   2 C  s         
    45     -2.352319   2 C  pz              107     -1.790666   4 C  pz        
   145      1.758116   8 H  s                67     -1.616493   3 C  s         
   133      1.445812   6 H  s                35     -1.345149   2 C  s         
   157     -1.112709  10 H  s               132     -1.068144   6 H  s         
 
 Vector   45  Occ=0.000000D+00  E= 5.081659D-01
              MO Center=  9.0D-01, -3.9D-01, -9.3D-01, r^2= 4.8D+00
   Bfn.  Coefficient  Atom+Function         Bfn.  Coefficient  Atom+Function  
  ----- ------------  ---------------      ----- ------------  ---------------
    98     11.535435   4 C  s                36     -7.619987   2 C  s         
    45      4.678173   2 C  pz              107      3.091836   4 C  pz        
   144     -1.333844   8 H  s               106      1.319283   4 C  py        
   127     -1.230300   5 H  s               156     -1.229849  10 H  s         
   150     -1.092375   9 H  s                14     -1.050196   1 O  pz        
 
 Vector   46  Occ=0.000000D+00  E= 5.374047D-01
              MO Center=  9.1D-02, -4.0D-01, -4.8D-01, r^2= 4.4D+00
   Bfn.  Coefficient  Atom+Function         Bfn.  Coefficient  Atom+Function  
  ----- ------------  ---------------      ----- ------------  ---------------
    98     -6.958565   4 C  s                36      6.619282   2 C  s         
    45     -3.481948   2 C  pz               76      3.175723   3 C  pz        
   133     -1.787695   6 H  s               105      1.486810   4 C  px        
   139      1.438719   7 H  s               107     -1.406518   4 C  pz        
    14     -1.172994   1 O  pz                5     -1.137645   1 O  s         
 
 Vector   47  Occ=0.000000D+00  E= 6.571415D-01
              MO Center= -4.0D-01,  3.5D-02, -1.9D-02, r^2= 4.3D+00
   Bfn.  Coefficient  Atom+Function         Bfn.  Coefficient  Atom+Function  
  ----- ------------  ---------------      ----- ------------  ---------------
    36     11.626406   2 C  s                67     -8.928731   3 C  s         
    98     -4.159619   4 C  s                43     -2.567932   2 C  px        
    75      2.431932   3 C  py               13      2.243307   1 O  py        
    76      2.056258   3 C  pz              105      1.594512   4 C  px        
   139      1.511713   7 H  s                44      1.455832   2 C  py        
 
 Vector   48  Occ=0.000000D+00  E= 6.745831D-01
              MO Center= -2.9D-01,  3.5D-01,  1.3D-01, r^2= 3.9D+00
   Bfn.  Coefficient  Atom+Function         Bfn.  Coefficient  Atom+Function  
  ----- ------------  ---------------      ----- ------------  ---------------
    36      7.886428   2 C  s                67     -7.715149   3 C  s         
     5      2.996628   1 O  s                75      2.526987   3 C  py        
    98     -2.103483   4 C  s                13      2.085521   1 O  py        
    45     -1.266367   2 C  pz               43     -1.222205   2 C  px        
     4     -1.117089   1 O  s                44      0.965875   2 C  py        
 
 Vector   49  Occ=0.000000D+00  E= 7.074165D-01
              MO Center=  1.7D-01, -3.1D-01, -2.7D-01, r^2= 4.5D+00
   Bfn.  Coefficient  Atom+Function         Bfn.  Coefficient  Atom+Function  
  ----- ------------  ---------------      ----- ------------  ---------------
    67      9.227537   3 C  s                36     -7.094199   2 C  s         
    43      3.628470   2 C  px               44     -3.433985   2 C  py        
    75     -2.677304   3 C  py               98     -2.547443   4 C  s         
     5      2.323251   1 O  s                12      1.686251   1 O  px        
   106      1.648347   4 C  py               13     -1.283305   1 O  py        
 
 Vector   50  Occ=0.000000D+00  E= 7.604878D-01
              MO Center=  6.4D-01, -2.1D-02, -3.4D-01, r^2= 4.0D+00
   Bfn.  Coefficient  Atom+Function         Bfn.  Coefficient  Atom+Function  
  ----- ------------  ---------------      ----- ------------  ---------------
    45      2.270432   2 C  pz              127     -1.647824   5 H  s         
   105     -1.639153   4 C  px               43      1.554677   2 C  px        
    36      1.414637   2 C  s                 5     -1.405812   1 O  s         
   126     -1.344132   5 H  s               144      1.262723   8 H  s         
    66      0.984998   3 C  s                76     -0.947438   3 C  pz        
 
 Vector   51  Occ=0.000000D+00  E= 7.953857D-01
              MO Center=  2.8D-01,  5.6D-02, -2.0D-01, r^2= 4.4D+00
   Bfn.  Coefficient  Atom+Function         Bfn.  Coefficient  Atom+Function  
  ----- ------------  ---------------      ----- ------------  ---------------
     5      4.052825   1 O  s                36     -2.679623   2 C  s         
    76     -2.479948   3 C  pz                4     -1.583454   1 O  s         
    45      1.538736   2 C  pz               12      1.343930   1 O  px        
   133      1.300132   6 H  s                43      1.241510   2 C  px        
    35     -1.030944   2 C  s                66     -1.034724   3 C  s         
 
 Vector   52  Occ=0.000000D+00  E= 8.328424D-01
              MO Center=  3.2D-01,  1.6D-01, -1.1D-02, r^2= 4.5D+00
   Bfn.  Coefficient  Atom+Function         Bfn.  Coefficient  Atom+Function  
  ----- ------------  ---------------      ----- ------------  ---------------
    36      6.515031   2 C  s                98     -4.072464   4 C  s         
     5     -3.974263   1 O  s                43     -2.596898   2 C  px        
   105      1.960406   4 C  px               35     -1.808455   2 C  s         
    45     -1.754835   2 C  pz               44      1.454045   2 C  py        
    66     -1.177646   3 C  s                97      1.094221   4 C  s         
 
 Vector   53  Occ=0.000000D+00  E= 8.548585D-01
              MO Center=  6.0D-01,  1.3D-01, -3.9D-01, r^2= 4.2D+00
   Bfn.  Coefficient  Atom+Function         Bfn.  Coefficient  Atom+Function  
  ----- ------------  ---------------      ----- ------------  ---------------
    36      4.842719   2 C  s                98     -4.695221   4 C  s         
    45     -4.535234   2 C  pz               76      2.049879   3 C  pz        
   127      1.783655   5 H  s                44      1.548511   2 C  py        
   106     -1.551794   4 C  py              105      1.400095   4 C  px        
   150     -1.232044   9 H  s                 5     -1.115097   1 O  s         
 
 Vector   54  Occ=0.000000D+00  E= 8.716225D-01
              MO Center=  1.8D-01, -3.8D-02, -1.2D-01, r^2= 4.2D+00
   Bfn.  Coefficient  Atom+Function         Bfn.  Coefficient  Atom+Function  
  ----- ------------  ---------------      ----- ------------  ---------------
     5      4.557489   1 O  s                36     -1.699510   2 C  s         
     4     -1.561115   1 O  s               138      1.419432   7 H  s         
    76      1.302002   3 C  pz               67     -1.223085   3 C  s         
    12      1.188387   1 O  px               66     -1.164647   3 C  s         
    98     -1.014655   4 C  s                97      0.870114   4 C  s         
 
 Vector   55  Occ=0.000000D+00  E= 9.197892D-01
              MO Center=  4.9D-01,  3.3D-01, -4.6D-01, r^2= 4.6D+00
   Bfn.  Coefficient  Atom+Function         Bfn.  Coefficient  Atom+Function  
  ----- ------------  ---------------      ----- ------------  ---------------
    35      4.838039   2 C  s                36     -1.584317   2 C  s         
   132     -1.346710   6 H  s                67      1.334383   3 C  s         
    72      1.249898   3 C  py               66     -1.186336   3 C  s         
    84      1.170180   3 C  d  0            156     -1.166075  10 H  s         
    41      1.125768   2 C  py              116     -1.073874   4 C  d  1      
 
 Vector   56  Occ=0.000000D+00  E= 9.612923D-01
              MO Center=  4.3D-01,  3.2D-01, -5.0D-01, r^2= 4.7D+00
   Bfn.  Coefficient  Atom+Function         Bfn.  Coefficient  Atom+Function  
  ----- ------------  ---------------      ----- ------------  ---------------
    35      4.160047   2 C  s               138     -2.404793   7 H  s         
    67      2.362113   3 C  s                76     -1.775450   3 C  pz        
    42     -1.757780   2 C  pz               83     -1.685454   3 C  d -1      
    98     -1.547399   4 C  s               115     -1.428957   4 C  d  0      
   132      1.408607   6 H  s               107     -1.319971   4 C  pz        
 
 Vector   57  Occ=0.000000D+00  E= 9.906415D-01
              MO Center=  3.2D-01,  5.1D-01, -1.3D-01, r^2= 4.1D+00
   Bfn.  Coefficient  Atom+Function         Bfn.  Coefficient  Atom+Function  
  ----- ------------  ---------------      ----- ------------  ---------------
    36      7.330351   2 C  s                98     -4.619962   4 C  s         
    67     -3.938515   3 C  s                45     -3.571724   2 C  pz        
    43     -2.426041   2 C  px               44      2.136708   2 C  py        
    35     -1.581022   2 C  s               127      1.525706   5 H  s         
    66     -1.495292   3 C  s                75      1.465080   3 C  py        
 
 Vector   58  Occ=0.000000D+00  E= 1.010756D+00
              MO Center=  4.1D-01,  4.8D-01, -9.0D-02, r^2= 4.3D+00
   Bfn.  Coefficient  Atom+Function         Bfn.  Coefficient  Atom+Function  
  ----- ------------  ---------------      ----- ------------  ---------------
    36      5.954742   2 C  s                67     -4.798719   3 C  s         
    45     -2.277453   2 C  pz               44      2.020548   2 C  py        
    98     -1.898301   4 C  s                43     -1.560936   2 C  px        
   156     -1.507797  10 H  s               144      1.429719   8 H  s         
    74     -1.330558   3 C  px               76      1.330989   3 C  pz        
 
 Vector   59  Occ=0.000000D+00  E= 1.041790D+00
              MO Center=  7.0D-01, -1.6D-01, -4.6D-01, r^2= 4.2D+00
   Bfn.  Coefficient  Atom+Function         Bfn.  Coefficient  Atom+Function  
  ----- ------------  ---------------      ----- ------------  ---------------
    36      2.896752   2 C  s                35      2.606092   2 C  s         
    66     -2.281609   3 C  s               150      1.951289   9 H  s         
     5     -1.900009   1 O  s               144     -1.903984   8 H  s         
   117      1.718520   4 C  d  2             67     -1.527328   3 C  s         
    41      1.502220   2 C  py               44      1.454455   2 C  py        
 
 Vector   60  Occ=0.000000D+00  E= 1.078378D+00
              MO Center=  6.8D-01,  5.8D-03, -7.3D-02, r^2= 4.1D+00
   Bfn.  Coefficient  Atom+Function         Bfn.  Coefficient  Atom+Function  
  ----- ------------  ---------------      ----- ------------  ---------------
    98      4.143272   4 C  s                45      3.808307   2 C  pz        
    66     -3.780194   3 C  s                97      3.765820   4 C  s         
    36     -3.510078   2 C  s               104      2.554305   4 C  pz        
    41      2.421335   2 C  py               42      2.382595   2 C  pz        
    53     -2.200937   2 C  d  0             72      2.201844   3 C  py        
 
 Vector   61  Occ=0.000000D+00  E= 1.104969D+00
              MO Center=  3.7D-01,  6.8D-02,  6.7D-02, r^2= 3.8D+00
   Bfn.  Coefficient  Atom+Function         Bfn.  Coefficient  Atom+Function  
  ----- ------------  ---------------      ----- ------------  ---------------
    36      7.541942   2 C  s                67     -5.183763   3 C  s         
    98     -3.045996   4 C  s                66      2.027078   3 C  s         
   126     -2.033430   5 H  s                45     -1.970828   2 C  pz        
   132      1.681276   6 H  s                72     -1.537975   3 C  py        
    53      1.442012   2 C  d  0             41     -1.423384   2 C  py        
 
 Vector   62  Occ=0.000000D+00  E= 1.145598D+00
              MO Center=  6.2D-01, -3.8D-03, -3.8D-02, r^2= 3.5D+00
   Bfn.  Coefficient  Atom+Function         Bfn.  Coefficient  Atom+Function  
  ----- ------------  ---------------      ----- ------------  ---------------
    67      4.961051   3 C  s                36     -3.753111   2 C  s         
    44     -2.334080   2 C  py               97     -1.820416   4 C  s         
   126      1.753499   5 H  s                54      1.570337   2 C  d  1      
    43      1.505399   2 C  px               55      1.477910   2 C  d  2      
    42     -1.448150   2 C  pz               75     -1.408398   3 C  py        
 
 Vector   63  Occ=0.000000D+00  E= 1.214122D+00
              MO Center=  5.6D-01,  2.0D-01, -1.5D-01, r^2= 3.8D+00
   Bfn.  Coefficient  Atom+Function         Bfn.  Coefficient  Atom+Function  
  ----- ------------  ---------------      ----- ------------  ---------------
    36      6.572705   2 C  s                66     -4.826089   3 C  s         
    97     -3.415508   4 C  s                67     -3.131102   3 C  s         
    35      3.038696   2 C  s                72      1.829724   3 C  py        
    51     -1.722537   2 C  d -2             52      1.694317   2 C  d -1      
   138      1.671085   7 H  s               104     -1.508600   4 C  pz        
 
 Vector   64  Occ=0.000000D+00  E= 1.347485D+00
              MO Center=  3.5D-01,  5.5D-01,  2.2D-01, r^2= 3.6D+00
   Bfn.  Coefficient  Atom+Function         Bfn.  Coefficient  Atom+Function  
  ----- ------------  ---------------      ----- ------------  ---------------
    66      4.752988   3 C  s                35      3.880837   2 C  s         
    67     -3.122225   3 C  s                36     -2.754896   2 C  s         
    65     -2.411952   3 C  s               132     -2.042608   6 H  s         
   133      1.442448   6 H  s                34     -1.433881   2 C  s         
    72      1.328827   3 C  py              139      1.065501   7 H  s         
 
 Vector   65  Occ=0.000000D+00  E= 1.414587D+00
              MO Center=  1.5D-01,  5.2D-01, -4.1D-02, r^2= 3.4D+00
   Bfn.  Coefficient  Atom+Function         Bfn.  Coefficient  Atom+Function  
  ----- ------------  ---------------      ----- ------------  ---------------
    36      4.272842   2 C  s                67     -3.777171   3 C  s         
    35     -3.680770   2 C  s                66      3.670349   3 C  s         
    73     -2.335787   3 C  pz              138     -2.241755   7 H  s         
   139      2.191927   7 H  s               126      1.767582   5 H  s         
    76      1.690619   3 C  pz               34      1.520001   2 C  s         
 
 Vector   66  Occ=0.000000D+00  E= 1.432354D+00
              MO Center=  1.0D+00, -4.2D-01, -1.0D+00, r^2= 3.6D+00
   Bfn.  Coefficient  Atom+Function         Bfn.  Coefficient  Atom+Function  
  ----- ------------  ---------------      ----- ------------  ---------------
    98      9.578242   4 C  s                97     -7.295938   4 C  s         
    96      2.945912   4 C  s                36     -2.497399   2 C  s         
   145     -2.373115   8 H  s               151     -2.168409   9 H  s         
   157     -1.987169  10 H  s               144      1.762487   8 H  s         
   150      1.516335   9 H  s               104      1.433247   4 C  pz        
 
 Vector   67  Occ=0.000000D+00  E= 1.442501D+00
              MO Center=  3.8D-01,  2.4D-02, -2.2D-01, r^2= 4.3D+00
   Bfn.  Coefficient  Atom+Function         Bfn.  Coefficient  Atom+Function  
  ----- ------------  ---------------      ----- ------------  ---------------
    66      4.457977   3 C  s                98      3.208254   4 C  s         
    67     -3.077278   3 C  s                35     -2.889490   2 C  s         
    36      1.954592   2 C  s               133      1.882703   6 H  s         
    45      1.681464   2 C  pz               65     -1.614240   3 C  s         
    76     -1.621924   3 C  pz               97     -1.571704   4 C  s         
 
 Vector   68  Occ=0.000000D+00  E= 1.446280D+00
              MO Center=  3.2D-01, -4.7D-02, -1.0D-01, r^2= 3.2D+00
   Bfn.  Coefficient  Atom+Function         Bfn.  Coefficient  Atom+Function  
  ----- ------------  ---------------      ----- ------------  ---------------
    98      5.911031   4 C  s                97     -3.328030   4 C  s         
    36     -2.680802   2 C  s                45      2.193186   2 C  pz        
     5      1.955275   1 O  s                35     -1.666781   2 C  s         
    96      1.398087   4 C  s               127     -1.398674   5 H  s         
    76     -1.078681   3 C  pz              151     -1.023115   9 H  s         
 
 Vector   69  Occ=0.000000D+00  E= 1.473843D+00
              MO Center=  9.2D-01, -2.8D-01, -9.8D-01, r^2= 3.5D+00
   Bfn.  Coefficient  Atom+Function         Bfn.  Coefficient  Atom+Function  
  ----- ------------  ---------------      ----- ------------  ---------------
    66      2.375629   3 C  s                67     -1.304551   3 C  s         
     5     -1.147545   1 O  s                65     -1.004928   3 C  s         
   133      0.997867   6 H  s                71     -0.916116   3 C  px        
    97      0.898476   4 C  s               132     -0.873448   6 H  s         
    36      0.860722   2 C  s                98     -0.780690   4 C  s         
 
 Vector   70  Occ=0.000000D+00  E= 1.477919D+00
              MO Center=  1.0D+00, -3.8D-01, -1.0D+00, r^2= 3.2D+00
   Bfn.  Coefficient  Atom+Function         Bfn.  Coefficient  Atom+Function  
  ----- ------------  ---------------      ----- ------------  ---------------
    36      3.099350   2 C  s               156     -2.797860  10 H  s         
   157      2.143691  10 H  s               102     -1.973600   4 C  px        
   103      1.842326   4 C  py              126      1.797647   5 H  s         
   104     -1.786813   4 C  pz               35     -1.551405   2 C  s         
   127     -1.448469   5 H  s                66     -1.264929   3 C  s         
 
 Vector   71  Occ=0.000000D+00  E= 1.510257D+00
              MO Center=  3.2D-01,  1.7D-01, -3.2D-01, r^2= 4.0D+00
   Bfn.  Coefficient  Atom+Function         Bfn.  Coefficient  Atom+Function  
  ----- ------------  ---------------      ----- ------------  ---------------
    98      2.856574   4 C  s               144      1.847199   8 H  s         
   102     -1.552110   4 C  px              145     -1.421986   8 H  s         
    97     -1.356045   4 C  s               103     -1.303792   4 C  py        
    45      1.268872   2 C  pz               36     -1.167141   2 C  s         
   150     -0.885853   9 H  s                66      0.773040   3 C  s         
 
 Vector   72  Occ=0.000000D+00  E= 1.541343D+00
              MO Center=  3.8D-01,  4.4D-01, -2.3D-01, r^2= 4.7D+00
   Bfn.  Coefficient  Atom+Function         Bfn.  Coefficient  Atom+Function  
  ----- ------------  ---------------      ----- ------------  ---------------
    36      4.238542   2 C  s                35     -3.615588   2 C  s         
    98     -3.445424   4 C  s                97      3.063370   4 C  s         
    67     -2.437620   3 C  s                73      2.168042   3 C  pz        
   132     -1.751704   6 H  s               133      1.468716   6 H  s         
   102     -1.433786   4 C  px              138      1.376060   7 H  s         
 
 Vector   73  Occ=0.000000D+00  E= 1.579042D+00
              MO Center=  4.7D-01,  8.7D-03, -5.1D-02, r^2= 3.2D+00
   Bfn.  Coefficient  Atom+Function         Bfn.  Coefficient  Atom+Function  
  ----- ------------  ---------------      ----- ------------  ---------------
    35      3.038326   2 C  s                36     -2.294841   2 C  s         
    97     -2.122091   4 C  s                40     -1.845009   2 C  px        
   126      1.800565   5 H  s                42     -1.644243   2 C  pz        
    67      1.493194   3 C  s                34     -1.348165   2 C  s         
   127     -1.304816   5 H  s                72      1.279027   3 C  py        
 
 Vector   74  Occ=0.000000D+00  E= 1.598956D+00
              MO Center=  3.8D-01,  3.3D-01, -1.8D-01, r^2= 3.4D+00
   Bfn.  Coefficient  Atom+Function         Bfn.  Coefficient  Atom+Function  
  ----- ------------  ---------------      ----- ------------  ---------------
    36     -5.490631   2 C  s                66     -5.275577   3 C  s         
    35      5.213565   2 C  s                67      4.100480   3 C  s         
    41      3.667383   2 C  py               71     -2.450445   3 C  px        
    72      2.442775   3 C  py               40     -2.145618   2 C  px        
    98      1.830780   4 C  s                82      1.606120   3 C  d -2      
 
 Vector   75  Occ=0.000000D+00  E= 1.642214D+00
              MO Center=  4.8D-01,  1.7D-01, -4.7D-02, r^2= 3.7D+00
   Bfn.  Coefficient  Atom+Function         Bfn.  Coefficient  Atom+Function  
  ----- ------------  ---------------      ----- ------------  ---------------
    66      2.523468   3 C  s                35      2.261354   2 C  s         
    98      1.976378   4 C  s                97     -1.693200   4 C  s         
     5     -1.591401   1 O  s                67     -1.325436   3 C  s         
   104     -1.156793   4 C  pz              144      1.129647   8 H  s         
   103     -1.056024   4 C  py              150     -1.055455   9 H  s         
 
 Vector   76  Occ=0.000000D+00  E= 1.693819D+00
              MO Center=  5.5D-01,  1.5D-01, -4.1D-01, r^2= 3.7D+00
   Bfn.  Coefficient  Atom+Function         Bfn.  Coefficient  Atom+Function  
  ----- ------------  ---------------      ----- ------------  ---------------
    97     -5.586312   4 C  s                35      5.224108   2 C  s         
   104     -2.891694   4 C  pz               42     -2.851776   2 C  pz        
   102      1.865731   4 C  px               40      1.625747   2 C  px        
    34     -1.524253   2 C  s                66     -1.515613   3 C  s         
    96      1.516029   4 C  s                72     -1.278140   3 C  py        
 
 Vector   77  Occ=0.000000D+00  E= 1.703030D+00
              MO Center= -5.0D-02,  2.7D-01, -8.0D-02, r^2= 3.7D+00
   Bfn.  Coefficient  Atom+Function         Bfn.  Coefficient  Atom+Function  
  ----- ------------  ---------------      ----- ------------  ---------------
     5      3.946835   1 O  s                72      3.163141   3 C  py        
    36     -2.468143   2 C  s                66     -1.969622   3 C  s         
   138     -1.840125   7 H  s                97      1.825288   4 C  s         
    12      1.523411   1 O  px               42      1.425486   2 C  pz        
    41      1.386613   2 C  py               43      1.273671   2 C  px        
 
 Vector   78  Occ=0.000000D+00  E= 1.788714D+00
              MO Center=  4.2D-01,  2.5D-01,  3.2D-03, r^2= 3.5D+00
   Bfn.  Coefficient  Atom+Function         Bfn.  Coefficient  Atom+Function  
  ----- ------------  ---------------      ----- ------------  ---------------
    35      3.074043   2 C  s                97     -2.827528   4 C  s         
    36      1.683442   2 C  s                45     -1.290398   2 C  pz        
   104     -1.183511   4 C  pz               42     -1.091729   2 C  pz        
    67     -1.087175   3 C  s               102      1.019029   4 C  px        
    72      0.988338   3 C  py               96      0.905348   4 C  s         
 
 Vector   79  Occ=0.000000D+00  E= 1.816112D+00
              MO Center= -6.3D-01,  1.6D-01,  1.9D-01, r^2= 2.6D+00
   Bfn.  Coefficient  Atom+Function         Bfn.  Coefficient  Atom+Function  
  ----- ------------  ---------------      ----- ------------  ---------------
    35      3.832525   2 C  s                 5     -3.274907   1 O  s         
    40     -2.376245   2 C  px               41      2.028102   2 C  py        
    72      1.881703   3 C  py               66     -1.610730   3 C  s         
    71     -1.556284   3 C  px               12     -1.375153   1 O  px        
   132     -1.052156   6 H  s               138     -1.035727   7 H  s         
 
 Vector   80  Occ=0.000000D+00  E= 1.839096D+00
              MO Center=  1.7D-02,  3.2D-01, -3.1D-02, r^2= 3.6D+00
   Bfn.  Coefficient  Atom+Function         Bfn.  Coefficient  Atom+Function  
  ----- ------------  ---------------      ----- ------------  ---------------
    35      1.524857   2 C  s                36     -1.185000   2 C  s         
   156     -0.931535  10 H  s                66      0.823987   3 C  s         
     5     -0.776835   1 O  s               104     -0.735088   4 C  pz        
    41     -0.728860   2 C  py               71     -0.697793   3 C  px        
    67      0.677554   3 C  s               157      0.633397  10 H  s         
 
 Vector   81  Occ=0.000000D+00  E= 1.867376D+00
              MO Center=  5.5D-01,  1.7D-01, -4.4D-01, r^2= 4.0D+00
   Bfn.  Coefficient  Atom+Function         Bfn.  Coefficient  Atom+Function  
  ----- ------------  ---------------      ----- ------------  ---------------
    35      6.558346   2 C  s                66     -4.167117   3 C  s         
    72      3.413981   3 C  py               97     -3.313027   4 C  s         
    36      2.012554   2 C  s               104     -1.907354   4 C  pz        
    34     -1.637520   2 C  s                67     -1.484758   3 C  s         
    41      1.426636   2 C  py               45     -1.350307   2 C  pz        
 
 Vector   82  Occ=0.000000D+00  E= 1.918947D+00
              MO Center=  3.2D-01, -1.5D-01, -3.1D-01, r^2= 3.2D+00
   Bfn.  Coefficient  Atom+Function         Bfn.  Coefficient  Atom+Function  
  ----- ------------  ---------------      ----- ------------  ---------------
    36      1.492130   2 C  s                98     -1.429244   4 C  s         
    97     -1.280304   4 C  s                45     -1.263741   2 C  pz        
   103     -1.237730   4 C  py               35      1.112520   2 C  s         
    42     -0.832169   2 C  pz               66     -0.830743   3 C  s         
   150     -0.752841   9 H  s               104     -0.704264   4 C  pz        
 
 Vector   83  Occ=0.000000D+00  E= 1.990727D+00
              MO Center=  7.5D-01, -1.7D-01, -2.4D-01, r^2= 3.3D+00
   Bfn.  Coefficient  Atom+Function         Bfn.  Coefficient  Atom+Function  
  ----- ------------  ---------------      ----- ------------  ---------------
    98      2.917767   4 C  s                35      2.875031   2 C  s         
    66     -2.509506   3 C  s                40     -2.287976   2 C  px        
    72      1.824186   3 C  py               41      1.657347   2 C  py        
    43     -1.614403   2 C  px               67     -1.558844   3 C  s         
    71     -1.376489   3 C  px              126      1.259028   5 H  s         
 
 Vector   84  Occ=0.000000D+00  E= 1.993607D+00
              MO Center=  7.3D-01, -1.6D-01, -8.8D-01, r^2= 3.4D+00
   Bfn.  Coefficient  Atom+Function         Bfn.  Coefficient  Atom+Function  
  ----- ------------  ---------------      ----- ------------  ---------------
    36      4.651853   2 C  s                98     -4.385184   4 C  s         
    35     -2.393732   2 C  s                45     -2.062918   2 C  pz        
    67     -1.410008   3 C  s               156      1.214981  10 H  s         
   107     -1.170058   4 C  pz              104      1.033935   4 C  pz        
    34      0.923842   2 C  s                66      0.808912   3 C  s         
 
 Vector   85  Occ=0.000000D+00  E= 2.087277D+00
              MO Center= -9.5D-02,  2.0D-01,  1.6D-02, r^2= 3.5D+00
   Bfn.  Coefficient  Atom+Function         Bfn.  Coefficient  Atom+Function  
  ----- ------------  ---------------      ----- ------------  ---------------
    36      2.840488   2 C  s                98     -2.166378   4 C  s         
    67     -1.055271   3 C  s                35     -0.878057   2 C  s         
   138     -0.745673   7 H  s               156      0.690083  10 H  s         
    14     -0.593273   1 O  pz              144      0.556971   8 H  s         
    13      0.533922   1 O  py               40     -0.505215   2 C  px        
 
 Vector   86  Occ=0.000000D+00  E= 2.096295D+00
              MO Center= -3.5D-01,  6.2D-02,  4.4D-02, r^2= 3.0D+00
   Bfn.  Coefficient  Atom+Function         Bfn.  Coefficient  Atom+Function  
  ----- ------------  ---------------      ----- ------------  ---------------
    67     -5.405630   3 C  s                36      5.370516   2 C  s         
    66      3.152916   3 C  s                35     -3.112774   2 C  s         
    41     -2.990939   2 C  py               71      2.653310   3 C  px        
    13      1.805224   1 O  py               82     -1.417400   3 C  d -2      
    43     -1.310713   2 C  px               75      1.304350   3 C  py        
 
 Vector   87  Occ=0.000000D+00  E= 2.165911D+00
              MO Center=  5.1D-01, -1.6D-03, -4.9D-01, r^2= 3.2D+00
   Bfn.  Coefficient  Atom+Function         Bfn.  Coefficient  Atom+Function  
  ----- ------------  ---------------      ----- ------------  ---------------
    98      2.217937   4 C  s                67     -1.792823   3 C  s         
    35     -1.233785   2 C  s                73      1.008340   3 C  pz        
   156     -0.906595  10 H  s                40      0.883767   2 C  px        
    42     -0.827260   2 C  pz               44      0.820056   2 C  py        
    43     -0.811498   2 C  px               36      0.772693   2 C  s         
 
 Vector   88  Occ=0.000000D+00  E= 2.198188D+00
              MO Center=  4.1D-01,  1.7D-01, -2.8D-01, r^2= 3.6D+00
   Bfn.  Coefficient  Atom+Function         Bfn.  Coefficient  Atom+Function  
  ----- ------------  ---------------      ----- ------------  ---------------
    98      2.140616   4 C  s                36     -1.333442   2 C  s         
    45      1.008895   2 C  pz               76     -0.916302   3 C  pz        
   132      0.779718   6 H  s                42     -0.727936   2 C  pz        
    97     -0.708732   4 C  s               117     -0.692146   4 C  d  2      
   103     -0.683493   4 C  py              138     -0.603080   7 H  s         
 
 Vector   89  Occ=0.000000D+00  E= 2.229884D+00
              MO Center=  6.6D-01,  1.4D-03, -1.1D-01, r^2= 3.6D+00
   Bfn.  Coefficient  Atom+Function         Bfn.  Coefficient  Atom+Function  
  ----- ------------  ---------------      ----- ------------  ---------------
    36      3.365968   2 C  s                67     -1.767772   3 C  s         
    98     -1.499527   4 C  s                 5     -1.143158   1 O  s         
    42     -1.058614   2 C  pz               72     -0.885388   3 C  py        
    45     -0.813995   2 C  pz               35     -0.787187   2 C  s         
    66      0.764166   3 C  s                43     -0.753848   2 C  px        
 
 Vector   90  Occ=0.000000D+00  E= 2.241402D+00
              MO Center=  7.5D-01, -2.7D-01, -7.8D-01, r^2= 3.6D+00
   Bfn.  Coefficient  Atom+Function         Bfn.  Coefficient  Atom+Function  
  ----- ------------  ---------------      ----- ------------  ---------------
   150      1.254504   9 H  s               144     -0.882415   8 H  s         
    36      0.826744   2 C  s                66     -0.778050   3 C  s         
   117      0.731602   4 C  d  2             72      0.711579   3 C  py        
    98     -0.686406   4 C  s                83      0.570520   3 C  d -1      
    67     -0.550818   3 C  s               149     -0.525605   9 H  s         
 
 Vector   91  Occ=0.000000D+00  E= 2.267911D+00
              MO Center=  9.4D-01, -2.5D-01, -1.1D+00, r^2= 3.0D+00
   Bfn.  Coefficient  Atom+Function         Bfn.  Coefficient  Atom+Function  
  ----- ------------  ---------------      ----- ------------  ---------------
    66      2.123130   3 C  s                36      1.887919   2 C  s         
    41     -1.430110   2 C  py               67     -1.284467   3 C  s         
    98     -1.242541   4 C  s                35     -1.070725   2 C  s         
   156      0.962231  10 H  s                72     -0.922489   3 C  py        
    71      0.842421   3 C  px              126     -0.840213   5 H  s         
 
 Vector   92  Occ=0.000000D+00  E= 2.283738D+00
              MO Center=  5.5D-01,  7.7D-02, -2.2D-01, r^2= 3.6D+00
   Bfn.  Coefficient  Atom+Function         Bfn.  Coefficient  Atom+Function  
  ----- ------------  ---------------      ----- ------------  ---------------
    98      3.634459   4 C  s                36     -2.405203   2 C  s         
[...]
    21     -0.867552   1 O  d -1             42     -0.803429   2 C  pz        
    97     -0.748374   4 C  s                45     -0.686733   2 C  pz        
     5     -0.526521   1 O  s                67     -0.522887   3 C  s         
   102      0.507451   4 C  px               98     -0.499445   4 C  s         
 
 Vector  154  Occ=0.000000D+00  E= 6.672192D+00
              MO Center= -8.7D-01, -1.8D-01,  2.0D-01, r^2= 5.7D-01
   Bfn.  Coefficient  Atom+Function         Bfn.  Coefficient  Atom+Function  
  ----- ------------  ---------------      ----- ------------  ---------------
    18      1.061968   1 O  d  1             23     -1.030215   1 O  d  1      
    97     -0.870895   4 C  s                42     -0.775873   2 C  pz        
    35      0.763212   2 C  s               102      0.650691   4 C  px        
    54     -0.544017   2 C  d  1             14      0.403311   1 O  pz        
    16     -0.394546   1 O  d -1             11      0.380542   1 O  pz        
 
 Vector  155  Occ=0.000000D+00  E= 6.840322D+00
              MO Center= -8.8D-01, -1.9D-01,  2.0D-01, r^2= 5.9D-01
   Bfn.  Coefficient  Atom+Function         Bfn.  Coefficient  Atom+Function  
  ----- ------------  ---------------      ----- ------------  ---------------
     5      2.113438   1 O  s                40      1.756171   2 C  px        
     9      1.353676   1 O  px               97     -1.272978   4 C  s         
     4      1.189423   1 O  s                20      1.043547   1 O  d -2      
    42     -0.973662   2 C  pz               12      0.848205   1 O  px        
    35     -0.848125   2 C  s                15     -0.833282   1 O  d -2      
 
 Vector  156  Occ=0.000000D+00  E= 7.056364D+00
              MO Center= -8.9D-01, -1.9D-01,  2.0D-01, r^2= 6.4D-01
   Bfn.  Coefficient  Atom+Function         Bfn.  Coefficient  Atom+Function  
  ----- ------------  ---------------      ----- ------------  ---------------
    66     -3.198909   3 C  s                35      3.046692   2 C  s         
    40     -2.749784   2 C  px               72      2.721813   3 C  py        
    24     -1.581870   1 O  d  2             36      1.428993   2 C  s         
    10      1.287273   1 O  py               67     -1.265508   3 C  s         
    19      1.017248   1 O  d  2             41      0.879368   2 C  py        
 
 Vector  157  Occ=0.000000D+00  E= 2.193112D+01
              MO Center=  1.4D-02,  8.6D-01,  1.2D-01, r^2= 1.0D+00
   Bfn.  Coefficient  Atom+Function         Bfn.  Coefficient  Atom+Function  
  ----- ------------  ---------------      ----- ------------  ---------------
    64      1.627580   3 C  s                65     -1.397092   3 C  s         
    67     -1.317190   3 C  s                63     -1.283411   3 C  s         
    98      0.955381   4 C  s                95     -0.669520   4 C  s         
    96      0.540217   4 C  s                94      0.529897   4 C  s         
    40     -0.435169   2 C  px               53     -0.348409   2 C  d  0      
 
 Vector  158  Occ=0.000000D+00  E= 2.197876D+01
              MO Center=  9.0D-01, -2.8D-01, -7.1D-01, r^2= 1.1D+00
   Bfn.  Coefficient  Atom+Function         Bfn.  Coefficient  Atom+Function  
  ----- ------------  ---------------      ----- ------------  ---------------
    95      1.417508   4 C  s                96     -1.309981   4 C  s         
    98     -1.121525   4 C  s                94     -1.115262   4 C  s         
    34     -1.013588   2 C  s                36     -0.992569   2 C  s         
    33      0.931051   2 C  s                32     -0.727986   2 C  s         
    67      0.650899   3 C  s                65     -0.578198   3 C  s         
 
 Vector  159  Occ=0.000000D+00  E= 2.209217D+01
              MO Center=  6.6D-01, -1.6D-01, -1.5D-01, r^2= 7.2D-01
   Bfn.  Coefficient  Atom+Function         Bfn.  Coefficient  Atom+Function  
  ----- ------------  ---------------      ----- ------------  ---------------
    36      2.142351   2 C  s                33     -1.513035   2 C  s         
    34      1.515572   2 C  s                35     -1.422018   2 C  s         
    98     -1.404366   4 C  s                32      1.185353   2 C  s         
    67     -1.042942   3 C  s                95      0.819300   4 C  s         
    96     -0.731712   4 C  s                97      0.677130   4 C  s         
 
 Vector  160  Occ=0.000000D+00  E= 4.341074D+01
              MO Center= -8.8D-01, -1.8D-01,  2.0D-01, r^2= 1.2D-01
   Bfn.  Coefficient  Atom+Function         Bfn.  Coefficient  Atom+Function  
  ----- ------------  ---------------      ----- ------------  ---------------
     4      2.495670   1 O  s                 3     -1.871719   1 O  s         
     2      1.731343   1 O  s                 1     -1.395811   1 O  s         
     5     -0.883484   1 O  s                36      0.835108   2 C  s         
     9      0.556105   1 O  px               66     -0.501276   3 C  s         
    40      0.459353   2 C  px               72      0.450380   3 C  py        
 

 center of mass
 --------------
 x =   0.30619385 y =   0.09486500 z =  -0.27792414

 moments of inertia (a.u.)
 ------------------
         200.327632180853          45.844308739011          83.673734878452
          45.844308739011         248.213464966736         -52.660640794941
          83.673734878452         -52.660640794941         239.892842311506
 
     Multipole analysis of the density
     ---------------------------------
 
     L   x y z        total         alpha         beta         nuclear
     -   - - -        -----         -----         ----         -------
     0   0 0 0     -0.000000    -16.000000    -16.000000     32.000000
 
     1   1 0 0      0.694622     -6.233776     -6.233776     13.162174
     1   0 1 0      0.326659     -1.621302     -1.621302      3.569263
     1   0 0 1     -0.056946      5.324770      5.324770    -10.706486
 
     2   2 0 0    -20.013377    -54.490293    -54.490293     88.967209
     2   1 1 0     -1.119251     13.949338     13.949338    -29.017926
     2   1 0 1      0.169910     26.449659     26.449659    -52.729407
     2   0 2 0    -17.825187    -40.643979    -40.643979     63.462770
     2   0 1 1      0.250226    -15.415855    -15.415855     31.081935
     2   0 0 2    -18.231404    -45.677760    -45.677760     73.124115
 
 *** CALLING NEW AORESP DRIVER FOR CLOSED AND OPEN SHELLS ***
 Entering AOResponse driver routine


--------------------------------------------------------------------------------

          ****************
          *** RESPONSE ***
          ****************

 Response module for NWChem and dynamic CPKS solver
 developed by J. Autschbach and coworkers, SUNY Buffalo
 The methodology used in this program is described in 
 ChemPhysChem 12 (2011), 3224-3235 (main reference)
 J. Chem. Phys. 123 (2005), 114103
 J. Chem. Phys. 122 (2005), 224115
 J. Chem. Phys. 122 (2005), 074105
 Comp. Lett. 3 (2007), 131-150 (contact JA for a copy)
 Please cite this work in publications based on results
 obtained with this code. Thank you!

 For extension of response module to open shell
 calculations please acknowledge:
 F. Aquino, Northwestern University, Schatz Rsrch Group
 The update to the methodology is described in
 J. Phys. Chem. A 118 (2014) 517-525



          -----------------------------------------------
          Solving response equations for perturbing field
          -----------------------------------------------

 number of frequencies:     1
 frequency in a.u.:  0.9319600E-01
 Perturbing field: electric
 Using GIAO formalism for OptRot
 Adding quadrupole terms to OptRot
 to create an origin in dependent tensor.
 Using El. Dipole Length Gauge
 
 Applying DAMPING constant of  0.003700 a.u.
 
 Setting up CPKS
 with frequency omega =      0.09319600 a.u.
 and a damping of            0.00370000 a.u.

 
                            NWChem Dynamic CPHF Module
                            --------------------------
 
 
    scftype = RHF 
    nclosed =   16
      nopen =    0
  variables =     9216
  num. vecs =        3
  tolerance =   1.0D-07
  max. iter =  100

 SCF residual:   2.004632527812355E-006


Iterative solution of linear equations
  No. of variables     4608
  No. of equations        3
  Maximum subspace       99
       Convergence  1.0D-07
        Start time     86.2


   iter   nsub   residual    time 
   ----  ------  --------  --------- 
 dft_CPHF2_read: failed to open
 ./methyloxirane_blyp-def2-tzvp_488.9_13.inp.aoresp_fiao_f1
     1      3    3.70D+00     130.2
     2      6    2.70D+00     174.7
     3      9    2.49D-01     218.9
     4     12    5.94D-02     265.1
     5     15    1.05D-02     309.9
     6     18    1.27D-03     354.3
     7     21    1.46D-04     398.6
     8     24    1.41D-05     442.9
     9     27    1.27D-06     487.2
    10     30    5.11D-07     531.4
    11     33    1.54D-08     575.6

 Calculating some arrays needed for GIAO optical rotation

    0 giaofock schwarz done =      95.57%
    0 giaofock schwarz done =      93.10%
 aor_r1_tensor_giao: roadata output requested
 dip-quad polarizability Re:

              1        2        3        4        5        6      
    1   77.5721  -6.4034 -27.4679  -4.5044   1.1866   9.2146
    2  -12.1062  25.6782   3.4155  24.0308 -21.5120   4.0652
    3   -6.5122   1.1186  39.3715  -0.0522  14.1501 -41.0151
 traceless dip-quad polarizability:

              1        2        3      
    1   75.2170  -9.6051 -41.2019
    2   -9.6051 -47.8977   1.7799
    3  -41.2019   1.7799 -27.3193

              1        2        3      
    1  -26.1542  38.5172   5.1233
    2   38.5172  28.0513 -32.2681
    3    5.1233 -32.2681  -1.8971

              1        2        3      
    1   14.0215   1.6779  59.0573
    2    1.6779  23.7114  21.2251
    3   59.0573  21.2251 -37.7329

 roa begin

 alpha real:
 XX       0.4116409810010E+02
 XY      -0.5291234296974E+01
 XZ      -0.3017623017761E+01
 YX      -0.5291234309396E+01
 YY       0.4425750399186E+02
 YZ       0.3246300589044E+01
 ZX      -0.3017623028985E+01
 ZY       0.3246300580576E+01
 ZZ       0.4147636132690E+02

 alpha im:
 XX       0.1119883167455E+00
 XY      -0.3092378702734E-01
 XZ      -0.1138060895119E-01
 YX      -0.3092378162207E-01
 YY       0.1308052150401E+00
 YZ       0.1900027472554E-01
 ZX      -0.1138060459727E-01
 ZY       0.1900027539769E-01
 ZZ       0.1228125962291E+00

 beta real:
 XX      -0.1439299032170E+00
 XY       0.9333384440821E+00
 XZ       0.2073268392041E+00
 YX      -0.8804971692029E+00
 YY       0.1496853524377E+00
 YZ      -0.1548350492401E+01
 ZX      -0.4824407941405E+00
 ZY       0.1865824239968E+01
 ZZ      -0.9578423102944E-02

 G-prime = -omega beta(real):
 XX      -0.1439299032170E+00
 XY       0.9333384440821E+00
 XZ       0.2073268392041E+00
 YX      -0.8804971692029E+00
 YY       0.1496853524377E+00
 YZ      -0.1548350492401E+01
 ZX      -0.4824407941405E+00
 ZY       0.1865824239968E+01
 ZZ      -0.9578423102944E-02

 beta im:
 XX      -0.6172908609415E-02
 XY       0.1317933839397E-01
 XZ       0.2997588139764E-02
 YX      -0.7403590325599E-02
 YY       0.4994950931589E-02
 YZ      -0.2363701133612E-01
 ZX      -0.1352900350973E-01
 ZY       0.3993355489826E-01
 ZZ       0.3963139944248E-03

 G-prime = -omega beta(imag):
 XX      -0.6172908609415E-02
 XY       0.1317933839397E-01
 XZ       0.2997588139764E-02
 YX      -0.7403590325599E-02
 YY       0.4994950931589E-02
 YZ      -0.2363701133612E-01
 ZX      -0.1352900350973E-01
 ZY       0.3993355489826E-01
 ZZ       0.3963139944248E-03

 dipole-quadrupole real (Cartesian):
 XXX      0.7757211421397E+02
 XXY     -0.6403432890548E+01
 XXZ     -0.2746790435967E+02
 XYY     -0.4504395419549E+01
 XYZ      0.1186629107369E+01
 XZZ      0.9214570040903E+01
 YXX     -0.1210619617849E+02
 YXY      0.2567815772680E+02
 YXZ      0.3415505802121E+01
 YYY      0.2403076809799E+02
 YYZ     -0.2151203342328E+02
 YZZ      0.4065151421677E+01
 ZXX     -0.6512160937817E+01
 ZXY      0.1118591772415E+01
 ZXZ      0.3937152280530E+02
 ZYY     -0.5220988694175E-01
 ZYZ      0.1415007560546E+02
 ZZZ     -0.4101506905596E+02

 dipole-quadrupole imag (Cartesian):
 XXX      0.2717954750762E+00
 XXY     -0.3562614950552E-01
 XXZ     -0.7617733966279E-01
 XYY     -0.2982490995871E-01
 XYZ      0.1875914145444E-02
 XZZ      0.6116230126027E-01
 YXX     -0.5868740088695E-01
 YXY      0.6253202898786E-01
 YXZ      0.1971419220964E-01
 YYY      0.9554701532665E-01
 YYZ     -0.6075166215170E-01
 YZZ      0.8839434947752E-02
 ZXX     -0.3338861845122E-01
 ZXY      0.5815437553610E-04
 ZXZ      0.1456735384692E+00
 ZYY      0.5967551013817E-02
 ZYZ      0.6716319735521E-01
 ZZZ     -0.9564427698830E-01

 dipole-quadrupole (traceless):
 XXX      0.7521702690329E+02
 XXY     -0.9605149335822E+01
 XXZ     -0.4120185653950E+02
 XYY     -0.4789773754699E+02
 XYZ      0.1779943661054E+01
 XZZ     -0.2731928935631E+02
 YXX     -0.2615415593832E+02
 YXY      0.3851723659021E+02
 YXZ      0.5123258703181E+01
 YYY      0.2805129047639E+02
 YYZ     -0.3226805013492E+02
 YZZ     -0.1897134538074E+01
 ZXX      0.1402147853363E+02
 ZXY      0.1677887658623E+01
 ZXZ      0.5905728420795E+02
 ZYY      0.2371140510995E+02
 ZYZ      0.2122511340819E+02
 ZZZ     -0.3773288364358E+02

 roa end


 Electric Dipole Response Matrix (nonzero elements):

              1        2        3      
    1   41.1641  -5.2912  -3.0176
    2   -5.2912  44.2575   3.2463
    3   -3.0176   3.2463  41.4764
 
 Imaginary part:

              1        2        3      
    1    0.1120  -0.0309  -0.0114
    2   -0.0309   0.1308   0.0190
    3   -0.0114   0.0190   0.1228

 ------------------------------------------
 average:        42.29932 + I       0.12187


 DFT Linear Response polarizability / au 
 Frequency  =       0.0931960 / au
 Wavelength =     488.8981609 / nm
              X              Y              Z
 -----------------------------------------------
 X      41.1640981     -5.2912343     -3.0176230
 Y      -5.2912343     44.2575040      3.2463006
 Z      -3.0176230      3.2463006     41.4763613
 -----------------------------------------------
 Eigenvalues =      37.1144568     50.4035407     39.3799660
 Isotropic   =      42.2993211
 Anisotropic =      10.0540453
 -----------------------------------------------
 *************************

 DFT Linear Response IMAG polarizability / au 
 Frequency  =       0.0931960 / au
 Wavelength =     488.8981609 / nm
              X              Y              Z
 -----------------------------------------------
 X       0.1119883     -0.0309238     -0.0113806
 Y      -0.0309238      0.1308052      0.0190003
 Z      -0.0113806      0.0190003      0.1228126
 -----------------------------------------------
 Eigenvalues =       0.0888955      0.1651988      0.1115119
 Isotropic   =       0.1218687
 Anisotropic =       0.0554256
 -----------------------------------------------
 *************************

 Magnetic Dipole Response Matrix (nonzero elements):
 Optical rotation tensor Beta
 (Buckingham-Dunn version including dipole-quadrupole terms)

              1        2        3      
    1    2.6928  -0.4095   0.3805
    2   -0.4095  -1.6402  -1.7097
    3    0.3805  -1.7097  -1.0117
 
 Imaginary part:

              1        2        3      
    1    0.0662  -0.1414  -0.0322
    2    0.0794  -0.0536   0.2536
    3    0.1452  -0.4285  -0.0043

 ------------------------------------------
 average:         0.01367 + I       0.00280

 Principal components and PAS (Real part)
                 -3.06510
                  2.82130
                  0.28482
 ------------------------
 average:         0.01367

              1        2        3      
    1    0.0126   0.9745  -0.2242
    2    0.7696  -0.1526  -0.6200
    3    0.6384   0.1648   0.7518

 Chiral response tensor (Real part):

              1        2        3      
    1   -1.3259   0.2048  -0.1902
    2    0.2048   0.8406   0.8548
    3   -0.1902   0.8548   0.5263
 
 Principal components and PAS (Real part)
                  1.55306
                 -1.39014
                 -0.12190
 ------------------------
 average:         0.01367

              1        2        3      
    1    0.0126   0.9745  -0.2242
    2    0.7696  -0.1526  -0.6200
    3    0.6384   0.1648   0.7518
 Exiting AOResponse driver routine

 Task  times  cpu:      552.7s     wall:      569.3s
 
 
                                NWChem Input Module
                                -------------------
 
 
 Summary of allocated global arrays
-----------------------------------
  No active global arrays



                         GA Statistics for process    0
                         ------------------------------

       create   destroy   get      put      acc     scatter   gather  read&inc
calls: 3294     3294     7.98e+06 3.14e+06 7.67e+05 2694        0     1297     
number of processes/call 1.01e+00 1.03e+00 1.43e+00 0.00e+00 0.00e+00
bytes total:             1.82e+09 1.26e+08 1.84e+09 1.84e+02 0.00e+00 1.04e+04
bytes remote:            7.78e+08 3.29e+07 1.07e+09 0.00e+00 0.00e+00 0.00e+00
Max memory consumed for GA by this process: 11242192 bytes
 
MA_summarize_allocated_blocks: starting scan ...
MA_summarize_allocated_blocks: scan completed: 0 heap blocks, 0 stack blocks
MA usage statistics:

	allocation statistics:
					      heap	     stack
					      ----	     -----
	current number of blocks	         0	         0
	maximum number of blocks	        24	        52
	current total bytes		         0	         0
	maximum total bytes		   7519840	  48998328
	maximum total K-bytes		      7520	     48999
	maximum total M-bytes		         8	        49
 
 
                                     CITATION
                                     --------
                Please cite the following reference when publishing
                           results obtained with NWChem:
 
                 M. Valiev, E.J. Bylaska, N. Govind, K. Kowalski,
              T.P. Straatsma, H.J.J. van Dam, D. Wang, J. Nieplocha,
                        E. Apra, T.L. Windus, W.A. de Jong
                 "NWChem: a comprehensive and scalable open-source
                  solution for large scale molecular simulations"
                      Comput. Phys. Commun. 181, 1477 (2010)
                           doi:10.1016/j.cpc.2010.04.018
 
                                      AUTHORS
                                      -------
          E. Apra, E. J. Bylaska, W. A. de Jong, N. Govind, K. Kowalski,
       T. P. Straatsma, M. Valiev, H. J. J. van Dam, D. Wang, T. L. Windus,
        J. Hammond, J. Autschbach, K. Bhaskaran-Nair, J. Brabec, K. Lopata,
    S. A. Fischer, S. Krishnamoorthy, M. Jacquelin, W. Ma, M. Klemm, O. Villa,
      Y. Chen, V. Anisimov, F. Aquino, S. Hirata, M. T. Hackler, V. Konjkov,
            D. Mejia-Rodriguez, T. Risthaus, M. Malagoli, A. Marenich,
   A. Otero-de-la-Roza, J. Mullin, P. Nichols, R. Peverati, J. Pittner, Y. Zhao,
        P.-D. Fan, A. Fonari, M. J. Williamson, R. J. Harrison, J. R. Rehr,
      M. Dupuis, D. Silverstein, D. M. A. Smith, J. Nieplocha, V. Tipparaju,
    M. Krishnan, B. E. Van Kuiken, A. Vazquez-Mayagoitia, L. Jensen, M. Swart,
      Q. Wu, T. Van Voorhis, A. A. Auer, M. Nooijen, L. D. Crosby, E. Brown,
      G. Cisneros, G. I. Fann, H. Fruchtl, J. Garza, K. Hirao, R. A. Kendall,
      J. A. Nichols, K. Tsemekhman, K. Wolinski, J. Anchell, D. E. Bernholdt,
      P. Borowski, T. Clark, D. Clerc, H. Dachsel, M. J. O. Deegan, K. Dyall,
    D. Elwood, E. Glendening, M. Gutowski, A. C. Hess, J. Jaffe, B. G. Johnson,
     J. Ju, R. Kobayashi, R. Kutteh, Z. Lin, R. Littlefield, X. Long, B. Meng,
      T. Nakajima, S. Niu, L. Pollack, M. Rosing, K. Glaesemann, G. Sandrone,
      M. Stave, H. Taylor, G. Thomas, J. H. van Lenthe, A. T. Wong, Z. Zhang.

 Total times  cpu:      619.9s     wall:      637.9s
