 argument  1 = methyloxirane_blyp-def2-tzvp_488.9_08.inp
 


============================== echo of input deck ==============================
echo
start methyloxirane_blyp-def2-tzvp_488.9_08.inp
title "methyloxirane roa calculations at 488.9 nm, input generated in va  with delta_type=2"
charge 0



geometry units angstrom nocenter noautoz noautosym nucleus point;symmetry c1
 O -0.880372 -0.180717  0.205355
 C  0.575024 -0.156669  0.123996
 C -0.185078  1.088350  0.339856
 C  1.183325 -0.522840 -1.213211
 H  1.071830 -0.587536  1.000662
 H -0.239418  1.530781  1.337963
 H -0.309540  1.789579 -0.490216
 H  2.238000 -0.210161 -1.233653
 H  1.151977 -1.607541 -1.384316
 H  0.658163 -0.023909 -2.037099
end

basis spherical
* library def2-TZVP
end

 set prop:newaoresp 1
 set aor:roadata T
 set cphf:maxsub 100
 set cphf:acc 1.0d-10
 set cphf:maxiter 100

property
    response 1   0.093196
    bdtensor
    convergence 1e-7
    damping 0.0037
    giao
end

dft
 direct
 mult 1
 xc becke88 lyp
 iterations 250
 tolerances tight
 grid xfine
 convergence nolevelshifting
 convergence energy 1e-8
 convergence gradient 1e-7


end

task dft gradient
task dft property
================================================================================


                                         
                                         
 
 
              Northwest Computational Chemistry Package (NWChem) 6.8
              ------------------------------------------------------
 
 
                    Environmental Molecular Sciences Laboratory
                       Pacific Northwest National Laboratory
                                Richland, WA 99352
 
                              Copyright (c) 1994-2017
                       Pacific Northwest National Laboratory
                            Battelle Memorial Institute
 
             NWChem is an open-source computational chemistry package
                        distributed under the terms of the
                      Educational Community License (ECL) 2.0
             A copy of the license is included with this distribution
                              in the LICENSE.TXT file
 
                                  ACKNOWLEDGMENT
                                  --------------

            This software and its documentation were developed at the
            EMSL at Pacific Northwest National Laboratory, a multiprogram
            national laboratory, operated for the U.S. Department of Energy
            by Battelle under Contract Number DE-AC05-76RL01830. Support
            for this work was provided by the Department of Energy Office
            of Biological and Environmental Research, Office of Basic
            Energy Sciences, and the Office of Advanced Scientific Computing.


           Job information
           ---------------

    hostname        = cpn-f15-33.cbls.ccr.buffalo.edu
    program         = /util/academic/nwchem/nwchem-6.8/bin/LINUX64/nwchem
    date            = Fri Mar  1 10:01:24 2019

    compiled        = Tue_Nov_06_14:59:08_2018
    source          = /util/academic/nwchem/nwchem-6.8
    nwchem branch   = 6.8
    nwchem revision = v6.8-47-gdf6c956
    ga revision     = ga-5.6.3
    use scalapack   = F
    input           = methyloxirane_blyp-def2-tzvp_488.9_08.inp
    prefix          = methyloxirane_blyp-def2-tzvp_488.9_08.inp.
    data base       = ./methyloxirane_blyp-def2-tzvp_488.9_08.inp.db
    status          = startup
    nproc           =        7
    time left       =     -1s



           Memory information
           ------------------

    heap     =   13107200 doubles =    100.0 Mbytes
    stack    =   13107197 doubles =    100.0 Mbytes
    global   =   26214400 doubles =    200.0 Mbytes (distinct from heap & stack)
    total    =   52428797 doubles =    400.0 Mbytes
    verify   = yes
    hardfail = no 


           Directory information
           ---------------------
 
  0 permanent = .
  0 scratch   = .
 
 
 
 
                                NWChem Input Module
                                -------------------
 
 
                    methyloxirane roa calculations at 488.9 nm, input generated in va  with delta_type=2
                    ------------------------------------------

 Scaling coordinates for geometry "geometry" by  1.889725989
 (inverse scale =  0.529177249)

 
 
                             Geometry "geometry" -> ""
                             -------------------------
 
 Output coordinates in angstroms (scale by  1.889725989 to convert to a.u.)
 
  No.       Tag          Charge          X              Y              Z
 ---- ---------------- ---------- -------------- -------------- --------------
    1 O                    8.0000    -0.88037200    -0.18071700     0.20535500
    2 C                    6.0000     0.57502400    -0.15666900     0.12399600
    3 C                    6.0000    -0.18507800     1.08835000     0.33985600
    4 C                    6.0000     1.18332500    -0.52284000    -1.21321100
    5 H                    1.0000     1.07183000    -0.58753600     1.00066200
    6 H                    1.0000    -0.23941800     1.53078100     1.33796300
    7 H                    1.0000    -0.30954000     1.78957900    -0.49021600
    8 H                    1.0000     2.23800000    -0.21016100    -1.23365300
    9 H                    1.0000     1.15197700    -1.60754100    -1.38431600
   10 H                    1.0000     0.65816300    -0.02390900    -2.03709900
 
      Atomic Mass 
      ----------- 
 
      O                 15.994910
      C                 12.000000
      H                  1.007825
 

 Effective nuclear repulsion energy (a.u.)     123.4512127178

            Nuclear Dipole moment (a.u.) 
            ----------------------------
        X                 Y               Z
 ---------------- ---------------- ----------------
    13.1669719610     3.5876882530   -10.6957980728
 
 
            XYZ format geometry
            -------------------
    10
 geometry
 O                    -0.88037200    -0.18071700     0.20535500
 C                     0.57502400    -0.15666900     0.12399600
 C                    -0.18507800     1.08835000     0.33985600
 C                     1.18332500    -0.52284000    -1.21321100
 H                     1.07183000    -0.58753600     1.00066200
 H                    -0.23941800     1.53078100     1.33796300
 H                    -0.30954000     1.78957900    -0.49021600
 H                     2.23800000    -0.21016100    -1.23365300
 H                     1.15197700    -1.60754100    -1.38431600
 H                     0.65816300    -0.02390900    -2.03709900
 
 ==============================================================================
                                internuclear distances
 ------------------------------------------------------------------------------
       center one      |      center two      | atomic units |  angstroms
 ------------------------------------------------------------------------------
    2 C                |   1 O                |     2.75497  |     1.45787
    3 C                |   1 O                |     2.74632  |     1.45329
    3 C                |   2 C                |     2.78658  |     1.47459
    4 C                |   2 C                |     2.86107  |     1.51401
    5 H                |   2 C                |     2.07096  |     1.09590
    6 H                |   3 C                |     2.06570  |     1.09312
    7 H                |   3 C                |     2.06684  |     1.09372
    8 H                |   4 C                |     2.07915  |     1.10024
    9 H                |   4 C                |     2.07598  |     1.09856
   10 H                |   4 C                |     2.07312  |     1.09705
 ------------------------------------------------------------------------------
                         number of included internuclear distances:         10
 ==============================================================================



 ==============================================================================
                                 internuclear angles
 ------------------------------------------------------------------------------
        center 1       |       center 2       |       center 3       |  degrees
 ------------------------------------------------------------------------------
    2 C                |   1 O                |   3 C                |    60.87
    2 C                |   1 O                |   3 C                |    60.87
    1 O                |   2 C                |   4 C                |   116.51
    1 O                |   2 C                |   5 H                |   113.67
    3 C                |   2 C                |   4 C                |   122.72
    3 C                |   2 C                |   5 H                |   116.65
    4 C                |   2 C                |   5 H                |   115.42
    3 C                |   1 O                |   2 C                |    60.87
    1 O                |   3 C                |   6 H                |   114.47
    1 O                |   3 C                |   7 H                |   115.80
    2 C                |   3 C                |   6 H                |   120.07
    2 C                |   3 C                |   7 H                |   119.27
    6 H                |   3 C                |   7 H                |   115.33
    2 C                |   4 C                |   8 H                |   109.44
    2 C                |   4 C                |   9 H                |   111.40
    2 C                |   4 C                |  10 H                |   111.16
    8 H                |   4 C                |   9 H                |   107.76
    8 H                |   4 C                |  10 H                |   108.40
    9 H                |   4 C                |  10 H                |   108.57
 ------------------------------------------------------------------------------
                            number of included internuclear angles:         19
 ==============================================================================



  warning:::::::::::::: from_environment
  NWCHEM_BASIS_LIBRARY set to: <
 /util/academic/nwchem/nwchem-6.8/src/basis/libraries>
  but file does not exist !
  using .nwchemrc or compiled library


 Summary of "ao basis" -> "" (spherical)
 ------------------------------------------------------------------------------
       Tag                 Description            Shells   Functions and Types
 ---------------- ------------------------------  ------  ---------------------
 *                         def2-TZVP                  on all atoms 


 
                                 NWChem DFT Module
                                 -----------------
 
 
                    methyloxirane roa calculations at 488.9 nm, input generated in va  with delta_type=2
 
 
                      Basis "ao basis" -> "ao basis" (spherical)
                      -----
  O (Oxygen)
  ----------
            Exponent  Coefficients 
       -------------- ---------------------------------------------------------
  1 S  2.70323826E+04  0.000217
  1 S  4.05238714E+03  0.001684
  1 S  9.22327227E+02  0.008740
  1 S  2.61240710E+02  0.035240
  1 S  8.53546414E+01  0.111535
  1 S  3.10350352E+01  0.255890
 
  2 S  1.22608607E+01  0.397687
  2 S  4.99870760E+00  0.246278
 
  3 S  1.17031082E+00  1.000000
 
  4 S  4.64747410E-01  1.000000
 
  5 S  1.85045364E-01  1.000000
 
  6 P  6.32749548E+01  0.006069
  6 P  1.46270494E+01  0.041913
  6 P  4.45012235E+00  0.161538
  6 P  1.52757996E+00  0.357070
 
  7 P  5.29351179E-01  1.000000
 
  8 P  1.74784213E-01  1.000000
 
  9 D  2.31400000E+00  1.000000
 
 10 D  6.45000000E-01  1.000000
 
 11 F  1.42800000E+00  1.000000
 
  C (Carbon)
  ----------
            Exponent  Coefficients 
       -------------- ---------------------------------------------------------
  1 S  1.35753497E+04  0.000222
  1 S  2.03523337E+03  0.001723
  1 S  4.63225624E+02  0.008926
  1 S  1.31200196E+02  0.035728
  1 S  4.28530159E+01  0.110763
  1 S  1.55841858E+01  0.242956
 
  2 S  6.20671385E+00  0.414403
  2 S  2.57648965E+00  0.237450
 
  3 S  5.76963394E-01  1.000000
 
  4 S  2.29728314E-01  1.000000
 
  5 S  9.51644400E-02  1.000000
 
  6 P  3.46972322E+01  0.005333
  6 P  7.95826228E+00  0.035864
  6 P  2.37808269E+00  0.142159
  6 P  8.14332082E-01  0.342705
 
  7 P  2.88875473E-01  1.000000
 
  8 P  1.00568237E-01  1.000000
 
  9 D  1.09700000E+00  1.000000
 
 10 D  3.18000000E-01  1.000000
 
 11 F  7.61000000E-01  1.000000
 
  H (Hydrogen)
  ------------
            Exponent  Coefficients 
       -------------- ---------------------------------------------------------
  1 S  3.40613410E+01  0.006025
  1 S  5.12357460E+00  0.045021
  1 S  1.16466260E+00  0.201897
 
  2 S  3.27230410E-01  1.000000
 
  3 S  1.03072410E-01  1.000000
 
  4 P  8.00000000E-01  1.000000
 


 Summary of "ao basis" -> "ao basis" (spherical)
 ------------------------------------------------------------------------------
       Tag                 Description            Shells   Functions and Types
 ---------------- ------------------------------  ------  ---------------------
 O                         def2-TZVP                11       31   5s3p2d1f
 C                         def2-TZVP                11       31   5s3p2d1f
 H                         def2-TZVP                 4        6   3s1p




 Summary of "ao basis" -> "ao basis" (spherical)
 ------------------------------------------------------------------------------
       Tag                 Description            Shells   Functions and Types
 ---------------- ------------------------------  ------  ---------------------
 O                         def2-TZVP                11       31   5s3p2d1f
 C                         def2-TZVP                11       31   5s3p2d1f
 H                         def2-TZVP                 4        6   3s1p


  Caching 1-el integrals 
  itol2e modified to match energy
  convergence criterion.
  tol_rho modified to match energy
  convergence criterion.
 
            General Information
            -------------------
          SCF calculation type: DFT
          Wavefunction type:  closed shell.
          No. of atoms     :    10
          No. of electrons :    32
           Alpha electrons :    16
            Beta electrons :    16
          Charge           :     0
          Spin multiplicity:     1
          Use of symmetry is: off; symmetry adaption is: off
          Maximum number of iterations: 250
          This is a Direct SCF calculation.
          AO basis - number of functions:   160
                     number of shells:    68
          Convergence on energy requested:  1.00D-08
          Convergence on density requested:  1.00D-05
          Convergence on gradient requested:  1.00D-07
 
              XC Information
              --------------
                    Becke 1988 Exchange Functional  1.000          
              Lee-Yang-Parr Correlation Functional  1.000          
 
             Grid Information
             ----------------
          Grid used for XC integration:  xfine     
          Radial quadrature: Mura-Knowles        
          Angular quadrature: Lebedev. 
          Tag              B.-S. Rad. Rad. Pts. Rad. Cut. Ang. Pts.
          ---              ---------- --------- --------- ---------
          O                   0.60      100          11.0      1454
          C                   0.70      100          11.0      1454
          H                   0.35      100          12.0      1202
          Grid pruning is: on 
          Number of quadrature shells:  1000
          Spatial weights used:  Erf1
 
          Convergence Information
          -----------------------
          Convergence aids based upon iterative change in 
          total energy or number of iterations. 
          Levelshifting, if invoked, occurs when the 
          HOMO/LUMO gap drops below (HL_TOL):  1.00D-02
          DIIS, if invoked, will attempt to extrapolate 
          using up to (NFOCK): 10 stored Fock matrices.

                    Damping( 0%)  Levelshifting(0.0)       DIIS
                  --------------- ------------------- ---------------
          dE  on:    start             N/A                start   
          dE off:    2 iters           N/A              250 iters 

 
      Screening Tolerance Information
      -------------------------------
          Density screening/tol_rho:  1.00D-11
          AO Gaussian exp screening on grid/accAOfunc:  18
          CD Gaussian exp screening on grid/accCDfunc:  20
          XC Gaussian exp screening on grid/accXCfunc:  20
          Schwarz screening/accCoul:  1.00D-09

 
      Superposition of Atomic Density Guess
      -------------------------------------
 
 Sum of atomic energies:        -190.79714706
 
      Non-variational initial energy
      ------------------------------

 Total energy =    -193.153116
 1-e energy   =    -501.869906
 2-e energy   =     185.265578
 HOMO         =      -0.351681
 LUMO         =       0.089868
 
   Time after variat. SCF:      0.5
   Time prior to 1st pass:      0.5

 Grid_pts file          = ./methyloxirane_blyp-def2-tzvp_488.9_08.inp.gridpts.0
 Record size in doubles =  12289        No. of grid_pts per rec  =   3070
 Max. records in memory =     76        Max. recs in file   =   1218698


           Memory utilization after 1st SCF pass: 
           Heap Space remaining (MW):       12.17            12167544
          Stack Space remaining (MW):       13.11            13106116

   convergence    iter        energy       DeltaE   RMS-Dens  Diis-err    time
 ---------------- ----- ----------------- --------- --------- ---------  ------
 d= 0,ls=0.0,diis     1   -193.0198561732 -3.16D+02  9.17D-03  1.06D+00     4.6
 d= 0,ls=0.0,diis     2   -192.8547919332  1.65D-01  7.59D-03  2.59D+00     8.5
 d= 0,ls=0.0,diis     3   -193.0770121609 -2.22D-01  1.81D-03  3.87D-01    12.3
 d= 0,ls=0.0,diis     4   -193.1071723869 -3.02D-02  6.85D-04  1.84D-02    16.2
 d= 0,ls=0.0,diis     5   -193.1088577473 -1.69D-03  2.93D-04  2.74D-03    20.1
 d= 0,ls=0.0,diis     6   -193.1091989933 -3.41D-04  3.05D-05  3.68D-05    24.0
 d= 0,ls=0.0,diis     7   -193.1092033269 -4.33D-06  8.63D-06  4.51D-06    27.8
 d= 0,ls=0.0,diis     8   -193.1092038263 -4.99D-07  2.15D-06  3.13D-07    31.7
 d= 0,ls=0.0,diis     9   -193.1092038605 -3.42D-08  6.88D-07  1.80D-08    35.5
 d= 0,ls=0.0,diis    10   -193.1092038625 -1.99D-09  2.05D-07  2.73D-09    39.4


         Total DFT energy =     -193.109203862485
      One electron energy =     -505.522724262687
           Coulomb energy =      215.980774794015
    Exchange-Corr. energy =      -27.018467111634
 Nuclear repulsion energy =      123.451212717822

 Numeric. integr. density =       32.000000019449

     Total iterative time =     38.9s


 
                       DFT Final Molecular Orbital Analysis
                       ------------------------------------
 
 Vector    1  Occ=2.000000D+00  E=-1.877983D+01
              MO Center= -8.8D-01, -1.8D-01,  2.1D-01, r^2= 1.5D-02
   Bfn.  Coefficient  Atom+Function         Bfn.  Coefficient  Atom+Function  
  ----- ------------  ---------------      ----- ------------  ---------------
     2      0.638479   1 O  s                 1      0.435422   1 O  s         
     3      0.039869   1 O  s                 4     -0.033183   1 O  s         
 
 Vector    2  Occ=2.000000D+00  E=-9.963477D+00
              MO Center=  5.7D-01, -1.6D-01,  1.2D-01, r^2= 2.8D-02
   Bfn.  Coefficient  Atom+Function         Bfn.  Coefficient  Atom+Function  
  ----- ------------  ---------------      ----- ------------  ---------------
    33      0.606921   2 C  s                32      0.467265   2 C  s         
    34      0.042503   2 C  s                36      0.037306   2 C  s         
    35     -0.027367   2 C  s         
 
 Vector    3  Occ=2.000000D+00  E=-9.955606D+00
              MO Center= -1.9D-01,  1.1D+00,  3.4D-01, r^2= 2.8D-02
   Bfn.  Coefficient  Atom+Function         Bfn.  Coefficient  Atom+Function  
  ----- ------------  ---------------      ----- ------------  ---------------
    64      0.607030   3 C  s                63      0.467225   3 C  s         
    65      0.039721   3 C  s         
 
 Vector    4  Occ=2.000000D+00  E=-9.908300D+00
              MO Center=  1.2D+00, -5.2D-01, -1.2D+00, r^2= 2.8D-02
   Bfn.  Coefficient  Atom+Function         Bfn.  Coefficient  Atom+Function  
  ----- ------------  ---------------      ----- ------------  ---------------
    95      0.606964   4 C  s                94      0.467217   4 C  s         
    96      0.040606   4 C  s                98      0.035682   4 C  s         
 
 Vector    5  Occ=2.000000D+00  E=-9.615960D-01
              MO Center= -4.7D-01,  5.6D-02,  2.1D-01, r^2= 6.5D-01
   Bfn.  Coefficient  Atom+Function         Bfn.  Coefficient  Atom+Function  
  ----- ------------  ---------------      ----- ------------  ---------------
     4      0.375338   1 O  s                 3      0.277526   1 O  s         
     2     -0.192815   1 O  s                34      0.139656   2 C  s         
    65      0.139258   3 C  s                 5      0.122873   1 O  s         
    35      0.105144   2 C  s                66      0.093982   3 C  s         
     6      0.093047   1 O  px               69     -0.091353   3 C  py        
 
 Vector    6  Occ=2.000000D+00  E=-6.695286D-01
              MO Center=  9.4D-01, -3.9D-01, -7.7D-01, r^2= 1.6D+00
   Bfn.  Coefficient  Atom+Function         Bfn.  Coefficient  Atom+Function  
  ----- ------------  ---------------      ----- ------------  ---------------
    97      0.284741   4 C  s                96      0.275937   4 C  s         
    35      0.185206   2 C  s                34      0.174575   2 C  s         
    95     -0.173706   4 C  s                 4     -0.148423   1 O  s         
    33     -0.109034   2 C  s                 3     -0.103831   1 O  s         
    94     -0.083229   4 C  s                 5     -0.073529   1 O  s         
 
 Vector    7  Occ=2.000000D+00  E=-5.901165D-01
              MO Center= -1.2D-01,  7.1D-01,  2.1D-01, r^2= 2.0D+00
   Bfn.  Coefficient  Atom+Function         Bfn.  Coefficient  Atom+Function  
  ----- ------------  ---------------      ----- ------------  ---------------
    66      0.324541   3 C  s                65      0.277259   3 C  s         
     4     -0.238322   1 O  s                64     -0.171326   3 C  s         
     3     -0.168462   1 O  s                 5     -0.147908   1 O  s         
     2      0.111207   1 O  s                38      0.104686   2 C  py        
    97     -0.102506   4 C  s               132      0.102085   6 H  s         
 
 Vector    8  Occ=2.000000D+00  E=-5.297400D-01
              MO Center=  4.1D-01,  2.7D-02, -9.2D-02, r^2= 2.7D+00
   Bfn.  Coefficient  Atom+Function         Bfn.  Coefficient  Atom+Function  
  ----- ------------  ---------------      ----- ------------  ---------------
    35      0.303232   2 C  s                34      0.224905   2 C  s         
    66     -0.156411   3 C  s                97     -0.153955   4 C  s         
    33     -0.138335   2 C  s               126      0.132561   5 H  s         
    96     -0.128055   4 C  s                 6      0.105845   1 O  px        
   125      0.105991   5 H  s                65     -0.101780   3 C  s         
 
 Vector    9  Occ=2.000000D+00  E=-4.476042D-01
              MO Center=  1.2D-01,  2.8D-01,  2.5D-01, r^2= 2.5D+00
   Bfn.  Coefficient  Atom+Function         Bfn.  Coefficient  Atom+Function  
  ----- ------------  ---------------      ----- ------------  ---------------
    70      0.210676   3 C  pz               39      0.155984   2 C  pz        
   132      0.144923   6 H  s                73      0.132553   3 C  pz        
     8      0.127067   1 O  pz              126      0.116271   5 H  s         
     6     -0.110582   1 O  px              131      0.107557   6 H  s         
    37      0.105580   2 C  px               38     -0.105448   2 C  py        
 
 Vector   10  Occ=2.000000D+00  E=-4.133733D-01
              MO Center=  3.7D-02,  2.9D-01, -2.3D-01, r^2= 2.6D+00
   Bfn.  Coefficient  Atom+Function         Bfn.  Coefficient  Atom+Function  
  ----- ------------  ---------------      ----- ------------  ---------------
    69      0.216037   3 C  py              101      0.155344   4 C  pz        
   138      0.154329   7 H  s                 6     -0.145103   1 O  px        
    38     -0.138366   2 C  py               37      0.130940   2 C  px        
     7     -0.122906   1 O  py               72      0.121947   3 C  py        
    70     -0.117018   3 C  pz                9     -0.116009   1 O  px        
 
 Vector   11  Occ=2.000000D+00  E=-3.766532D-01
              MO Center=  9.1D-01, -3.3D-01, -7.5D-01, r^2= 2.7D+00
   Bfn.  Coefficient  Atom+Function         Bfn.  Coefficient  Atom+Function  
  ----- ------------  ---------------      ----- ------------  ---------------
    99      0.206766   4 C  px              144      0.185998   8 H  s         
   100      0.171879   4 C  py              150     -0.143998   9 H  s         
   102      0.133070   4 C  px              143      0.130240   8 H  s         
    37      0.125973   2 C  px                6     -0.117627   1 O  px        
     7      0.116541   1 O  py              103      0.113350   4 C  py        
 
 Vector   12  Occ=2.000000D+00  E=-3.559535D-01
              MO Center=  6.1D-01, -3.4D-01, -8.9D-01, r^2= 2.8D+00
   Bfn.  Coefficient  Atom+Function         Bfn.  Coefficient  Atom+Function  
  ----- ------------  ---------------      ----- ------------  ---------------
   100      0.252810   4 C  py              150     -0.183122   9 H  s         
   156      0.181156  10 H  s                 7     -0.167068   1 O  py        
   103      0.163565   4 C  py               10     -0.133786   1 O  py        
   149     -0.127643   9 H  s               155      0.128149  10 H  s         
    70      0.117891   3 C  pz              106      0.102950   4 C  py        
 
 Vector   13  Occ=2.000000D+00  E=-3.288222D-01
              MO Center=  3.5D-01,  2.6D-01, -2.1D-01, r^2= 2.8D+00
   Bfn.  Coefficient  Atom+Function         Bfn.  Coefficient  Atom+Function  
  ----- ------------  ---------------      ----- ------------  ---------------
    39      0.223876   2 C  pz              101     -0.198678   4 C  pz        
    70     -0.174668   3 C  pz              138      0.161648   7 H  s         
     7     -0.159441   1 O  py               42      0.152420   2 C  pz        
   104     -0.139264   4 C  pz               10     -0.128304   1 O  py        
    99      0.126208   4 C  px              132     -0.112798   6 H  s         
 
 Vector   14  Occ=2.000000D+00  E=-3.210279D-01
              MO Center=  3.9D-01, -6.1D-02, -2.3D-01, r^2= 3.0D+00
   Bfn.  Coefficient  Atom+Function         Bfn.  Coefficient  Atom+Function  
  ----- ------------  ---------------      ----- ------------  ---------------
     7      0.212523   1 O  py               10      0.174191   1 O  py        
    99     -0.162799   4 C  px              126      0.158286   5 H  s         
     6     -0.153889   1 O  px              156      0.147206  10 H  s         
    37      0.138199   2 C  px              144     -0.137620   8 H  s         
     9     -0.126063   1 O  px               39      0.120560   2 C  pz        
 
 Vector   15  Occ=2.000000D+00  E=-2.636862D-01
              MO Center=  1.2D-02,  1.5D-01,  3.8D-02, r^2= 2.3D+00
   Bfn.  Coefficient  Atom+Function         Bfn.  Coefficient  Atom+Function  
  ----- ------------  ---------------      ----- ------------  ---------------
    68      0.264439   3 C  px               38      0.257749   2 C  py        
     6     -0.237408   1 O  px               41      0.201019   2 C  py        
    71      0.196381   3 C  px                9     -0.185682   1 O  px        
    12     -0.157092   1 O  px              150      0.113222   9 H  s         
   100     -0.108600   4 C  py               67      0.105373   3 C  s         
 
 Vector   16  Occ=2.000000D+00  E=-2.197003D-01
              MO Center= -5.8D-01, -2.6D-02,  2.0D-01, r^2= 1.6D+00
   Bfn.  Coefficient  Atom+Function         Bfn.  Coefficient  Atom+Function  
  ----- ------------  ---------------      ----- ------------  ---------------
     8      0.449869   1 O  pz               11      0.358240   1 O  pz        
    14      0.296469   1 O  pz              133     -0.129178   6 H  s         
   139      0.117395   7 H  s               132     -0.104289   6 H  s         
   138      0.102727   7 H  s               145     -0.102340   8 H  s         
   126     -0.095703   5 H  s                98      0.086626   4 C  s         
 
 Vector   17  Occ=0.000000D+00  E= 2.539331D-02
              MO Center=  1.2D+00, -7.0D-02, -6.0D-01, r^2= 7.2D+00
   Bfn.  Coefficient  Atom+Function         Bfn.  Coefficient  Atom+Function  
  ----- ------------  ---------------      ----- ------------  ---------------
    98      4.463461   4 C  s               145     -1.542729   8 H  s         
   151     -1.480659   9 H  s               157     -1.334636  10 H  s         
   127     -1.235637   5 H  s                45      1.122993   2 C  pz        
   139     -0.883084   7 H  s                67      0.705446   3 C  s         
   133     -0.610880   6 H  s                75      0.324562   3 C  py        
 
 Vector   18  Occ=0.000000D+00  E= 4.243144D-02
              MO Center= -1.3D-01,  6.5D-01,  1.0D-01, r^2= 4.5D+00
   Bfn.  Coefficient  Atom+Function         Bfn.  Coefficient  Atom+Function  
  ----- ------------  ---------------      ----- ------------  ---------------
    98      2.084696   4 C  s                36     -1.886956   2 C  s         
     5      1.269160   1 O  s                74      0.931207   3 C  px        
   151     -0.817436   9 H  s                45      0.484419   2 C  pz        
    13      0.438073   1 O  py              157     -0.403514  10 H  s         
    44     -0.394490   2 C  py               67      0.391258   3 C  s         
 
 Vector   19  Occ=0.000000D+00  E= 5.044510D-02
              MO Center=  6.7D-01,  1.1D-01,  1.6D-01, r^2= 7.3D+00
   Bfn.  Coefficient  Atom+Function         Bfn.  Coefficient  Atom+Function  
  ----- ------------  ---------------      ----- ------------  ---------------
    98     -2.748793   4 C  s                36      2.654736   2 C  s         
   127     -2.104408   5 H  s               157      1.384146  10 H  s         
   133     -1.112626   6 H  s               139      0.992747   7 H  s         
    76      0.765472   3 C  pz               43      0.738883   2 C  px        
   151      0.478031   9 H  s               145      0.467440   8 H  s         
 
 Vector   20  Occ=0.000000D+00  E= 5.082658D-02
              MO Center=  3.2D-01,  9.3D-01,  1.2D-01, r^2= 6.7D+00
   Bfn.  Coefficient  Atom+Function         Bfn.  Coefficient  Atom+Function  
  ----- ------------  ---------------      ----- ------------  ---------------
    67      3.838886   3 C  s                98     -2.084342   4 C  s         
   133     -1.492001   6 H  s               139     -1.337407   7 H  s         
    36     -1.305859   2 C  s               145      1.174701   8 H  s         
    44     -1.100997   2 C  py               45     -0.656662   2 C  pz        
    74      0.566253   3 C  px              151      0.534401   9 H  s         
 
 Vector   21  Occ=0.000000D+00  E= 6.381856D-02
              MO Center=  2.6D-01,  1.3D-01, -1.4D-01, r^2= 4.8D+00
   Bfn.  Coefficient  Atom+Function         Bfn.  Coefficient  Atom+Function  
  ----- ------------  ---------------      ----- ------------  ---------------
    98      1.301755   4 C  s               139      1.219844   7 H  s         
    67     -0.982931   3 C  s               151     -0.932696   9 H  s         
     5     -0.884196   1 O  s                43     -0.845049   2 C  px        
   133      0.627245   6 H  s                75     -0.578011   3 C  py        
    12     -0.485496   1 O  px               45      0.431111   2 C  pz        
 
 Vector   22  Occ=0.000000D+00  E= 8.656806D-02
              MO Center=  1.3D+00,  1.8D-01, -5.2D-01, r^2= 7.0D+00
   Bfn.  Coefficient  Atom+Function         Bfn.  Coefficient  Atom+Function  
  ----- ------------  ---------------      ----- ------------  ---------------
    36      2.914352   2 C  s               145      2.040495   8 H  s         
    67     -1.430000   3 C  s               157     -1.333471  10 H  s         
   127     -1.307686   5 H  s               107     -1.129417   4 C  pz        
   133      1.129123   6 H  s               105     -1.019100   4 C  px        
    98     -0.975786   4 C  s                75      0.780229   3 C  py        
 
 Vector   23  Occ=0.000000D+00  E= 9.089027D-02
              MO Center=  1.1D+00, -5.9D-01, -5.4D-01, r^2= 6.7D+00
   Bfn.  Coefficient  Atom+Function         Bfn.  Coefficient  Atom+Function  
  ----- ------------  ---------------      ----- ------------  ---------------
    36      2.453999   2 C  s               151      2.028672   9 H  s         
   145     -1.513103   8 H  s                98     -1.294235   4 C  s         
   106      1.113470   4 C  py              105      1.080455   4 C  px        
   133      1.000404   6 H  s                67     -0.881996   3 C  s         
   127     -0.792062   5 H  s               107     -0.696153   4 C  pz        
 
 Vector   24  Occ=0.000000D+00  E= 1.023713D-01
              MO Center=  4.4D-01,  3.7D-01, -1.1D+00, r^2= 6.8D+00
   Bfn.  Coefficient  Atom+Function         Bfn.  Coefficient  Atom+Function  
  ----- ------------  ---------------      ----- ------------  ---------------
   157      2.030004  10 H  s               133      1.583172   6 H  s         
   106     -1.519966   4 C  py              151     -1.497433   9 H  s         
   139     -1.477715   7 H  s                98     -1.444522   4 C  s         
    36      1.301591   2 C  s                76     -1.144855   3 C  pz        
   105      0.956010   4 C  px               45     -0.536769   2 C  pz        
 
 Vector   25  Occ=0.000000D+00  E= 1.390428D-01
              MO Center=  8.1D-01,  1.8D-01, -4.4D-01, r^2= 7.9D+00
   Bfn.  Coefficient  Atom+Function         Bfn.  Coefficient  Atom+Function  
  ----- ------------  ---------------      ----- ------------  ---------------
    36      4.605370   2 C  s                98     -3.515440   4 C  s         
    45     -3.401856   2 C  pz              127      2.734463   5 H  s         
    67     -2.717543   3 C  s                76      2.162443   3 C  pz        
   105      2.078385   4 C  px              133     -1.800712   6 H  s         
   139      1.691633   7 H  s               107     -1.556698   4 C  pz        
 
 Vector   26  Occ=0.000000D+00  E= 1.701774D-01
              MO Center=  4.3D-01,  5.5D-01, -1.2D-01, r^2= 7.3D+00
   Bfn.  Coefficient  Atom+Function         Bfn.  Coefficient  Atom+Function  
  ----- ------------  ---------------      ----- ------------  ---------------
    75      2.341646   3 C  py              107      1.594800   4 C  pz        
    67     -1.552556   3 C  s                36      1.540628   2 C  s         
   139     -1.192103   7 H  s               157      1.066622  10 H  s         
    74     -0.969186   3 C  px               44      0.724873   2 C  py        
    43     -0.589016   2 C  px              106     -0.579722   4 C  py        
 
 Vector   27  Occ=0.000000D+00  E= 1.969670D-01
              MO Center=  7.0D-01, -1.6D-01, -9.9D-01, r^2= 5.1D+00
   Bfn.  Coefficient  Atom+Function         Bfn.  Coefficient  Atom+Function  
  ----- ------------  ---------------      ----- ------------  ---------------
    67      2.917732   3 C  s                44     -2.489425   2 C  py        
    36     -2.317056   2 C  s               106      1.761026   4 C  py        
   105      0.973023   4 C  px               43      0.912390   2 C  px        
    75     -0.867878   3 C  py               74      0.826874   3 C  px        
    45     -0.789723   2 C  pz              157     -0.661354  10 H  s         
 
 Vector   28  Occ=0.000000D+00  E= 2.022136D-01
              MO Center=  1.1D+00, -3.8D-01, -6.8D-01, r^2= 6.6D+00
   Bfn.  Coefficient  Atom+Function         Bfn.  Coefficient  Atom+Function  
  ----- ------------  ---------------      ----- ------------  ---------------
    36      2.099906   2 C  s                75      1.466808   3 C  py        
   106      1.300128   4 C  py              133     -1.274065   6 H  s         
   105     -1.226602   4 C  px              107     -1.039527   4 C  pz        
    67      0.840692   3 C  s                44     -0.745256   2 C  py        
    76      0.709991   3 C  pz              156     -0.705109  10 H  s         
 
 Vector   29  Occ=0.000000D+00  E= 2.361888D-01
              MO Center= -2.7D-01,  3.7D-01, -9.7D-02, r^2= 5.5D+00
   Bfn.  Coefficient  Atom+Function         Bfn.  Coefficient  Atom+Function  
  ----- ------------  ---------------      ----- ------------  ---------------
    67      4.321711   3 C  s                36     -2.978883   2 C  s         
   139     -1.566045   7 H  s                66     -1.435371   3 C  s         
    98      1.257842   4 C  s               133     -1.250124   6 H  s         
   107      1.062624   4 C  pz               74     -0.801067   3 C  px        
   106      0.797698   4 C  py                5     -0.740579   1 O  s         
 
 Vector   30  Occ=0.000000D+00  E= 2.471246D-01
              MO Center=  5.1D-01,  5.6D-02, -8.5D-02, r^2= 5.9D+00
   Bfn.  Coefficient  Atom+Function         Bfn.  Coefficient  Atom+Function  
  ----- ------------  ---------------      ----- ------------  ---------------
    67      6.115496   3 C  s                43      4.160290   2 C  px        
    75     -3.048400   3 C  py               44     -2.591600   2 C  py        
    36     -2.290164   2 C  s               107     -2.028341   4 C  pz        
   157     -1.835126  10 H  s                45     -1.481947   2 C  pz        
    98     -1.278525   4 C  s               105     -1.172673   4 C  px        
 
 Vector   31  Occ=0.000000D+00  E= 2.683778D-01
              MO Center=  2.4D-01, -2.0D-01,  2.5D-01, r^2= 5.6D+00
   Bfn.  Coefficient  Atom+Function         Bfn.  Coefficient  Atom+Function  
  ----- ------------  ---------------      ----- ------------  ---------------
    36      4.383062   2 C  s                 5     -2.314361   1 O  s         
    67      2.189219   3 C  s                43     -1.579508   2 C  px        
   105      1.475716   4 C  px               66     -1.170480   3 C  s         
    98     -1.164784   4 C  s               139     -0.903156   7 H  s         
   133     -0.886991   6 H  s               127     -0.852779   5 H  s         
 
 Vector   32  Occ=0.000000D+00  E= 2.775136D-01
              MO Center=  4.6D-01,  3.9D-01,  3.2D-01, r^2= 4.1D+00
   Bfn.  Coefficient  Atom+Function         Bfn.  Coefficient  Atom+Function  
  ----- ------------  ---------------      ----- ------------  ---------------
    36      2.220578   2 C  s                67     -1.903106   3 C  s         
     5     -1.558672   1 O  s                43     -1.222674   2 C  px        
    74     -0.756717   3 C  px              145      0.537096   8 H  s         
    45     -0.526556   2 C  pz               66      0.496159   3 C  s         
     4      0.479929   1 O  s                98     -0.407988   4 C  s         
 
 Vector   33  Occ=0.000000D+00  E= 3.014050D-01
              MO Center=  4.4D-01,  3.5D-01, -4.0D-01, r^2= 5.0D+00
   Bfn.  Coefficient  Atom+Function         Bfn.  Coefficient  Atom+Function  
  ----- ------------  ---------------      ----- ------------  ---------------
    43      1.950626   2 C  px              106      1.807600   4 C  py        
   151      1.720808   9 H  s                98     -1.693166   4 C  s         
    76      1.392194   3 C  pz               44     -1.285470   2 C  py        
    36     -1.221736   2 C  s               107     -1.065980   4 C  pz        
    66      1.031410   3 C  s               139      0.981654   7 H  s         
 
 Vector   34  Occ=0.000000D+00  E= 3.371530D-01
              MO Center=  1.0D-01,  4.3D-01, -4.1D-01, r^2= 5.8D+00
   Bfn.  Coefficient  Atom+Function         Bfn.  Coefficient  Atom+Function  
  ----- ------------  ---------------      ----- ------------  ---------------
    67      4.586725   3 C  s                76     -3.949135   3 C  pz        
   139     -3.150245   7 H  s                36     -2.401868   2 C  s         
   133      2.000991   6 H  s               107     -1.777246   4 C  pz        
   157     -1.760590  10 H  s                98      1.570511   4 C  s         
    43      1.359083   2 C  px               44     -1.165859   2 C  py        
 
 Vector   35  Occ=0.000000D+00  E= 3.623817D-01
              MO Center=  8.5D-01, -3.4D-02, -3.6D-01, r^2= 6.8D+00
   Bfn.  Coefficient  Atom+Function         Bfn.  Coefficient  Atom+Function  
  ----- ------------  ---------------      ----- ------------  ---------------
    98      7.355742   4 C  s                76      3.360160   3 C  pz        
   145     -3.368663   8 H  s                97     -3.143648   4 C  s         
   133     -2.384632   6 H  s               151     -1.890875   9 H  s         
    36      1.817951   2 C  s                45     -1.720759   2 C  pz        
   139      1.653333   7 H  s               105      1.498624   4 C  px        
 
 Vector   36  Occ=0.000000D+00  E= 3.721709D-01
              MO Center=  5.3D-01,  2.6D-01, -8.2D-02, r^2= 6.3D+00
   Bfn.  Coefficient  Atom+Function         Bfn.  Coefficient  Atom+Function  
  ----- ------------  ---------------      ----- ------------  ---------------
    36     12.337559   2 C  s                98     -8.689732   4 C  s         
    67     -8.113556   3 C  s               127     -3.041594   5 H  s         
    97      2.463036   4 C  s               157      2.256415  10 H  s         
    44      1.951217   2 C  py               35     -1.804568   2 C  s         
   151      1.705124   9 H  s                74     -1.570833   3 C  px        
 
 Vector   37  Occ=0.000000D+00  E= 3.851318D-01
              MO Center=  8.2D-01, -3.3D-01, -3.3D-02, r^2= 6.1D+00
   Bfn.  Coefficient  Atom+Function         Bfn.  Coefficient  Atom+Function  
  ----- ------------  ---------------      ----- ------------  ---------------
    36      5.707515   2 C  s               127     -4.334072   5 H  s         
    98      4.122133   4 C  s                45      3.382393   2 C  pz        
    76     -2.379867   3 C  pz               35     -2.295785   2 C  s         
    67     -2.293893   3 C  s               151     -2.086214   9 H  s         
   145     -1.917509   8 H  s               133      1.846924   6 H  s         
 
 Vector   38  Occ=0.000000D+00  E= 3.931892D-01
              MO Center=  1.4D-01,  6.1D-02, -2.5D-01, r^2= 6.4D+00
   Bfn.  Coefficient  Atom+Function         Bfn.  Coefficient  Atom+Function  
  ----- ------------  ---------------      ----- ------------  ---------------
    98     13.150400   4 C  s                45      5.682565   2 C  pz        
    67     -4.477220   3 C  s                36     -3.832064   2 C  s         
    76     -2.914221   3 C  pz              157     -2.853271  10 H  s         
   133      2.117711   6 H  s                44      2.083686   2 C  py        
   107      1.856649   4 C  pz               97     -1.796165   4 C  s         
 
 Vector   39  Occ=0.000000D+00  E= 4.004670D-01
              MO Center= -1.1D-01,  3.0D-01,  2.8D-01, r^2= 6.6D+00
   Bfn.  Coefficient  Atom+Function         Bfn.  Coefficient  Atom+Function  
  ----- ------------  ---------------      ----- ------------  ---------------
    67    -13.274189   3 C  s                36     12.515154   2 C  s         
    45     -4.321636   2 C  pz               44      4.183503   2 C  py        
    98     -3.771444   4 C  s                66      2.776968   3 C  s         
    43     -2.679318   2 C  px              127      2.545952   5 H  s         
   133      2.316887   6 H  s               105      2.213285   4 C  px        
 
 Vector   40  Occ=0.000000D+00  E= 4.156767D-01
              MO Center=  8.3D-01, -4.0D-01, -8.4D-01, r^2= 5.8D+00
   Bfn.  Coefficient  Atom+Function         Bfn.  Coefficient  Atom+Function  
  ----- ------------  ---------------      ----- ------------  ---------------
    98      6.493271   4 C  s                45      2.850810   2 C  pz        
    36     -2.671968   2 C  s               151     -2.464775   9 H  s         
   105     -2.401756   4 C  px              157     -1.911771  10 H  s         
   145      1.773126   8 H  s               127     -1.158848   5 H  s         
    97     -1.131196   4 C  s               144     -0.949555   8 H  s         
 
 Vector   41  Occ=0.000000D+00  E= 4.268993D-01
              MO Center=  4.5D-01,  2.4D-01, -1.4D-01, r^2= 6.8D+00
   Bfn.  Coefficient  Atom+Function         Bfn.  Coefficient  Atom+Function  
  ----- ------------  ---------------      ----- ------------  ---------------
    36      9.514152   2 C  s                67     -4.750201   3 C  s         
    98     -4.253293   4 C  s                75      2.665503   3 C  py        
    44      2.646531   2 C  py              151      2.352546   9 H  s         
    43     -1.815786   2 C  px               45     -1.477352   2 C  pz        
    74     -1.480023   3 C  px              132      1.325550   6 H  s         
 
 Vector   42  Occ=0.000000D+00  E= 4.473740D-01
              MO Center=  9.8D-02, -1.2D-01, -1.6D-01, r^2= 6.1D+00
   Bfn.  Coefficient  Atom+Function         Bfn.  Coefficient  Atom+Function  
  ----- ------------  ---------------      ----- ------------  ---------------
    36      9.058566   2 C  s                98     -8.753997   4 C  s         
    45     -5.574557   2 C  pz              127      2.954764   5 H  s         
    76      2.703875   3 C  pz               67     -2.607908   3 C  s         
   157      2.170613  10 H  s               133     -2.140466   6 H  s         
    44      2.102872   2 C  py              106     -2.067583   4 C  py        
 
 Vector   43  Occ=0.000000D+00  E= 4.588316D-01
              MO Center=  9.2D-02,  8.4D-01, -5.4D-01, r^2= 5.1D+00
   Bfn.  Coefficient  Atom+Function         Bfn.  Coefficient  Atom+Function  
  ----- ------------  ---------------      ----- ------------  ---------------
   139      3.192585   7 H  s               157     -2.452928  10 H  s         
    75     -2.149932   3 C  py              107     -2.157346   4 C  pz        
    43      1.566114   2 C  px               44     -1.530657   2 C  py        
   138     -1.454781   7 H  s                45     -1.415941   2 C  pz        
    76      0.986383   3 C  pz               74      0.774267   3 C  px        
 
 Vector   44  Occ=0.000000D+00  E= 4.693167D-01
              MO Center=  4.6D-01,  1.5D-01, -2.6D-02, r^2= 5.7D+00
   Bfn.  Coefficient  Atom+Function         Bfn.  Coefficient  Atom+Function  
  ----- ------------  ---------------      ----- ------------  ---------------
    98     -5.128051   4 C  s                36      4.711295   2 C  s         
    45     -2.304066   2 C  pz              145      1.737049   8 H  s         
   107     -1.657420   4 C  pz              133      1.417291   6 H  s         
    67     -1.323600   3 C  s                35     -1.308631   2 C  s         
   132     -1.123952   6 H  s               126      1.036186   5 H  s         
 
 Vector   45  Occ=0.000000D+00  E= 5.079606D-01
              MO Center=  8.3D-01, -3.5D-01, -8.7D-01, r^2= 4.9D+00
   Bfn.  Coefficient  Atom+Function         Bfn.  Coefficient  Atom+Function  
  ----- ------------  ---------------      ----- ------------  ---------------
    98     10.958344   4 C  s                36     -6.787434   2 C  s         
    45      4.428793   2 C  pz              107      3.001962   4 C  pz        
   106      1.342526   4 C  py              144     -1.343708   8 H  s         
   127     -1.165829   5 H  s               156     -1.168118  10 H  s         
    14     -1.122640   1 O  pz              150     -0.994752   9 H  s         
 
 Vector   46  Occ=0.000000D+00  E= 5.378126D-01
              MO Center=  1.8D-01, -4.2D-01, -5.3D-01, r^2= 4.4D+00
   Bfn.  Coefficient  Atom+Function         Bfn.  Coefficient  Atom+Function  
  ----- ------------  ---------------      ----- ------------  ---------------
    98      8.133438   4 C  s                36     -7.260102   2 C  s         
    45      3.962969   2 C  pz               76     -3.166734   3 C  pz        
   107      1.727036   4 C  pz              133      1.701693   6 H  s         
   105     -1.530370   4 C  px              139     -1.508348   7 H  s         
     5      1.215127   1 O  s                14      1.075840   1 O  pz        
 
 Vector   47  Occ=0.000000D+00  E= 6.553074D-01
              MO Center= -4.1D-01,  4.2D-02, -1.3D-02, r^2= 4.3D+00
   Bfn.  Coefficient  Atom+Function         Bfn.  Coefficient  Atom+Function  
  ----- ------------  ---------------      ----- ------------  ---------------
    36     11.580256   2 C  s                67     -8.956476   3 C  s         
    98     -4.069361   4 C  s                43     -2.537631   2 C  px        
    75      2.423892   3 C  py               13      2.224976   1 O  py        
    76      2.048555   3 C  pz              105      1.517494   4 C  px        
   139      1.510530   7 H  s                44      1.453469   2 C  py        
 
 Vector   48  Occ=0.000000D+00  E= 6.751941D-01
              MO Center= -2.4D-01,  3.6D-01,  1.1D-01, r^2= 3.9D+00
   Bfn.  Coefficient  Atom+Function         Bfn.  Coefficient  Atom+Function  
  ----- ------------  ---------------      ----- ------------  ---------------
    36      7.675345   2 C  s                67     -7.394521   3 C  s         
     5      3.040218   1 O  s                75      2.426102   3 C  py        
    98     -2.187213   4 C  s                13      2.012643   1 O  py        
    45     -1.274645   2 C  pz                4     -1.127358   1 O  s         
    43     -1.070053   2 C  px               76      0.820735   3 C  pz        
 
 Vector   49  Occ=0.000000D+00  E= 7.049060D-01
              MO Center=  1.3D-01, -3.2D-01, -2.5D-01, r^2= 4.6D+00
   Bfn.  Coefficient  Atom+Function         Bfn.  Coefficient  Atom+Function  
  ----- ------------  ---------------      ----- ------------  ---------------
    67      9.837442   3 C  s                36     -7.771579   2 C  s         
    43      3.691483   2 C  px               44     -3.521689   2 C  py        
    75     -2.881049   3 C  py               98     -2.281673   4 C  s         
     5      2.088168   1 O  s                12      1.692434   1 O  px        
   106      1.697051   4 C  py               13     -1.411721   1 O  py        
 
 Vector   50  Occ=0.000000D+00  E= 7.647293D-01
              MO Center=  6.3D-01, -7.1D-02, -3.7D-01, r^2= 4.1D+00
   Bfn.  Coefficient  Atom+Function         Bfn.  Coefficient  Atom+Function  
  ----- ------------  ---------------      ----- ------------  ---------------
    45      2.144505   2 C  pz                5     -1.719317   1 O  s         
    36      1.656649   2 C  s               127     -1.584716   5 H  s         
   105     -1.564888   4 C  px               43      1.418271   2 C  px        
   126     -1.363264   5 H  s               144      1.287776   8 H  s         
    66      1.031660   3 C  s                 4      0.944676   1 O  s         
 
 Vector   51  Occ=0.000000D+00  E= 7.942623D-01
              MO Center=  2.6D-01,  9.1D-02, -1.7D-01, r^2= 4.4D+00
   Bfn.  Coefficient  Atom+Function         Bfn.  Coefficient  Atom+Function  
  ----- ------------  ---------------      ----- ------------  ---------------
     5      4.186670   1 O  s                36     -2.801824   2 C  s         
    76     -2.594036   3 C  pz               45      1.765437   2 C  pz        
     4     -1.602090   1 O  s                43      1.417191   2 C  px        
   133      1.361964   6 H  s                12      1.350014   1 O  px        
    35     -1.020895   2 C  s                66     -0.958908   3 C  s         
 
 Vector   52  Occ=0.000000D+00  E= 8.327193D-01
              MO Center=  3.3D-01,  1.7D-01, -1.0D-02, r^2= 4.4D+00
   Bfn.  Coefficient  Atom+Function         Bfn.  Coefficient  Atom+Function  
  ----- ------------  ---------------      ----- ------------  ---------------
    36      6.570372   2 C  s                98     -4.088372   4 C  s         
     5     -3.806263   1 O  s                43     -2.585919   2 C  px        
   105      1.915035   4 C  px               35     -1.898509   2 C  s         
    45     -1.770844   2 C  pz               44      1.490465   2 C  py        
    66     -1.213335   3 C  s                97      1.083595   4 C  s         
 
 Vector   53  Occ=0.000000D+00  E= 8.519715D-01
              MO Center=  6.0D-01,  1.2D-01, -4.1D-01, r^2= 4.2D+00
   Bfn.  Coefficient  Atom+Function         Bfn.  Coefficient  Atom+Function  
  ----- ------------  ---------------      ----- ------------  ---------------
    98     -4.816981   4 C  s                36      4.775916   2 C  s         
    45     -4.602719   2 C  pz               76      1.991529   3 C  pz        
   127      1.800142   5 H  s               106     -1.619768   4 C  py        
    44      1.436084   2 C  py              105      1.439114   4 C  px        
     5     -1.317893   1 O  s               150     -1.218924   9 H  s         
 
 Vector   54  Occ=0.000000D+00  E= 8.727005D-01
              MO Center=  2.0D-01, -6.0D-02, -1.4D-01, r^2= 4.2D+00
   Bfn.  Coefficient  Atom+Function         Bfn.  Coefficient  Atom+Function  
  ----- ------------  ---------------      ----- ------------  ---------------
     5      4.536557   1 O  s                36     -1.746439   2 C  s         
     4     -1.524040   1 O  s               138      1.398008   7 H  s         
    76      1.358492   3 C  pz               12      1.184803   1 O  px        
    67     -1.177989   3 C  s                66     -1.170082   3 C  s         
    98     -1.064921   4 C  s                43      0.845938   2 C  px        
 
 Vector   55  Occ=0.000000D+00  E= 9.208262D-01
              MO Center=  5.0D-01,  3.2D-01, -4.6D-01, r^2= 4.5D+00
   Bfn.  Coefficient  Atom+Function         Bfn.  Coefficient  Atom+Function  
  ----- ------------  ---------------      ----- ------------  ---------------
    35      4.905237   2 C  s                36     -1.724212   2 C  s         
    67      1.480624   3 C  s               132     -1.322083   6 H  s         
    72      1.274795   3 C  py               66     -1.251759   3 C  s         
   156     -1.197819  10 H  s                41      1.156209   2 C  py        
    84      1.160047   3 C  d  0            116     -1.071425   4 C  d  1      
 
 Vector   56  Occ=0.000000D+00  E= 9.611539D-01
              MO Center=  4.4D-01,  3.2D-01, -5.1D-01, r^2= 4.7D+00
   Bfn.  Coefficient  Atom+Function         Bfn.  Coefficient  Atom+Function  
  ----- ------------  ---------------      ----- ------------  ---------------
    35      4.214303   2 C  s                67      2.394534   3 C  s         
   138     -2.384556   7 H  s                76     -1.786531   3 C  pz        
    42     -1.740580   2 C  pz               83     -1.674707   3 C  d -1      
   115     -1.442601   4 C  d  0             98     -1.406692   4 C  s         
   132      1.381830   6 H  s               107     -1.298249   4 C  pz        
 
 Vector   57  Occ=0.000000D+00  E= 9.913553D-01
              MO Center=  3.2D-01,  5.2D-01, -1.2D-01, r^2= 4.0D+00
   Bfn.  Coefficient  Atom+Function         Bfn.  Coefficient  Atom+Function  
  ----- ------------  ---------------      ----- ------------  ---------------
    36      7.222364   2 C  s                98     -4.745465   4 C  s         
    67     -3.759803   3 C  s                45     -3.706916   2 C  pz        
    43     -2.342705   2 C  px               44      2.020810   2 C  py        
   127      1.555026   5 H  s                35     -1.493318   2 C  s         
    66     -1.491972   3 C  s                75      1.404540   3 C  py        
 
 Vector   58  Occ=0.000000D+00  E= 1.012540D+00
              MO Center=  4.3D-01,  4.7D-01, -1.0D-01, r^2= 4.4D+00
   Bfn.  Coefficient  Atom+Function         Bfn.  Coefficient  Atom+Function  
  ----- ------------  ---------------      ----- ------------  ---------------
    36      5.585420   2 C  s                67     -4.543454   3 C  s         
    45     -2.274676   2 C  pz               44      1.847831   2 C  py        
    98     -1.795641   4 C  s               156     -1.524826  10 H  s         
   144      1.482826   8 H  s                43     -1.434586   2 C  px        
    74     -1.280213   3 C  px               76      1.284402   3 C  pz        
 
 Vector   59  Occ=0.000000D+00  E= 1.041713D+00
              MO Center=  6.8D-01, -1.4D-01, -4.4D-01, r^2= 4.2D+00
   Bfn.  Coefficient  Atom+Function         Bfn.  Coefficient  Atom+Function  
  ----- ------------  ---------------      ----- ------------  ---------------
    36      3.381245   2 C  s                35      2.603838   2 C  s         
    66     -2.504286   3 C  s               150      2.002129   9 H  s         
     5     -1.973374   1 O  s                67     -1.786625   3 C  s         
   144     -1.788853   8 H  s               117      1.695336   4 C  d  2      
    41      1.642525   2 C  py               44      1.570155   2 C  py        
 
 Vector   60  Occ=0.000000D+00  E= 1.078605D+00
              MO Center=  6.8D-01,  1.9D-03, -7.5D-02, r^2= 4.1D+00
   Bfn.  Coefficient  Atom+Function         Bfn.  Coefficient  Atom+Function  
  ----- ------------  ---------------      ----- ------------  ---------------
    98     -4.116965   4 C  s                66      3.964209   3 C  s         
    45     -3.745469   2 C  pz               97     -3.670582   4 C  s         
    36      3.449609   2 C  s                41     -2.531255   2 C  py        
   104     -2.499001   4 C  pz               42     -2.332614   2 C  pz        
    72     -2.326542   3 C  py               53      2.231943   2 C  d  0      
 
 Vector   61  Occ=0.000000D+00  E= 1.105885D+00
              MO Center=  3.6D-01,  6.8D-02,  6.6D-02, r^2= 3.8D+00
   Bfn.  Coefficient  Atom+Function         Bfn.  Coefficient  Atom+Function  
  ----- ------------  ---------------      ----- ------------  ---------------
    36      7.678976   2 C  s                67     -5.409418   3 C  s         
    98     -2.983229   4 C  s                66      2.132105   3 C  s         
   126     -1.989111   5 H  s                45     -1.968004   2 C  pz        
   132      1.692131   6 H  s                72     -1.590603   3 C  py        
    41     -1.471804   2 C  py               53      1.438169   2 C  d  0      
 
 Vector   62  Occ=0.000000D+00  E= 1.145337D+00
              MO Center=  6.2D-01,  8.9D-03, -2.8D-02, r^2= 3.5D+00
   Bfn.  Coefficient  Atom+Function         Bfn.  Coefficient  Atom+Function  
  ----- ------------  ---------------      ----- ------------  ---------------
    67      5.135948   3 C  s                36     -3.883687   2 C  s         
    44     -2.389963   2 C  py              126      1.795516   5 H  s         
    97     -1.779259   4 C  s                54      1.574467   2 C  d  1      
    43      1.563374   2 C  px               55      1.461430   2 C  d  2      
    75     -1.460496   3 C  py               42     -1.398638   2 C  pz        
 
 Vector   63  Occ=0.000000D+00  E= 1.215466D+00
              MO Center=  5.5D-01,  2.1D-01, -1.5D-01, r^2= 3.8D+00
   Bfn.  Coefficient  Atom+Function         Bfn.  Coefficient  Atom+Function  
  ----- ------------  ---------------      ----- ------------  ---------------
    36      6.648860   2 C  s                66     -5.069148   3 C  s         
    97     -3.299119   4 C  s                67     -3.250113   3 C  s         
    35      3.179002   2 C  s                72      1.960931   3 C  py        
    51     -1.773422   2 C  d -2             52      1.692685   2 C  d -1      
   138      1.664263   7 H  s                41      1.514695   2 C  py        
 
 Vector   64  Occ=0.000000D+00  E= 1.347529D+00
              MO Center=  3.5D-01,  5.4D-01,  2.2D-01, r^2= 3.6D+00
   Bfn.  Coefficient  Atom+Function         Bfn.  Coefficient  Atom+Function  
  ----- ------------  ---------------      ----- ------------  ---------------
    66      4.701209   3 C  s                35      3.875599   2 C  s         
    67     -3.074577   3 C  s                36     -2.683368   2 C  s         
    65     -2.405695   3 C  s               132     -2.029701   6 H  s         
    34     -1.444584   2 C  s               133      1.444707   6 H  s         
    72      1.349906   3 C  py              139      1.066203   7 H  s         
 
 Vector   65  Occ=0.000000D+00  E= 1.414332D+00
              MO Center=  1.5D-01,  5.1D-01, -3.7D-02, r^2= 3.3D+00
   Bfn.  Coefficient  Atom+Function         Bfn.  Coefficient  Atom+Function  
  ----- ------------  ---------------      ----- ------------  ---------------
    36      4.243894   2 C  s                35     -3.713871   2 C  s         
    66      3.712450   3 C  s                67     -3.725204   3 C  s         
    73     -2.311431   3 C  pz              138     -2.210404   7 H  s         
   139      2.180503   7 H  s               126      1.800895   5 H  s         
    76      1.689134   3 C  pz               34      1.533288   2 C  s         
 
 Vector   66  Occ=0.000000D+00  E= 1.433126D+00
              MO Center=  1.1D+00, -4.4D-01, -1.1D+00, r^2= 3.6D+00
   Bfn.  Coefficient  Atom+Function         Bfn.  Coefficient  Atom+Function  
  ----- ------------  ---------------      ----- ------------  ---------------
    98     10.049724   4 C  s                97     -7.569756   4 C  s         
    96      3.058378   4 C  s                36     -2.516703   2 C  s         
   145     -2.461168   8 H  s               151     -2.242007   9 H  s         
   157     -2.072573  10 H  s               144      1.774670   8 H  s         
   150      1.587686   9 H  s               104      1.427306   4 C  pz        
 
 Vector   67  Occ=0.000000D+00  E= 1.443771D+00
              MO Center=  3.5D-01,  2.0D-02, -8.6D-02, r^2= 4.3D+00
   Bfn.  Coefficient  Atom+Function         Bfn.  Coefficient  Atom+Function  
  ----- ------------  ---------------      ----- ------------  ---------------
    66      4.466133   3 C  s                98      3.858753   4 C  s         
    35     -3.175630   2 C  s                67     -3.070006   3 C  s         
    45      2.096187   2 C  pz              133      2.040001   6 H  s         
    97     -1.920745   4 C  s                76     -1.828080   3 C  pz        
   127     -1.689991   5 H  s                36      1.632470   2 C  s         
 
 Vector   68  Occ=0.000000D+00  E= 1.445371D+00
              MO Center=  3.6D-01, -2.1D-02, -2.2D-01, r^2= 3.1D+00
   Bfn.  Coefficient  Atom+Function         Bfn.  Coefficient  Atom+Function  
  ----- ------------  ---------------      ----- ------------  ---------------
    98      4.522942   4 C  s                36     -2.683707   2 C  s         
    97     -2.509925   4 C  s                 5      2.058008   1 O  s         
    45      1.755246   2 C  pz               35     -1.138693   2 C  s         
   127     -1.137614   5 H  s                96      1.064364   4 C  s         
    67      1.024316   3 C  s                44     -1.004657   2 C  py        
 
 Vector   69  Occ=0.000000D+00  E= 1.473140D+00
              MO Center=  9.3D-01, -2.3D-01, -9.5D-01, r^2= 3.4D+00
   Bfn.  Coefficient  Atom+Function         Bfn.  Coefficient  Atom+Function  
  ----- ------------  ---------------      ----- ------------  ---------------
    36      2.206761   2 C  s                66      1.668763   3 C  s         
    67     -1.431604   3 C  s               103      1.403194   4 C  py        
     5     -1.235661   1 O  s                98     -1.228261   4 C  s         
   156     -1.185114  10 H  s               150      1.016085   9 H  s         
    97      1.002387   4 C  s               106     -0.910891   4 C  py        
 
 Vector   70  Occ=0.000000D+00  E= 1.478891D+00
              MO Center=  9.3D-01, -4.1D-01, -1.0D+00, r^2= 3.4D+00
   Bfn.  Coefficient  Atom+Function         Bfn.  Coefficient  Atom+Function  
  ----- ------------  ---------------      ----- ------------  ---------------
    36      2.516913   2 C  s               156     -2.527302  10 H  s         
    66     -2.065236   3 C  s               102     -1.961104   4 C  px        
   157      1.946460  10 H  s               104     -1.702476   4 C  pz        
   126      1.595944   5 H  s               103      1.468290   4 C  py        
    35     -1.433871   2 C  s               144      1.262159   8 H  s         
 
 Vector   71  Occ=0.000000D+00  E= 1.511321D+00
              MO Center=  3.5D-01,  1.2D-01, -3.3D-01, r^2= 4.0D+00
   Bfn.  Coefficient  Atom+Function         Bfn.  Coefficient  Atom+Function  
  ----- ------------  ---------------      ----- ------------  ---------------
    98      2.489882   4 C  s               144      1.883419   8 H  s         
   102     -1.587709   4 C  px              103     -1.421586   4 C  py        
   145     -1.406914   8 H  s                45      1.240402   2 C  pz        
    97     -1.080753   4 C  s               150     -1.030064   9 H  s         
    66      0.810108   3 C  s               106      0.791669   4 C  py        
 
 Vector   72  Occ=0.000000D+00  E= 1.541973D+00
              MO Center=  3.5D-01,  4.6D-01, -2.1D-01, r^2= 4.6D+00
   Bfn.  Coefficient  Atom+Function         Bfn.  Coefficient  Atom+Function  
  ----- ------------  ---------------      ----- ------------  ---------------
    36      4.309333   2 C  s                35     -3.724881   2 C  s         
    98     -3.657490   4 C  s                97      3.194710   4 C  s         
    67     -2.367091   3 C  s                73      2.181122   3 C  pz        
   132     -1.752864   6 H  s               138      1.432650   7 H  s         
   133      1.416868   6 H  s               102     -1.312117   4 C  px        
 
 Vector   73  Occ=0.000000D+00  E= 1.577082D+00
              MO Center=  5.0D-01, -2.5D-02, -5.5D-02, r^2= 3.2D+00
   Bfn.  Coefficient  Atom+Function         Bfn.  Coefficient  Atom+Function  
  ----- ------------  ---------------      ----- ------------  ---------------
    35      3.386856   2 C  s                36     -2.858800   2 C  s         
    40     -2.084867   2 C  px               67      1.942421   3 C  s         
   126      1.862480   5 H  s                97     -1.832466   4 C  s         
    72      1.562362   3 C  py               42     -1.470401   2 C  pz        
    34     -1.420288   2 C  s                45      1.359749   2 C  pz        
 
 Vector   74  Occ=0.000000D+00  E= 1.597577D+00
              MO Center=  3.2D-01,  4.2D-01, -1.2D-01, r^2= 3.4D+00
   Bfn.  Coefficient  Atom+Function         Bfn.  Coefficient  Atom+Function  
  ----- ------------  ---------------      ----- ------------  ---------------
    36     -5.385174   2 C  s                35      5.229618   2 C  s         
    66     -5.199220   3 C  s                67      3.921061   3 C  s         
    41      3.729823   2 C  py               71     -2.584509   3 C  px        
    72      2.420332   3 C  py               40     -2.037117   2 C  px        
    98      1.921436   4 C  s                82      1.696993   3 C  d -2      
 
 Vector   75  Occ=0.000000D+00  E= 1.642348D+00
              MO Center=  4.9D-01,  1.6D-01, -7.1D-02, r^2= 3.7D+00
   Bfn.  Coefficient  Atom+Function         Bfn.  Coefficient  Atom+Function  
  ----- ------------  ---------------      ----- ------------  ---------------
    66      2.961061   3 C  s                98      1.800624   4 C  s         
    35      1.774711   2 C  s                 5     -1.694919   1 O  s         
    67     -1.554446   3 C  s                97     -1.500146   4 C  s         
   104     -1.198404   4 C  pz              144      1.146677   8 H  s         
    41     -1.128114   2 C  py              150     -1.113702   9 H  s         
 
 Vector   76  Occ=0.000000D+00  E= 1.693696D+00
              MO Center=  5.9D-01,  7.6D-02, -4.1D-01, r^2= 3.6D+00
   Bfn.  Coefficient  Atom+Function         Bfn.  Coefficient  Atom+Function  
  ----- ------------  ---------------      ----- ------------  ---------------
    97     -5.362649   4 C  s                35      5.142292   2 C  s         
   104     -2.720986   4 C  pz               42     -2.663957   2 C  pz        
   102      1.810266   4 C  px               66     -1.648148   3 C  s         
    40      1.565705   2 C  px               34     -1.519371   2 C  s         
    96      1.490907   4 C  s               132      1.095890   6 H  s         
 
 Vector   77  Occ=0.000000D+00  E= 1.700570D+00
              MO Center= -6.7D-02,  3.4D-01, -7.1D-02, r^2= 3.7D+00
   Bfn.  Coefficient  Atom+Function         Bfn.  Coefficient  Atom+Function  
  ----- ------------  ---------------      ----- ------------  ---------------
     5      3.906924   1 O  s                72      3.338183   3 C  py        
    36     -2.365678   2 C  s                97      2.224876   4 C  s         
   138     -1.977635   7 H  s                66     -1.837202   3 C  s         
    42      1.685740   2 C  pz               12      1.499558   1 O  px        
   104      1.484738   4 C  pz               41      1.460136   2 C  py        
 
 Vector   78  Occ=0.000000D+00  E= 1.791096D+00
              MO Center=  4.1D-01,  2.5D-01,  2.2D-02, r^2= 3.5D+00
   Bfn.  Coefficient  Atom+Function         Bfn.  Coefficient  Atom+Function  
  ----- ------------  ---------------      ----- ------------  ---------------
    35      2.954918   2 C  s                97     -2.706750   4 C  s         
    36      1.665022   2 C  s                45     -1.265332   2 C  pz        
   104     -1.111258   4 C  pz               42     -1.043951   2 C  pz        
    67     -1.024086   3 C  s                72      0.937360   3 C  py        
   102      0.926096   4 C  px              103     -0.904508   4 C  py        
 
 Vector   79  Occ=0.000000D+00  E= 1.815417D+00
              MO Center= -6.4D-01,  1.6D-01,  1.9D-01, r^2= 2.6D+00
   Bfn.  Coefficient  Atom+Function         Bfn.  Coefficient  Atom+Function  
  ----- ------------  ---------------      ----- ------------  ---------------
    35      4.042329   2 C  s                 5     -3.345729   1 O  s         
    40     -2.441034   2 C  px               41      2.063071   2 C  py        
    72      1.933859   3 C  py               66     -1.718749   3 C  s         
    71     -1.643814   3 C  px               12     -1.399061   1 O  px        
   132     -1.028686   6 H  s               138     -1.028229   7 H  s         
 
 Vector   80  Occ=0.000000D+00  E= 1.841223D+00
              MO Center=  4.1D-02,  3.2D-01, -4.0D-02, r^2= 3.6D+00
   Bfn.  Coefficient  Atom+Function         Bfn.  Coefficient  Atom+Function  
  ----- ------------  ---------------      ----- ------------  ---------------
    35      1.299025   2 C  s                36     -1.304171   2 C  s         
   156     -0.929262  10 H  s                66      0.851345   3 C  s         
    67      0.801004   3 C  s                41     -0.712459   2 C  py        
   104     -0.706993   4 C  pz               71     -0.658439   3 C  px        
   157      0.636890  10 H  s               126     -0.605796   5 H  s         
 
 Vector   81  Occ=0.000000D+00  E= 1.868250D+00
              MO Center=  5.6D-01,  1.6D-01, -4.8D-01, r^2= 4.0D+00
   Bfn.  Coefficient  Atom+Function         Bfn.  Coefficient  Atom+Function  
  ----- ------------  ---------------      ----- ------------  ---------------
    35      6.775266   2 C  s                66     -4.396401   3 C  s         
    72      3.520349   3 C  py               97     -3.387314   4 C  s         
    36      2.099179   2 C  s               104     -1.917009   4 C  pz        
    34     -1.663968   2 C  s                41      1.557642   2 C  py        
    67     -1.478980   3 C  s                45     -1.453970   2 C  pz        
 
 Vector   82  Occ=0.000000D+00  E= 1.921156D+00
              MO Center=  3.4D-01, -1.7D-01, -3.1D-01, r^2= 3.2D+00
   Bfn.  Coefficient  Atom+Function         Bfn.  Coefficient  Atom+Function  
  ----- ------------  ---------------      ----- ------------  ---------------
    98     -1.352034   4 C  s                36      1.237162   2 C  s         
   103     -1.237086   4 C  py               45     -1.134312   2 C  pz        
    97     -1.121744   4 C  s                35      0.868290   2 C  s         
   150     -0.787370   9 H  s                42     -0.770282   2 C  pz        
    66     -0.727989   3 C  s                40      0.700703   2 C  px        
 
 Vector   83  Occ=0.000000D+00  E= 1.990269D+00
              MO Center=  6.5D-01, -1.2D-01, -1.7D-01, r^2= 3.3D+00
   Bfn.  Coefficient  Atom+Function         Bfn.  Coefficient  Atom+Function  
  ----- ------------  ---------------      ----- ------------  ---------------
    35      2.630098   2 C  s                66     -2.422178   3 C  s         
    40     -2.306326   2 C  px               98      2.260381   4 C  s         
    72      1.795487   3 C  py               67     -1.775599   3 C  s         
    43     -1.619458   2 C  px               41      1.567563   2 C  py        
    71     -1.341670   3 C  px              126      1.278125   5 H  s         
 
 Vector   84  Occ=0.000000D+00  E= 1.995129D+00
              MO Center=  7.9D-01, -2.0D-01, -9.2D-01, r^2= 3.4D+00
   Bfn.  Coefficient  Atom+Function         Bfn.  Coefficient  Atom+Function  
  ----- ------------  ---------------      ----- ------------  ---------------
    98     -4.717438   4 C  s                36      4.680531   2 C  s         
    35     -2.810656   2 C  s                45     -2.073650   2 C  pz        
   107     -1.288436   4 C  pz               66      1.227923   3 C  s         
   156      1.231818  10 H  s                67     -1.193989   3 C  s         
   104      1.042821   4 C  pz               34      1.035955   2 C  s         
 
 Vector   85  Occ=0.000000D+00  E= 2.088199D+00
              MO Center=  1.7D-03,  1.4D-01, -5.1D-02, r^2= 3.6D+00
   Bfn.  Coefficient  Atom+Function         Bfn.  Coefficient  Atom+Function  
  ----- ------------  ---------------      ----- ------------  ---------------
    98      2.246924   4 C  s                36     -1.935418   2 C  s         
   156     -0.770798  10 H  s               138      0.732552   7 H  s         
    14      0.649280   1 O  pz              150     -0.553744   9 H  s         
   144     -0.547486   8 H  s                45      0.528911   2 C  pz        
    40      0.499558   2 C  px              105     -0.497924   4 C  px        
 
 Vector   86  Occ=0.000000D+00  E= 2.097062D+00
              MO Center= -3.7D-01,  6.9D-02,  6.7D-02, r^2= 2.9D+00
   Bfn.  Coefficient  Atom+Function         Bfn.  Coefficient  Atom+Function  
  ----- ------------  ---------------      ----- ------------  ---------------
    36      5.918297   2 C  s                67     -5.610909   3 C  s         
    35     -3.424009   2 C  s                66      3.401800   3 C  s         
    41     -3.127874   2 C  py               71      2.806343   3 C  px        
    13      1.876895   1 O  py               82     -1.494668   3 C  d -2      
    55      1.344144   2 C  d  2             75      1.326294   3 C  py        
 
 Vector   87  Occ=0.000000D+00  E= 2.164832D+00
              MO Center=  4.7D-01, -1.5D-02, -4.8D-01, r^2= 3.3D+00
   Bfn.  Coefficient  Atom+Function         Bfn.  Coefficient  Atom+Function  
  ----- ------------  ---------------      ----- ------------  ---------------
    98      2.191940   4 C  s                67     -1.591135   3 C  s         
    35     -1.227730   2 C  s                73      1.019691   3 C  pz        
    40      0.894070   2 C  px              156     -0.870003  10 H  s         
    44      0.776762   2 C  py               45      0.763475   2 C  pz        
    43     -0.716570   2 C  px               42     -0.703220   2 C  pz        
 
 Vector   88  Occ=0.000000D+00  E= 2.194263D+00
              MO Center=  4.3D-01,  1.6D-01, -2.8D-01, r^2= 3.6D+00
   Bfn.  Coefficient  Atom+Function         Bfn.  Coefficient  Atom+Function  
  ----- ------------  ---------------      ----- ------------  ---------------
    98      2.016514   4 C  s                36     -1.055263   2 C  s         
    45      0.920255   2 C  pz               76     -0.815097   3 C  pz        
    42     -0.804226   2 C  pz              132      0.788979   6 H  s         
   103     -0.746209   4 C  py               97     -0.706514   4 C  s         
   117     -0.698001   4 C  d  2            138     -0.602749   7 H  s         
 
 Vector   89  Occ=0.000000D+00  E= 2.229153D+00
              MO Center=  5.8D-01,  4.1D-02, -1.8D-02, r^2= 3.5D+00
   Bfn.  Coefficient  Atom+Function         Bfn.  Coefficient  Atom+Function  
  ----- ------------  ---------------      ----- ------------  ---------------
    36      3.578570   2 C  s                67     -1.804179   3 C  s         
    98     -1.811134   4 C  s                 5     -1.135355   1 O  s         
    42     -0.960472   2 C  pz               45     -0.948087   2 C  pz        
    35     -0.871869   2 C  s                72     -0.858543   3 C  py        
    43     -0.767248   2 C  px               76      0.757270   3 C  pz        
 
 Vector   90  Occ=0.000000D+00  E= 2.242613D+00
              MO Center=  8.3D-01, -2.7D-01, -8.7D-01, r^2= 3.5D+00
   Bfn.  Coefficient  Atom+Function         Bfn.  Coefficient  Atom+Function  
  ----- ------------  ---------------      ----- ------------  ---------------
   150      1.253396   9 H  s                36      0.975502   2 C  s         
   144     -0.944803   8 H  s                67     -0.768064   3 C  s         
    66     -0.740399   3 C  s               117      0.712989   4 C  d  2      
    72      0.653701   3 C  py              149     -0.532221   9 H  s         
    83      0.514127   3 C  d -1             98     -0.482710   4 C  s         
 
 Vector   91  Occ=0.000000D+00  E= 2.265014D+00
              MO Center=  9.4D-01, -2.4D-01, -1.1D+00, r^2= 3.0D+00
   Bfn.  Coefficient  Atom+Function         Bfn.  Coefficient  Atom+Function  
  ----- ------------  ---------------      ----- ------------  ---------------
    66      2.065445   3 C  s                36      1.787436   2 C  s         
    41     -1.380131   2 C  py               67     -1.249418   3 C  s         
    98     -1.203046   4 C  s                35     -1.118837   2 C  s         
   156      0.947014  10 H  s                72     -0.850173   3 C  py        
    71      0.823022   3 C  px              126     -0.773207   5 H  s         
 
 Vector   92  Occ=0.000000D+00  E= 2.283820D+00
              MO Center=  5.5D-01,  1.4D-01, -1.9D-01, r^2= 3.6D+00
   Bfn.  Coefficient  Atom+Function         Bfn.  Coefficient  Atom+Function  
  ----- ------------  ---------------      ----- ------------  ---------------
    98      3.587697   4 C  s                66      2.654868   3 C  s         
[...]
    21     -0.867212   1 O  d -1             42     -0.769570   2 C  pz        
    45     -0.693824   2 C  pz               97     -0.686942   4 C  s         
     5     -0.542156   1 O  s                98     -0.506067   4 C  s         
    83     -0.500121   3 C  d -1            102      0.485947   4 C  px        
 
 Vector  154  Occ=0.000000D+00  E= 6.674605D+00
              MO Center= -8.7D-01, -1.8D-01,  2.0D-01, r^2= 5.7D-01
   Bfn.  Coefficient  Atom+Function         Bfn.  Coefficient  Atom+Function  
  ----- ------------  ---------------      ----- ------------  ---------------
    18      1.060314   1 O  d  1             23     -1.031321   1 O  d  1      
    97     -0.861409   4 C  s                42     -0.768509   2 C  pz        
    35      0.743985   2 C  s               102      0.632667   4 C  px        
    54     -0.544746   2 C  d  1             14      0.405985   1 O  pz        
    16     -0.399701   1 O  d -1             21      0.388139   1 O  d -1      
 
 Vector  155  Occ=0.000000D+00  E= 6.841923D+00
              MO Center= -8.8D-01, -1.9D-01,  2.0D-01, r^2= 5.9D-01
   Bfn.  Coefficient  Atom+Function         Bfn.  Coefficient  Atom+Function  
  ----- ------------  ---------------      ----- ------------  ---------------
     5      2.115228   1 O  s                40      1.755649   2 C  px        
     9      1.359759   1 O  px               97     -1.270045   4 C  s         
     4      1.204691   1 O  s                20      1.048227   1 O  d -2      
    42     -0.965114   2 C  pz               12      0.849390   1 O  px        
    35     -0.850968   2 C  s                15     -0.833182   1 O  d -2      
 
 Vector  156  Occ=0.000000D+00  E= 7.055578D+00
              MO Center= -8.9D-01, -1.9D-01,  2.0D-01, r^2= 6.4D-01
   Bfn.  Coefficient  Atom+Function         Bfn.  Coefficient  Atom+Function  
  ----- ------------  ---------------      ----- ------------  ---------------
    66     -3.204771   3 C  s                35      3.073748   2 C  s         
    40     -2.738235   2 C  px               72      2.710227   3 C  py        
    24     -1.580227   1 O  d  2             36      1.419783   2 C  s         
    10      1.281494   1 O  py               67     -1.264265   3 C  s         
    19      1.017379   1 O  d  2             13      0.860941   1 O  py        
 
 Vector  157  Occ=0.000000D+00  E= 2.193838D+01
              MO Center=  9.9D-02,  7.5D-01,  2.6D-02, r^2= 1.3D+00
   Bfn.  Coefficient  Atom+Function         Bfn.  Coefficient  Atom+Function  
  ----- ------------  ---------------      ----- ------------  ---------------
    64      1.566011   3 C  s                65     -1.334265   3 C  s         
    67     -1.262099   3 C  s                63     -1.234336   3 C  s         
    98      1.100695   4 C  s                95     -0.788990   4 C  s         
    96      0.650929   4 C  s                94      0.624147   4 C  s         
    35      0.499812   2 C  s                40     -0.480221   2 C  px        
 
 Vector  158  Occ=0.000000D+00  E= 2.198106D+01
              MO Center=  8.8D-01, -2.4D-01, -7.1D-01, r^2= 1.2D+00
   Bfn.  Coefficient  Atom+Function         Bfn.  Coefficient  Atom+Function  
  ----- ------------  ---------------      ----- ------------  ---------------
    95      1.416584   4 C  s                96     -1.308338   4 C  s         
    98     -1.129793   4 C  s                94     -1.114526   4 C  s         
    34     -0.962196   2 C  s                36     -0.909036   2 C  s         
    33      0.877235   2 C  s                32     -0.685440   2 C  s         
    65     -0.658865   3 C  s                64      0.612281   3 C  s         
 
 Vector  159  Occ=0.000000D+00  E= 2.209644D+01
              MO Center=  6.0D-01, -1.0D-01, -6.4D-02, r^2= 7.1D-01
   Bfn.  Coefficient  Atom+Function         Bfn.  Coefficient  Atom+Function  
  ----- ------------  ---------------      ----- ------------  ---------------
    36      2.182577   2 C  s                33     -1.537369   2 C  s         
    34      1.525450   2 C  s                35     -1.355400   2 C  s         
    98     -1.270779   4 C  s                32      1.204240   2 C  s         
    67     -1.179197   3 C  s                97      0.713053   4 C  s         
    95      0.705523   4 C  s                96     -0.641869   4 C  s         
 
 Vector  160  Occ=0.000000D+00  E= 4.341289D+01
              MO Center= -8.8D-01, -1.8D-01,  2.1D-01, r^2= 1.2D-01
   Bfn.  Coefficient  Atom+Function         Bfn.  Coefficient  Atom+Function  
  ----- ------------  ---------------      ----- ------------  ---------------
     4      2.501490   1 O  s                 3     -1.873066   1 O  s         
     2      1.731439   1 O  s                 1     -1.395827   1 O  s         
     5     -0.885205   1 O  s                36      0.851736   2 C  s         
     9      0.558357   1 O  px               66     -0.517096   3 C  s         
    40      0.458063   2 C  px               72      0.457017   3 C  py        
 

 center of mass
 --------------
 x =   0.30619356 y =   0.09486507 z =  -0.27792454

 moments of inertia (a.u.)
 ------------------
         200.360930235562          45.596695703780          83.795506190764
          45.596695703780         248.346507637146         -52.826089336835
          83.795506190764         -52.826089336835         239.049879547554
 
     Multipole analysis of the density
     ---------------------------------
 
     L   x y z        total         alpha         beta         nuclear
     -   - - -        -----         -----         ----         -------
     0   0 0 0     -0.000000    -16.000000    -16.000000     32.000000
 
     1   1 0 0      0.695285     -6.235843     -6.235843     13.166972
     1   0 1 0      0.329453     -1.629117     -1.629117      3.587688
     1   0 0 1     -0.056082      5.319858      5.319858    -10.695798
 
     2   2 0 0    -20.033846    -54.409279    -54.409279     88.784712
     2   1 1 0     -1.105248     13.868349     13.868349    -28.841947
     2   1 0 1      0.151629     26.505356     26.505356    -52.859084
     2   0 2 0    -17.839100    -40.480177    -40.480177     63.121254
     2   0 1 1      0.264609    -15.451778    -15.451778     31.168166
     2   0 0 2    -18.186808    -45.828402    -45.828402     73.469997
 
 *** CALLING NEW AORESP DRIVER FOR CLOSED AND OPEN SHELLS ***
 Entering AOResponse driver routine


--------------------------------------------------------------------------------

          ****************
          *** RESPONSE ***
          ****************

 Response module for NWChem and dynamic CPKS solver
 developed by J. Autschbach and coworkers, SUNY Buffalo
 The methodology used in this program is described in 
 ChemPhysChem 12 (2011), 3224-3235 (main reference)
 J. Chem. Phys. 123 (2005), 114103
 J. Chem. Phys. 122 (2005), 224115
 J. Chem. Phys. 122 (2005), 074105
 Comp. Lett. 3 (2007), 131-150 (contact JA for a copy)
 Please cite this work in publications based on results
 obtained with this code. Thank you!

 For extension of response module to open shell
 calculations please acknowledge:
 F. Aquino, Northwestern University, Schatz Rsrch Group
 The update to the methodology is described in
 J. Phys. Chem. A 118 (2014) 517-525



          -----------------------------------------------
          Solving response equations for perturbing field
          -----------------------------------------------

 number of frequencies:     1
 frequency in a.u.:  0.9319600E-01
 Perturbing field: electric
 Using GIAO formalism for OptRot
 Adding quadrupole terms to OptRot
 to create an origin in dependent tensor.
 Using El. Dipole Length Gauge
 
 Applying DAMPING constant of  0.003700 a.u.
 
 Setting up CPKS
 with frequency omega =      0.09319600 a.u.
 and a damping of            0.00370000 a.u.

 
                            NWChem Dynamic CPHF Module
                            --------------------------
 
 
    scftype = RHF 
    nclosed =   16
      nopen =    0
  variables =     9216
  num. vecs =        3
  tolerance =   1.0D-07
  max. iter =  100

 SCF residual:   4.818964726215354E-006


Iterative solution of linear equations
  No. of variables     4608
  No. of equations        3
  Maximum subspace       99
       Convergence  1.0D-07
        Start time     61.4


   iter   nsub   residual    time 
   ----  ------  --------  --------- 
 dft_CPHF2_read: failed to open
 ./methyloxirane_blyp-def2-tzvp_488.9_08.inp.aoresp_fiao_f1
     1      3    3.92D+00      90.4
     2      6    2.60D+00     119.6
     3      9    2.47D-01     148.9
     4     12    6.18D-02     178.1
     5     15    1.05D-02     207.4
     6     18    1.35D-03     236.7
     7     21    1.49D-04     266.0
     8     24    1.40D-05     295.5
     9     27    1.39D-06     324.9
    10     30    4.96D-07     354.2
    11     33    1.78D-08     383.6

 Calculating some arrays needed for GIAO optical rotation

    0 giaofock schwarz done =      93.62%
    0 giaofock schwarz done =      93.62%
 aor_r1_tensor_giao: roadata output requested
 dip-quad polarizability Re:

              1        2        3        4        5        6      
    1   77.5431  -6.2572 -27.1220  -4.3686   0.9506   8.9233
    2  -11.9483  25.7821   3.4957  23.8895 -22.1114   3.8246
    3   -6.0934   0.9993  39.4208  -0.7502  13.9884 -41.0212
 traceless dip-quad polarizability:

              1        2        3      
    1   75.2657  -9.3859 -40.6831
    2   -9.3859 -47.6019   1.4259
    3  -40.6831   1.4259 -27.6639

              1        2        3      
    1  -25.8054  38.6732   5.2435
    2   38.6732  27.9514 -33.1671
    3    5.2435 -33.1671  -2.1460

              1        2        3      
    1   14.7923   1.4990  59.1312
    2    1.4990  22.8071  20.9827
    3   59.1312  20.9827 -37.5994

 roa begin

 alpha real:
 XX       0.4106851784946E+02
 XY      -0.5172780960964E+01
 XZ      -0.3032078120525E+01
 YX      -0.5172780972296E+01
 YY       0.4403311690443E+02
 YZ       0.3205856567485E+01
 ZX      -0.3032078123011E+01
 ZY       0.3205856573690E+01
 ZZ       0.4152746319776E+02

 alpha im:
 XX       0.1115793949589E+00
 XY      -0.2990587851083E-01
 XZ      -0.1110469511510E-01
 YX      -0.2990587429877E-01
 YY       0.1290112662164E+00
 YZ       0.1832559386446E-01
 ZX      -0.1110469105116E-01
 ZY       0.1832559383318E-01
 ZZ       0.1229523385623E+00

 beta real:
 XX      -0.1276187613605E+00
 XY       0.9444464961778E+00
 XZ       0.1997111371860E+00
 YX      -0.8817787625385E+00
 YY       0.1557839914008E+00
 YZ      -0.1542682002243E+01
 ZX      -0.4866349709488E+00
 ZY       0.1886791924552E+01
 ZZ      -0.2889638670621E-01

 G-prime = -omega beta(real):
 XX      -0.1276187613605E+00
 XY       0.9444464961778E+00
 XZ       0.1997111371860E+00
 YX      -0.8817787625385E+00
 YY       0.1557839914008E+00
 YZ      -0.1542682002243E+01
 ZX      -0.4866349709488E+00
 ZY       0.1886791924552E+01
 ZZ      -0.2889638670621E-01

 beta im:
 XX      -0.5682075699103E-02
 XY       0.1354711285685E-01
 XZ       0.2747069249557E-02
 YX      -0.7387313553545E-02
 YY       0.5137791204001E-02
 YZ      -0.2330933685123E-01
 ZX      -0.1366124265020E-01
 ZY       0.4059970401583E-01
 ZZ      -0.3094680143939E-04

 G-prime = -omega beta(imag):
 XX      -0.5682075699103E-02
 XY       0.1354711285685E-01
 XZ       0.2747069249557E-02
 YX      -0.7387313553545E-02
 YY       0.5137791204001E-02
 YZ      -0.2330933685123E-01
 ZX      -0.1366124265020E-01
 ZY       0.4059970401583E-01
 ZZ      -0.3094680143939E-04

 dipole-quadrupole real (Cartesian):
 XXX      0.7754308365401E+02
 XXY     -0.6257234202588E+01
 XXZ     -0.2712204504134E+02
 XYY     -0.4368649807322E+01
 XYZ      0.9505823010174E+00
 XZZ      0.8923325369048E+01
 YXX     -0.1194832738118E+02
 YXY      0.2578210950039E+02
 YXZ      0.3495650616355E+01
 YYY      0.2388952869328E+02
 YYZ     -0.2211139241609E+02
 YZZ      0.3824597120006E+01
 ZXX     -0.6093377166937E+01
 ZXY      0.9993486557822E+00
 ZXZ      0.3942077027478E+02
 ZYY     -0.7502164096678E+00
 ZYZ      0.1398843454434E+02
 ZZZ     -0.4102119572360E+02

 dipole-quadrupole imag (Cartesian):
 XXX      0.2730089899250E+00
 XXY     -0.3482640924359E-01
 XXZ     -0.7498768835425E-01
 XYY     -0.2889556352160E-01
 XYZ      0.1263734265751E-02
 XZZ      0.6029858713507E-01
 YXX     -0.5752672069233E-01
 YXY      0.6240056503423E-01
 YXZ      0.2005527768087E-01
 YYY      0.9568187319607E-01
 YYZ     -0.6265244206893E-01
 YZZ      0.8661963949838E-02
 ZXX     -0.3154104996143E-01
 ZXY     -0.5334485905436E-03
 ZXZ      0.1464333268141E+00
 ZYY      0.2430622667421E-02
 ZYZ      0.6704455090762E-01
 ZZZ     -0.9483419580446E-01

 dipole-quadrupole (traceless):
 XXX      0.7526574587314E+02
 XXY     -0.9385851303882E+01
 XXZ     -0.4068306756202E+02
 XYY     -0.4760185431885E+02
 XYZ      0.1425873451526E+01
 XZZ     -0.2766389155429E+02
 YXX     -0.2580539028782E+02
 YXY      0.3867316425058E+02
 YXZ      0.5243475924533E+01
 YYY      0.2795139382387E+02
 YYZ     -0.3316708862413E+02
 YZZ     -0.2146003536047E+01
 ZXX      0.1479232889970E+02
 ZXY      0.1499022983673E+01
 ZXZ      0.5913115541217E+02
 ZYY      0.2280707003560E+02
 ZYZ      0.2098265181651E+02
 ZZZ     -0.3759939893530E+02

 roa end


 Electric Dipole Response Matrix (nonzero elements):

              1        2        3      
    1   41.0685  -5.1728  -3.0321
    2   -5.1728  44.0331   3.2059
    3   -3.0321   3.2059  41.5275
 
 Imaginary part:

              1        2        3      
    1    0.1116  -0.0299  -0.0111
    2   -0.0299   0.1290   0.0183
    3   -0.0111   0.0183   0.1230

 ------------------------------------------
 average:        42.20970 + I       0.12118


 DFT Linear Response polarizability / au 
 Frequency  =       0.0931960 / au
 Wavelength =     488.8981609 / nm
              X              Y              Z
 -----------------------------------------------
 X      41.0685178     -5.1727810     -3.0320781
 Y      -5.1727810     44.0331169      3.2058566
 Z      -3.0320781      3.2058566     41.5274632
 -----------------------------------------------
 Eigenvalues =      37.0794595     50.1632748     39.3863637
 Isotropic   =      42.2096993
 Anisotropic =       9.8767377
 -----------------------------------------------
 *************************

 DFT Linear Response IMAG polarizability / au 
 Frequency  =       0.0931960 / au
 Wavelength =     488.8981609 / nm
              X              Y              Z
 -----------------------------------------------
 X       0.1115794     -0.0299059     -0.0111047
 Y      -0.0299059      0.1290113      0.0183256
 Z      -0.0111047      0.0183256      0.1229523
 -----------------------------------------------
 Eigenvalues =       0.0889779      0.1628568      0.1117083
 Isotropic   =       0.1211810
 Anisotropic =       0.0535131
 -----------------------------------------------
 *************************

 Magnetic Dipole Response Matrix (nonzero elements):
 Optical rotation tensor Beta
 (Buckingham-Dunn version including dipole-quadrupole terms)

              1        2        3      
    1    2.6175  -0.4193   0.4212
    2   -0.4193  -1.6472  -1.7595
    3    0.4212  -1.7595  -0.9625
 
 Imaginary part:

              1        2        3      
    1    0.0610  -0.1454  -0.0295
    2    0.0793  -0.0551   0.2501
    3    0.1466  -0.4356   0.0003

 ------------------------------------------
 average:         0.00262 + I       0.00206

 Principal components and PAS (Real part)
                 -3.09787
                  2.77135
                  0.33437
 ------------------------
 average:         0.00262

              1        2        3      
    1    0.0099   0.9680  -0.2508
    2    0.7727  -0.1666  -0.6125
    3    0.6347   0.1877   0.7496

 Chiral response tensor (Real part):

              1        2        3      
    1   -1.3048   0.2097  -0.2106
    2    0.2097   0.8275   0.8797
    3   -0.2106   0.8797   0.4852
 
 Principal components and PAS (Real part)
                  1.55286
                 -1.38175
                 -0.16326
 ------------------------
 average:         0.00262

              1        2        3      
    1    0.0099   0.9680  -0.2508
    2    0.7727  -0.1666  -0.6125
    3    0.6347   0.1877   0.7496
 Exiting AOResponse driver routine

 Task  times  cpu:      372.8s     wall:      384.3s
 
 
                                NWChem Input Module
                                -------------------
 
 
 Summary of allocated global arrays
-----------------------------------
  No active global arrays



                         GA Statistics for process    0
                         ------------------------------

       create   destroy   get      put      acc     scatter   gather  read&inc
calls: 3294     3294     7.74e+06 3.14e+06 7.88e+05 2694        0     1271     
number of processes/call 1.01e+00 1.03e+00 1.44e+00 0.00e+00 0.00e+00
bytes total:             2.01e+09 1.26e+08 1.88e+09 1.84e+02 0.00e+00 1.02e+04
bytes remote:            9.05e+08 3.29e+07 1.12e+09 0.00e+00 0.00e+00 0.00e+00
Max memory consumed for GA by this process: 11242192 bytes
 
MA_summarize_allocated_blocks: starting scan ...
MA_summarize_allocated_blocks: scan completed: 0 heap blocks, 0 stack blocks
MA usage statistics:

	allocation statistics:
					      heap	     stack
					      ----	     -----
	current number of blocks	         0	         0
	maximum number of blocks	        24	        52
	current total bytes		         0	         0
	maximum total bytes		   7519824	  48882760
	maximum total K-bytes		      7520	     48883
	maximum total M-bytes		         8	        49
 
 
                                     CITATION
                                     --------
                Please cite the following reference when publishing
                           results obtained with NWChem:
 
                 M. Valiev, E.J. Bylaska, N. Govind, K. Kowalski,
              T.P. Straatsma, H.J.J. van Dam, D. Wang, J. Nieplocha,
                        E. Apra, T.L. Windus, W.A. de Jong
                 "NWChem: a comprehensive and scalable open-source
                  solution for large scale molecular simulations"
                      Comput. Phys. Commun. 181, 1477 (2010)
                           doi:10.1016/j.cpc.2010.04.018
 
                                      AUTHORS
                                      -------
          E. Apra, E. J. Bylaska, W. A. de Jong, N. Govind, K. Kowalski,
       T. P. Straatsma, M. Valiev, H. J. J. van Dam, D. Wang, T. L. Windus,
        J. Hammond, J. Autschbach, K. Bhaskaran-Nair, J. Brabec, K. Lopata,
    S. A. Fischer, S. Krishnamoorthy, M. Jacquelin, W. Ma, M. Klemm, O. Villa,
      Y. Chen, V. Anisimov, F. Aquino, S. Hirata, M. T. Hackler, V. Konjkov,
            D. Mejia-Rodriguez, T. Risthaus, M. Malagoli, A. Marenich,
   A. Otero-de-la-Roza, J. Mullin, P. Nichols, R. Peverati, J. Pittner, Y. Zhao,
        P.-D. Fan, A. Fonari, M. J. Williamson, R. J. Harrison, J. R. Rehr,
      M. Dupuis, D. Silverstein, D. M. A. Smith, J. Nieplocha, V. Tipparaju,
    M. Krishnan, B. E. Van Kuiken, A. Vazquez-Mayagoitia, L. Jensen, M. Swart,
      Q. Wu, T. Van Voorhis, A. A. Auer, M. Nooijen, L. D. Crosby, E. Brown,
      G. Cisneros, G. I. Fann, H. Fruchtl, J. Garza, K. Hirao, R. A. Kendall,
      J. A. Nichols, K. Tsemekhman, K. Wolinski, J. Anchell, D. E. Bernholdt,
      P. Borowski, T. Clark, D. Clerc, H. Dachsel, M. J. O. Deegan, K. Dyall,
    D. Elwood, E. Glendening, M. Gutowski, A. C. Hess, J. Jaffe, B. G. Johnson,
     J. Ju, R. Kobayashi, R. Kutteh, Z. Lin, R. Littlefield, X. Long, B. Meng,
      T. Nakajima, S. Niu, L. Pollack, M. Rosing, K. Glaesemann, G. Sandrone,
      M. Stave, H. Taylor, G. Thomas, J. H. van Lenthe, A. T. Wong, Z. Zhang.

 Total times  cpu:      420.9s     wall:      433.0s
