 argument  1 = methyloxirane_blyp-def2-tzvp_488.9_17.inp
 


============================== echo of input deck ==============================
echo
start methyloxirane_blyp-def2-tzvp_488.9_17.inp
title "methyloxirane roa calculations at 488.9 nm, input generated in va  with delta_type=2"
charge 0



geometry units angstrom nocenter noautoz noautosym nucleus point;symmetry c1
 O -0.878941 -0.180116  0.205290
 C  0.573093 -0.156989  0.122754
 C -0.185476  1.088280  0.340061
 C  1.184346 -0.520451 -1.212440
 H  1.060932 -0.605120  0.995373
 H -0.227838  1.535124  1.336600
 H -0.325168  1.780024 -0.495065
 H  2.244972 -0.229828 -1.249535
 H  1.161373 -1.608488 -1.365040
 H  0.649613 -0.013813 -2.024792
end

basis spherical
* library def2-TZVP
end

 set prop:newaoresp 1
 set aor:roadata T
 set cphf:maxsub 100
 set cphf:acc 1.0d-10
 set cphf:maxiter 100

property
    response 1   0.093196
    bdtensor
    convergence 1e-7
    damping 0.0037
    giao
end

dft
 direct
 mult 1
 xc becke88 lyp
 iterations 250
 tolerances tight
 grid xfine
 convergence nolevelshifting
 convergence energy 1e-8
 convergence gradient 1e-7


end

task dft gradient
task dft property
================================================================================


                                         
                                         
 
 
              Northwest Computational Chemistry Package (NWChem) 6.8
              ------------------------------------------------------
 
 
                    Environmental Molecular Sciences Laboratory
                       Pacific Northwest National Laboratory
                                Richland, WA 99352
 
                              Copyright (c) 1994-2017
                       Pacific Northwest National Laboratory
                            Battelle Memorial Institute
 
             NWChem is an open-source computational chemistry package
                        distributed under the terms of the
                      Educational Community License (ECL) 2.0
             A copy of the license is included with this distribution
                              in the LICENSE.TXT file
 
                                  ACKNOWLEDGMENT
                                  --------------

            This software and its documentation were developed at the
            EMSL at Pacific Northwest National Laboratory, a multiprogram
            national laboratory, operated for the U.S. Department of Energy
            by Battelle under Contract Number DE-AC05-76RL01830. Support
            for this work was provided by the Department of Energy Office
            of Biological and Environmental Research, Office of Basic
            Energy Sciences, and the Office of Advanced Scientific Computing.


           Job information
           ---------------

    hostname        = cpn-f15-35.cbls.ccr.buffalo.edu
    program         = /util/academic/nwchem/nwchem-6.8/bin/LINUX64/nwchem
    date            = Fri Mar  1 10:09:45 2019

    compiled        = Tue_Nov_06_14:59:08_2018
    source          = /util/academic/nwchem/nwchem-6.8
    nwchem branch   = 6.8
    nwchem revision = v6.8-47-gdf6c956
    ga revision     = ga-5.6.3
    use scalapack   = F
    input           = methyloxirane_blyp-def2-tzvp_488.9_17.inp
    prefix          = methyloxirane_blyp-def2-tzvp_488.9_17.inp.
    data base       = ./methyloxirane_blyp-def2-tzvp_488.9_17.inp.db
    status          = startup
    nproc           =        7
    time left       =     -1s



           Memory information
           ------------------

    heap     =   13107196 doubles =    100.0 Mbytes
    stack    =   13107201 doubles =    100.0 Mbytes
    global   =   26214400 doubles =    200.0 Mbytes (distinct from heap & stack)
    total    =   52428797 doubles =    400.0 Mbytes
    verify   = yes
    hardfail = no 


           Directory information
           ---------------------
 
  0 permanent = .
  0 scratch   = .
 
 
 
 
                                NWChem Input Module
                                -------------------
 
 
                    methyloxirane roa calculations at 488.9 nm, input generated in va  with delta_type=2
                    ------------------------------------------

 Scaling coordinates for geometry "geometry" by  1.889725989
 (inverse scale =  0.529177249)

 
 
                             Geometry "geometry" -> ""
                             -------------------------
 
 Output coordinates in angstroms (scale by  1.889725989 to convert to a.u.)
 
  No.       Tag          Charge          X              Y              Z
 ---- ---------------- ---------- -------------- -------------- --------------
    1 O                    8.0000    -0.87894100    -0.18011600     0.20529000
    2 C                    6.0000     0.57309300    -0.15698900     0.12275400
    3 C                    6.0000    -0.18547600     1.08828000     0.34006100
    4 C                    6.0000     1.18434600    -0.52045100    -1.21244000
    5 H                    1.0000     1.06093200    -0.60512000     0.99537300
    6 H                    1.0000    -0.22783800     1.53512400     1.33660000
    7 H                    1.0000    -0.32516800     1.78002400    -0.49506500
    8 H                    1.0000     2.24497200    -0.22982800    -1.24953500
    9 H                    1.0000     1.16137300    -1.60848800    -1.36504000
   10 H                    1.0000     0.64961300    -0.01381300    -2.02479200
 
      Atomic Mass 
      ----------- 
 
      O                 15.994910
      C                 12.000000
      H                  1.007825
 

 Effective nuclear repulsion energy (a.u.)     123.5627678459

            Nuclear Dipole moment (a.u.) 
            ----------------------------
        X                 Y               Z
 ---------------- ---------------- ----------------
    13.1603050078     3.5564850975   -10.6918598838
 
 
            XYZ format geometry
            -------------------
    10
 geometry
 O                    -0.87894100    -0.18011600     0.20529000
 C                     0.57309300    -0.15698900     0.12275400
 C                    -0.18547600     1.08828000     0.34006100
 C                     1.18434600    -0.52045100    -1.21244000
 H                     1.06093200    -0.60512000     0.99537300
 H                    -0.22783800     1.53512400     1.33660000
 H                    -0.32516800     1.78002400    -0.49506500
 H                     2.24497200    -0.22982800    -1.24953500
 H                     1.16137300    -1.60848800    -1.36504000
 H                     0.64961300    -0.01381300    -2.02479200
 
 ==============================================================================
                                internuclear distances
 ------------------------------------------------------------------------------
       center one      |      center two      | atomic units |  angstroms
 ------------------------------------------------------------------------------
    2 C                |   1 O                |     2.74872  |     1.45456
    3 C                |   1 O                |     2.74361  |     1.45186
    3 C                |   2 C                |     2.78588  |     1.47423
    4 C                |   2 C                |     2.85872  |     1.51277
    5 H                |   2 C                |     2.07033  |     1.09557
    6 H                |   3 C                |     2.06539  |     1.09296
    7 H                |   3 C                |     2.06617  |     1.09337
    8 H                |   4 C                |     2.07936  |     1.10035
    9 H                |   4 C                |     2.07667  |     1.09893
   10 H                |   4 C                |     2.07228  |     1.09660
 ------------------------------------------------------------------------------
                         number of included internuclear distances:         10
 ==============================================================================



 ==============================================================================
                                 internuclear angles
 ------------------------------------------------------------------------------
        center 1       |       center 2       |       center 3       |  degrees
 ------------------------------------------------------------------------------
    2 C                |   1 O                |   3 C                |    60.96
    2 C                |   1 O                |   3 C                |    60.96
    1 O                |   2 C                |   4 C                |   116.72
    1 O                |   2 C                |   5 H                |   113.13
    3 C                |   2 C                |   4 C                |   122.75
    3 C                |   2 C                |   5 H                |   117.21
    4 C                |   2 C                |   5 H                |   115.14
    3 C                |   1 O                |   2 C                |    60.96
    1 O                |   3 C                |   6 H                |   115.04
    1 O                |   3 C                |   7 H                |   114.89
    2 C                |   3 C                |   6 H                |   119.98
    2 C                |   3 C                |   7 H                |   119.18
    6 H                |   3 C                |   7 H                |   115.65
    2 C                |   4 C                |   8 H                |   110.84
    2 C                |   4 C                |   9 H                |   110.61
    2 C                |   4 C                |  10 H                |   110.23
    8 H                |   4 C                |   9 H                |   106.08
    8 H                |   4 C                |  10 H                |   108.85
    9 H                |   4 C                |  10 H                |   110.14
 ------------------------------------------------------------------------------
                            number of included internuclear angles:         19
 ==============================================================================



  warning:::::::::::::: from_environment
  NWCHEM_BASIS_LIBRARY set to: <
 /util/academic/nwchem/nwchem-6.8/src/basis/libraries>
  but file does not exist !
  using .nwchemrc or compiled library


 Summary of "ao basis" -> "" (spherical)
 ------------------------------------------------------------------------------
       Tag                 Description            Shells   Functions and Types
 ---------------- ------------------------------  ------  ---------------------
 *                         def2-TZVP                  on all atoms 


 
                                 NWChem DFT Module
                                 -----------------
 
 
                    methyloxirane roa calculations at 488.9 nm, input generated in va  with delta_type=2
 
 
                      Basis "ao basis" -> "ao basis" (spherical)
                      -----
  O (Oxygen)
  ----------
            Exponent  Coefficients 
       -------------- ---------------------------------------------------------
  1 S  2.70323826E+04  0.000217
  1 S  4.05238714E+03  0.001684
  1 S  9.22327227E+02  0.008740
  1 S  2.61240710E+02  0.035240
  1 S  8.53546414E+01  0.111535
  1 S  3.10350352E+01  0.255890
 
  2 S  1.22608607E+01  0.397687
  2 S  4.99870760E+00  0.246278
 
  3 S  1.17031082E+00  1.000000
 
  4 S  4.64747410E-01  1.000000
 
  5 S  1.85045364E-01  1.000000
 
  6 P  6.32749548E+01  0.006069
  6 P  1.46270494E+01  0.041913
  6 P  4.45012235E+00  0.161538
  6 P  1.52757996E+00  0.357070
 
  7 P  5.29351179E-01  1.000000
 
  8 P  1.74784213E-01  1.000000
 
  9 D  2.31400000E+00  1.000000
 
 10 D  6.45000000E-01  1.000000
 
 11 F  1.42800000E+00  1.000000
 
  C (Carbon)
  ----------
            Exponent  Coefficients 
       -------------- ---------------------------------------------------------
  1 S  1.35753497E+04  0.000222
  1 S  2.03523337E+03  0.001723
  1 S  4.63225624E+02  0.008926
  1 S  1.31200196E+02  0.035728
  1 S  4.28530159E+01  0.110763
  1 S  1.55841858E+01  0.242956
 
  2 S  6.20671385E+00  0.414403
  2 S  2.57648965E+00  0.237450
 
  3 S  5.76963394E-01  1.000000
 
  4 S  2.29728314E-01  1.000000
 
  5 S  9.51644400E-02  1.000000
 
  6 P  3.46972322E+01  0.005333
  6 P  7.95826228E+00  0.035864
  6 P  2.37808269E+00  0.142159
  6 P  8.14332082E-01  0.342705
 
  7 P  2.88875473E-01  1.000000
 
  8 P  1.00568237E-01  1.000000
 
  9 D  1.09700000E+00  1.000000
 
 10 D  3.18000000E-01  1.000000
 
 11 F  7.61000000E-01  1.000000
 
  H (Hydrogen)
  ------------
            Exponent  Coefficients 
       -------------- ---------------------------------------------------------
  1 S  3.40613410E+01  0.006025
  1 S  5.12357460E+00  0.045021
  1 S  1.16466260E+00  0.201897
 
  2 S  3.27230410E-01  1.000000
 
  3 S  1.03072410E-01  1.000000
 
  4 P  8.00000000E-01  1.000000
 


 Summary of "ao basis" -> "ao basis" (spherical)
 ------------------------------------------------------------------------------
       Tag                 Description            Shells   Functions and Types
 ---------------- ------------------------------  ------  ---------------------
 O                         def2-TZVP                11       31   5s3p2d1f
 C                         def2-TZVP                11       31   5s3p2d1f
 H                         def2-TZVP                 4        6   3s1p




 Summary of "ao basis" -> "ao basis" (spherical)
 ------------------------------------------------------------------------------
       Tag                 Description            Shells   Functions and Types
 ---------------- ------------------------------  ------  ---------------------
 O                         def2-TZVP                11       31   5s3p2d1f
 C                         def2-TZVP                11       31   5s3p2d1f
 H                         def2-TZVP                 4        6   3s1p


  Caching 1-el integrals 
  itol2e modified to match energy
  convergence criterion.
  tol_rho modified to match energy
  convergence criterion.
 
            General Information
            -------------------
          SCF calculation type: DFT
          Wavefunction type:  closed shell.
          No. of atoms     :    10
          No. of electrons :    32
           Alpha electrons :    16
            Beta electrons :    16
          Charge           :     0
          Spin multiplicity:     1
          Use of symmetry is: off; symmetry adaption is: off
          Maximum number of iterations: 250
          This is a Direct SCF calculation.
          AO basis - number of functions:   160
                     number of shells:    68
          Convergence on energy requested:  1.00D-08
          Convergence on density requested:  1.00D-05
          Convergence on gradient requested:  1.00D-07
 
              XC Information
              --------------
                    Becke 1988 Exchange Functional  1.000          
              Lee-Yang-Parr Correlation Functional  1.000          
 
             Grid Information
             ----------------
          Grid used for XC integration:  xfine     
          Radial quadrature: Mura-Knowles        
          Angular quadrature: Lebedev. 
          Tag              B.-S. Rad. Rad. Pts. Rad. Cut. Ang. Pts.
          ---              ---------- --------- --------- ---------
          O                   0.60      100          11.0      1454
          C                   0.70      100          11.0      1454
          H                   0.35      100          12.0      1202
          Grid pruning is: on 
          Number of quadrature shells:  1000
          Spatial weights used:  Erf1
 
          Convergence Information
          -----------------------
          Convergence aids based upon iterative change in 
          total energy or number of iterations. 
          Levelshifting, if invoked, occurs when the 
          HOMO/LUMO gap drops below (HL_TOL):  1.00D-02
          DIIS, if invoked, will attempt to extrapolate 
          using up to (NFOCK): 10 stored Fock matrices.

                    Damping( 0%)  Levelshifting(0.0)       DIIS
                  --------------- ------------------- ---------------
          dE  on:    start             N/A                start   
          dE off:    2 iters           N/A              250 iters 

 
      Screening Tolerance Information
      -------------------------------
          Density screening/tol_rho:  1.00D-11
          AO Gaussian exp screening on grid/accAOfunc:  18
          CD Gaussian exp screening on grid/accCDfunc:  20
          XC Gaussian exp screening on grid/accXCfunc:  20
          Schwarz screening/accCoul:  1.00D-09

 
      Superposition of Atomic Density Guess
      -------------------------------------
 
 Sum of atomic energies:        -190.79714706
 
      Non-variational initial energy
      ------------------------------

 Total energy =    -193.165037
 1-e energy   =    -502.085360
 2-e energy   =     185.357555
 HOMO         =      -0.351875
 LUMO         =       0.090361
 
   Time after variat. SCF:      0.5
   Time prior to 1st pass:      0.5

 Grid_pts file          = ./methyloxirane_blyp-def2-tzvp_488.9_17.inp.gridpts.0
 Record size in doubles =  12289        No. of grid_pts per rec  =   3070
 Max. records in memory =     76        Max. recs in file   =   1219782


           Memory utilization after 1st SCF pass: 
           Heap Space remaining (MW):       12.17            12167540
          Stack Space remaining (MW):       13.11            13106124

   convergence    iter        energy       DeltaE   RMS-Dens  Diis-err    time
 ---------------- ----- ----------------- --------- --------- ---------  ------
 d= 0,ls=0.0,diis     1   -193.0202057877 -3.17D+02  9.16D-03  1.06D+00     4.9
 d= 0,ls=0.0,diis     2   -192.8599418592  1.60D-01  7.58D-03  2.54D+00     9.0
 d= 0,ls=0.0,diis     3   -193.0769128510 -2.17D-01  1.82D-03  3.88D-01    13.2
 d= 0,ls=0.0,diis     4   -193.1071616717 -3.02D-02  6.82D-04  1.82D-02    17.4
 d= 0,ls=0.0,diis     5   -193.1088296922 -1.67D-03  2.93D-04  2.71D-03    21.5
 d= 0,ls=0.0,diis     6   -193.1091665890 -3.37D-04  3.04D-05  3.61D-05    25.7
 d= 0,ls=0.0,diis     7   -193.1091708883 -4.30D-06  8.70D-06  4.19D-06    29.9
 d= 0,ls=0.0,diis     8   -193.1091713573 -4.69D-07  2.01D-06  2.90D-07    34.0
 d= 0,ls=0.0,diis     9   -193.1091713894 -3.21D-08  6.30D-07  1.41D-08    38.2
 d= 0,ls=0.0,diis    10   -193.1091713910 -1.66D-09  1.67D-07  1.41D-09    42.4


         Total DFT energy =     -193.109171391027
      One electron energy =     -505.739851351875
           Coulomb energy =      216.089232298891
    Exchange-Corr. energy =      -27.021320183957
 Nuclear repulsion energy =      123.562767845913

 Numeric. integr. density =       31.999999902608

     Total iterative time =     41.9s


 
                       DFT Final Molecular Orbital Analysis
                       ------------------------------------
 
 Vector    1  Occ=2.000000D+00  E=-1.877978D+01
              MO Center= -8.8D-01, -1.8D-01,  2.1D-01, r^2= 1.5D-02
   Bfn.  Coefficient  Atom+Function         Bfn.  Coefficient  Atom+Function  
  ----- ------------  ---------------      ----- ------------  ---------------
     2      0.638476   1 O  s                 1      0.435422   1 O  s         
     3      0.039898   1 O  s                 4     -0.033281   1 O  s         
 
 Vector    2  Occ=2.000000D+00  E=-9.963102D+00
              MO Center=  5.7D-01, -1.6D-01,  1.2D-01, r^2= 2.8D-02
   Bfn.  Coefficient  Atom+Function         Bfn.  Coefficient  Atom+Function  
  ----- ------------  ---------------      ----- ------------  ---------------
    33      0.606909   2 C  s                32      0.467261   2 C  s         
    34      0.042511   2 C  s                36      0.037447   2 C  s         
    35     -0.027254   2 C  s         
 
 Vector    3  Occ=2.000000D+00  E=-9.955576D+00
              MO Center= -1.9D-01,  1.1D+00,  3.4D-01, r^2= 2.8D-02
   Bfn.  Coefficient  Atom+Function         Bfn.  Coefficient  Atom+Function  
  ----- ------------  ---------------      ----- ------------  ---------------
    64      0.607024   3 C  s                63      0.467221   3 C  s         
    65      0.039679   3 C  s         
 
 Vector    4  Occ=2.000000D+00  E=-9.908023D+00
              MO Center=  1.2D+00, -5.2D-01, -1.2D+00, r^2= 2.8D-02
   Bfn.  Coefficient  Atom+Function         Bfn.  Coefficient  Atom+Function  
  ----- ------------  ---------------      ----- ------------  ---------------
    95      0.606963   4 C  s                94      0.467216   4 C  s         
    96      0.040611   4 C  s                98      0.035579   4 C  s         
 
 Vector    5  Occ=2.000000D+00  E=-9.630458D-01
              MO Center= -4.7D-01,  5.7D-02,  2.1D-01, r^2= 6.5D-01
   Bfn.  Coefficient  Atom+Function         Bfn.  Coefficient  Atom+Function  
  ----- ------------  ---------------      ----- ------------  ---------------
     4      0.375082   1 O  s                 3      0.277315   1 O  s         
     2     -0.192720   1 O  s                34      0.139940   2 C  s         
    65      0.139187   3 C  s                 5      0.122660   1 O  s         
    35      0.105021   2 C  s                 6      0.093427   1 O  px        
    66      0.093596   3 C  s                69     -0.091476   3 C  py        
 
 Vector    6  Occ=2.000000D+00  E=-6.696173D-01
              MO Center=  9.4D-01, -3.9D-01, -7.7D-01, r^2= 1.5D+00
   Bfn.  Coefficient  Atom+Function         Bfn.  Coefficient  Atom+Function  
  ----- ------------  ---------------      ----- ------------  ---------------
    97      0.285130   4 C  s                96      0.276222   4 C  s         
    35      0.185230   2 C  s                34      0.174170   2 C  s         
    95     -0.173921   4 C  s                 4     -0.147635   1 O  s         
    33     -0.108854   2 C  s                 3     -0.103217   1 O  s         
    94     -0.083333   4 C  s                 5     -0.073224   1 O  s         
 
 Vector    7  Occ=2.000000D+00  E=-5.899097D-01
              MO Center= -1.3D-01,  7.2D-01,  2.2D-01, r^2= 2.0D+00
   Bfn.  Coefficient  Atom+Function         Bfn.  Coefficient  Atom+Function  
  ----- ------------  ---------------      ----- ------------  ---------------
    66      0.326338   3 C  s                65      0.278306   3 C  s         
     4     -0.238449   1 O  s                64     -0.172015   3 C  s         
     3     -0.168420   1 O  s                 5     -0.147972   1 O  s         
     2      0.111201   1 O  s                38      0.105305   2 C  py        
   132      0.102717   6 H  s                97     -0.099210   4 C  s         
 
 Vector    8  Occ=2.000000D+00  E=-5.297581D-01
              MO Center=  4.1D-01,  1.4D-02, -9.5D-02, r^2= 2.7D+00
   Bfn.  Coefficient  Atom+Function         Bfn.  Coefficient  Atom+Function  
  ----- ------------  ---------------      ----- ------------  ---------------
    35      0.303883   2 C  s                34      0.225188   2 C  s         
    97     -0.155022   4 C  s                66     -0.152645   3 C  s         
    33     -0.138544   2 C  s               126      0.132668   5 H  s         
    96     -0.128783   4 C  s                 6      0.107344   1 O  px        
   125      0.106207   5 H  s                65     -0.098648   3 C  s         
 
 Vector    9  Occ=2.000000D+00  E=-4.486022D-01
              MO Center=  1.3D-01,  2.8D-01,  2.3D-01, r^2= 2.5D+00
   Bfn.  Coefficient  Atom+Function         Bfn.  Coefficient  Atom+Function  
  ----- ------------  ---------------      ----- ------------  ---------------
    70      0.209462   3 C  pz               39      0.155464   2 C  pz        
   132      0.144501   6 H  s                73      0.131425   3 C  pz        
     8      0.127055   1 O  pz              126      0.115087   5 H  s         
     6     -0.109095   1 O  px              131      0.107219   6 H  s         
    38     -0.105456   2 C  py               11      0.102929   1 O  pz        
 
 Vector   10  Occ=2.000000D+00  E=-4.136339D-01
              MO Center=  4.7D-02,  2.9D-01, -2.3D-01, r^2= 2.6D+00
   Bfn.  Coefficient  Atom+Function         Bfn.  Coefficient  Atom+Function  
  ----- ------------  ---------------      ----- ------------  ---------------
    69      0.216632   3 C  py              138      0.154030   7 H  s         
   101      0.152177   4 C  pz                6     -0.143821   1 O  px        
    38     -0.141086   2 C  py               37      0.129161   2 C  px        
     7     -0.123358   1 O  py               72      0.122404   3 C  py        
     9     -0.114933   1 O  px               70     -0.115419   3 C  pz        
 
 Vector   11  Occ=2.000000D+00  E=-3.745080D-01
              MO Center=  8.6D-01, -2.8D-01, -6.9D-01, r^2= 2.8D+00
   Bfn.  Coefficient  Atom+Function         Bfn.  Coefficient  Atom+Function  
  ----- ------------  ---------------      ----- ------------  ---------------
    99      0.210770   4 C  px              144      0.182000   8 H  s         
   100      0.153156   4 C  py              102      0.136009   4 C  px        
    37      0.131059   2 C  px              150     -0.131346   9 H  s         
   143      0.127294   8 H  s                 7      0.124082   1 O  py        
     6     -0.120226   1 O  px               10      0.104684   1 O  py        
 
 Vector   12  Occ=2.000000D+00  E=-3.582800D-01
              MO Center=  6.4D-01, -3.7D-01, -9.2D-01, r^2= 2.8D+00
   Bfn.  Coefficient  Atom+Function         Bfn.  Coefficient  Atom+Function  
  ----- ------------  ---------------      ----- ------------  ---------------
   100      0.263120   4 C  py              150     -0.191791   9 H  s         
   156      0.178267  10 H  s               103      0.169849   4 C  py        
     7     -0.149436   1 O  py              149     -0.133906   9 H  s         
   155      0.126186  10 H  s                10     -0.119170   1 O  py        
    70      0.117304   3 C  pz              106      0.105342   4 C  py        
 
 Vector   13  Occ=2.000000D+00  E=-3.290287D-01
              MO Center=  3.0D-01,  2.3D-01, -2.4D-01, r^2= 2.7D+00
   Bfn.  Coefficient  Atom+Function         Bfn.  Coefficient  Atom+Function  
  ----- ------------  ---------------      ----- ------------  ---------------
    39     -0.204749   2 C  pz                7      0.190093   1 O  py        
   101      0.186541   4 C  pz               70      0.159756   3 C  pz        
   138     -0.158506   7 H  s                10      0.153562   1 O  py        
    42     -0.139097   2 C  pz               99     -0.139316   4 C  px        
   104      0.131402   4 C  pz              137     -0.106464   7 H  s         
 
 Vector   14  Occ=2.000000D+00  E=-3.209542D-01
              MO Center=  4.3D-01, -3.8D-02, -2.1D-01, r^2= 3.0D+00
   Bfn.  Coefficient  Atom+Function         Bfn.  Coefficient  Atom+Function  
  ----- ------------  ---------------      ----- ------------  ---------------
     7      0.194297   1 O  py              126      0.169857   5 H  s         
    10      0.159286   1 O  py              156      0.152569  10 H  s         
    39      0.150178   2 C  pz               99     -0.146880   4 C  px        
   101     -0.136162   4 C  pz                6     -0.131828   1 O  px        
   144     -0.126307   8 H  s                37      0.119757   2 C  px        
 
 Vector   15  Occ=2.000000D+00  E=-2.634829D-01
              MO Center=  1.9D-02,  1.5D-01,  3.3D-02, r^2= 2.3D+00
   Bfn.  Coefficient  Atom+Function         Bfn.  Coefficient  Atom+Function  
  ----- ------------  ---------------      ----- ------------  ---------------
    68      0.263700   3 C  px               38      0.255801   2 C  py        
     6     -0.238363   1 O  px               41      0.199682   2 C  py        
    71      0.195681   3 C  px                9     -0.186470   1 O  px        
    12     -0.157695   1 O  px              150      0.115505   9 H  s         
   100     -0.110830   4 C  py               67      0.106747   3 C  s         
 
 Vector   16  Occ=2.000000D+00  E=-2.197610D-01
              MO Center= -5.8D-01, -2.7D-02,  2.0D-01, r^2= 1.6D+00
   Bfn.  Coefficient  Atom+Function         Bfn.  Coefficient  Atom+Function  
  ----- ------------  ---------------      ----- ------------  ---------------
     8      0.448790   1 O  pz               11      0.357433   1 O  pz        
    14      0.296120   1 O  pz              133     -0.130195   6 H  s         
   139      0.116219   7 H  s               132     -0.103739   6 H  s         
   138      0.103476   7 H  s               145     -0.102601   8 H  s         
   126     -0.097511   5 H  s                98      0.094095   4 C  s         
 
 Vector   17  Occ=0.000000D+00  E= 2.552090D-02
              MO Center=  1.2D+00, -1.1D-01, -6.0D-01, r^2= 7.2D+00
   Bfn.  Coefficient  Atom+Function         Bfn.  Coefficient  Atom+Function  
  ----- ------------  ---------------      ----- ------------  ---------------
    98      4.422478   4 C  s               145     -1.528003   8 H  s         
   151     -1.499706   9 H  s               157     -1.315016  10 H  s         
   127     -1.224966   5 H  s                45      1.102864   2 C  pz        
   139     -0.874099   7 H  s                67      0.683039   3 C  s         
   133     -0.606604   6 H  s                75      0.329866   3 C  py        
 
 Vector   18  Occ=0.000000D+00  E= 4.292023D-02
              MO Center= -1.2D-01,  6.7D-01,  1.1D-01, r^2= 4.5D+00
   Bfn.  Coefficient  Atom+Function         Bfn.  Coefficient  Atom+Function  
  ----- ------------  ---------------      ----- ------------  ---------------
    98     -2.107794   4 C  s                36      1.940457   2 C  s         
     5     -1.277995   1 O  s                74     -0.938019   3 C  px        
   151      0.791294   9 H  s                45     -0.491152   2 C  pz        
    13     -0.438487   1 O  py              157      0.403364  10 H  s         
    44      0.400457   2 C  py               67     -0.392219   3 C  s         
 
 Vector   19  Occ=0.000000D+00  E= 5.004043D-02
              MO Center=  3.2D-01,  6.5D-01, -1.7D-01, r^2= 6.5D+00
   Bfn.  Coefficient  Atom+Function         Bfn.  Coefficient  Atom+Function  
  ----- ------------  ---------------      ----- ------------  ---------------
    67      3.129170   3 C  s                36     -2.535609   2 C  s         
   139     -1.698654   7 H  s               127      1.567533   5 H  s         
   157     -0.698009  10 H  s               145      0.654117   8 H  s         
    44     -0.603395   2 C  py               45     -0.588311   2 C  pz        
   133     -0.509143   6 H  s                74      0.466252   3 C  px        
 
 Vector   20  Occ=0.000000D+00  E= 5.108652D-02
              MO Center=  6.5D-01,  4.2D-01,  4.5D-01, r^2= 7.6D+00
   Bfn.  Coefficient  Atom+Function         Bfn.  Coefficient  Atom+Function  
  ----- ------------  ---------------      ----- ------------  ---------------
    98      3.428539   4 C  s                67     -2.213386   3 C  s         
   133      1.805225   6 H  s               127      1.459643   5 H  s         
    36     -1.299457   2 C  s               157     -1.185598  10 H  s         
   145     -1.119696   8 H  s                44      1.010747   2 C  py        
    43     -0.731271   2 C  px              151     -0.690706   9 H  s         
 
 Vector   21  Occ=0.000000D+00  E= 6.474331D-02
              MO Center=  2.9D-01,  6.3D-02, -1.7D-01, r^2= 4.8D+00
   Bfn.  Coefficient  Atom+Function         Bfn.  Coefficient  Atom+Function  
  ----- ------------  ---------------      ----- ------------  ---------------
    98      1.255004   4 C  s               139      1.182172   7 H  s         
   151     -1.002603   9 H  s                 5     -0.890140   1 O  s         
    67     -0.889692   3 C  s                43     -0.840630   2 C  px        
   133      0.580983   6 H  s                75     -0.577646   3 C  py        
    12     -0.485712   1 O  px               45      0.391387   2 C  pz        
 
 Vector   22  Occ=0.000000D+00  E= 8.552794D-02
              MO Center=  1.3D+00,  2.1D-01, -4.7D-01, r^2= 7.2D+00
   Bfn.  Coefficient  Atom+Function         Bfn.  Coefficient  Atom+Function  
  ----- ------------  ---------------      ----- ------------  ---------------
    36      3.018302   2 C  s               145      1.982985   8 H  s         
    67     -1.505048   3 C  s               127     -1.288360   5 H  s         
   157     -1.246946  10 H  s               133      1.231943   6 H  s         
   107     -1.138918   4 C  pz               98     -1.113553   4 C  s         
   105     -0.958270   4 C  px               75      0.787401   3 C  py        
 
 Vector   23  Occ=0.000000D+00  E= 9.151858D-02
              MO Center=  1.2D+00, -6.6D-01, -5.4D-01, r^2= 6.5D+00
   Bfn.  Coefficient  Atom+Function         Bfn.  Coefficient  Atom+Function  
  ----- ------------  ---------------      ----- ------------  ---------------
    36      2.476722   2 C  s               151      2.074801   9 H  s         
   145     -1.549114   8 H  s                98     -1.259538   4 C  s         
   106      1.162728   4 C  py              105      1.070490   4 C  px        
   133      0.917482   6 H  s                67     -0.883739   3 C  s         
   127     -0.841887   5 H  s               107     -0.699793   4 C  pz        
 
 Vector   24  Occ=0.000000D+00  E= 1.037629D-01
              MO Center=  4.0D-01,  4.8D-01, -1.1D+00, r^2= 6.7D+00
   Bfn.  Coefficient  Atom+Function         Bfn.  Coefficient  Atom+Function  
  ----- ------------  ---------------      ----- ------------  ---------------
   157      2.095568  10 H  s               133      1.594583   6 H  s         
   139     -1.535273   7 H  s               106     -1.452059   4 C  py        
    98     -1.404635   4 C  s               151     -1.375242   9 H  s         
    36      1.205771   2 C  s                76     -1.181954   3 C  pz        
   105      1.029562   4 C  px               45     -0.498944   2 C  pz        
 
 Vector   25  Occ=0.000000D+00  E= 1.393797D-01
              MO Center=  8.2D-01,  1.7D-01, -4.4D-01, r^2= 7.8D+00
   Bfn.  Coefficient  Atom+Function         Bfn.  Coefficient  Atom+Function  
  ----- ------------  ---------------      ----- ------------  ---------------
    36      4.704872   2 C  s                98     -3.544166   4 C  s         
    45     -3.427167   2 C  pz               67     -2.842438   3 C  s         
   127      2.761205   5 H  s                76      2.173371   3 C  pz        
   105      2.124806   4 C  px              133     -1.776973   6 H  s         
   139      1.685733   7 H  s               107     -1.563634   4 C  pz        
 
 Vector   26  Occ=0.000000D+00  E= 1.701364D-01
              MO Center=  4.4D-01,  5.6D-01, -1.2D-01, r^2= 7.3D+00
   Bfn.  Coefficient  Atom+Function         Bfn.  Coefficient  Atom+Function  
  ----- ------------  ---------------      ----- ------------  ---------------
    75      2.317039   3 C  py              107      1.619362   4 C  pz        
    67     -1.540176   3 C  s                36      1.517789   2 C  s         
   139     -1.206034   7 H  s               157      1.099010  10 H  s         
    74     -0.981220   3 C  px               44      0.736973   2 C  py        
    43     -0.611940   2 C  px              106     -0.601874   4 C  py        
 
 Vector   27  Occ=0.000000D+00  E= 1.972193D-01
              MO Center=  9.1D-01, -5.4D-02, -9.8D-01, r^2= 5.2D+00
   Bfn.  Coefficient  Atom+Function         Bfn.  Coefficient  Atom+Function  
  ----- ------------  ---------------      ----- ------------  ---------------
    67      3.095334   3 C  s                44     -2.568835   2 C  py        
   106      2.080265   4 C  py               36     -1.436762   2 C  s         
    43      0.997343   2 C  px              157     -0.693171  10 H  s         
    74      0.667299   3 C  px              150      0.668224   9 H  s         
   107     -0.589455   4 C  pz               45     -0.583727   2 C  pz        
 
 Vector   28  Occ=0.000000D+00  E= 2.015961D-01
              MO Center=  8.6D-01, -5.0D-01, -7.4D-01, r^2= 6.5D+00
   Bfn.  Coefficient  Atom+Function         Bfn.  Coefficient  Atom+Function  
  ----- ------------  ---------------      ----- ------------  ---------------
    36      2.646227   2 C  s                75      1.657312   3 C  py        
   105     -1.585410   4 C  px              133     -1.141596   6 H  s         
    45      0.895816   2 C  pz              107     -0.845672   4 C  pz        
   139     -0.743921   7 H  s               156     -0.706861  10 H  s         
   106      0.625214   4 C  py               76      0.597996   3 C  pz        
 
 Vector   29  Occ=0.000000D+00  E= 2.355817D-01
              MO Center= -2.7D-01,  3.6D-01, -5.8D-02, r^2= 5.4D+00
   Bfn.  Coefficient  Atom+Function         Bfn.  Coefficient  Atom+Function  
  ----- ------------  ---------------      ----- ------------  ---------------
    67      4.162355   3 C  s                36     -2.781927   2 C  s         
   139     -1.589577   7 H  s                66     -1.468080   3 C  s         
    98      1.265981   4 C  s               133     -1.261200   6 H  s         
   107      1.038008   4 C  pz               74     -0.829849   3 C  px        
    44      0.823545   2 C  py                5     -0.798304   1 O  s         
 
 Vector   30  Occ=0.000000D+00  E= 2.469243D-01
              MO Center=  5.0D-01,  6.5D-02, -3.8D-02, r^2= 5.9D+00
   Bfn.  Coefficient  Atom+Function         Bfn.  Coefficient  Atom+Function  
  ----- ------------  ---------------      ----- ------------  ---------------
    67      6.245671   3 C  s                43      4.206141   2 C  px        
    75     -3.080203   3 C  py               44     -2.626853   2 C  py        
    36     -2.584274   2 C  s               107     -1.923852   4 C  pz        
   157     -1.796502  10 H  s                45     -1.471327   2 C  pz        
    98     -1.181939   4 C  s               105     -1.149785   4 C  px        
 
 Vector   31  Occ=0.000000D+00  E= 2.697657D-01
              MO Center=  2.7D-01, -1.9D-01,  2.2D-01, r^2= 5.6D+00
   Bfn.  Coefficient  Atom+Function         Bfn.  Coefficient  Atom+Function  
  ----- ------------  ---------------      ----- ------------  ---------------
    36      4.453940   2 C  s                 5     -2.281925   1 O  s         
    67      2.229256   3 C  s               105      1.555704   4 C  px        
    43     -1.490506   2 C  px               98     -1.298909   4 C  s         
    66     -1.137527   3 C  s               106     -0.902300   4 C  py        
   133     -0.865333   6 H  s               139     -0.855614   7 H  s         
 
 Vector   32  Occ=0.000000D+00  E= 2.782343D-01
              MO Center=  4.4D-01,  3.5D-01,  3.0D-01, r^2= 4.1D+00
   Bfn.  Coefficient  Atom+Function         Bfn.  Coefficient  Atom+Function  
  ----- ------------  ---------------      ----- ------------  ---------------
    36      2.286766   2 C  s                67     -1.708521   3 C  s         
     5     -1.647874   1 O  s                43     -1.237971   2 C  px        
    74     -0.730712   3 C  px               45     -0.602309   2 C  pz        
    98     -0.582988   4 C  s               145      0.578945   8 H  s         
     4      0.488062   1 O  s                66      0.426240   3 C  s         
 
 Vector   33  Occ=0.000000D+00  E= 3.006077D-01
              MO Center=  4.6D-01,  3.6D-01, -3.9D-01, r^2= 5.0D+00
   Bfn.  Coefficient  Atom+Function         Bfn.  Coefficient  Atom+Function  
  ----- ------------  ---------------      ----- ------------  ---------------
    43      1.941567   2 C  px              106      1.761683   4 C  py        
   151      1.658161   9 H  s                98     -1.600079   4 C  s         
    36     -1.331101   2 C  s                44     -1.289518   2 C  py        
    76      1.273299   3 C  pz              107     -1.069711   4 C  pz        
    66      1.045638   3 C  s               139      0.920027   7 H  s         
 
 Vector   34  Occ=0.000000D+00  E= 3.375754D-01
              MO Center=  1.1D-01,  4.3D-01, -4.1D-01, r^2= 5.9D+00
   Bfn.  Coefficient  Atom+Function         Bfn.  Coefficient  Atom+Function  
  ----- ------------  ---------------      ----- ------------  ---------------
    67      4.553153   3 C  s                76     -4.037708   3 C  pz        
   139     -3.194064   7 H  s                36     -2.326642   2 C  s         
   133      2.046981   6 H  s               107     -1.741337   4 C  pz        
   157     -1.731469  10 H  s                98      1.466738   4 C  s         
    43      1.319885   2 C  px               44     -1.104977   2 C  py        
 
 Vector   35  Occ=0.000000D+00  E= 3.628916D-01
              MO Center=  8.0D-01, -2.5D-02, -3.7D-01, r^2= 6.8D+00
   Bfn.  Coefficient  Atom+Function         Bfn.  Coefficient  Atom+Function  
  ----- ------------  ---------------      ----- ------------  ---------------
    98      7.935086   4 C  s               145     -3.325732   8 H  s         
    76      3.230389   3 C  pz               97     -3.163413   4 C  s         
   133     -2.334790   6 H  s               151     -1.931491   9 H  s         
   139      1.573827   7 H  s                44      1.530527   2 C  py        
    45     -1.532224   2 C  pz              105      1.404398   4 C  px        
 
 Vector   36  Occ=0.000000D+00  E= 3.721388D-01
              MO Center=  5.5D-01,  2.5D-01, -4.0D-02, r^2= 6.3D+00
   Bfn.  Coefficient  Atom+Function         Bfn.  Coefficient  Atom+Function  
  ----- ------------  ---------------      ----- ------------  ---------------
    36     12.722345   2 C  s                98     -8.736452   4 C  s         
    67     -8.248933   3 C  s               127     -3.132550   5 H  s         
    97      2.399235   4 C  s               157      2.191416  10 H  s         
    44      1.906796   2 C  py               35     -1.844142   2 C  s         
   151      1.662771   9 H  s                74     -1.600806   3 C  px        
 
 Vector   37  Occ=0.000000D+00  E= 3.850997D-01
              MO Center=  8.9D-01, -3.6D-01, -8.5D-02, r^2= 6.2D+00
   Bfn.  Coefficient  Atom+Function         Bfn.  Coefficient  Atom+Function  
  ----- ------------  ---------------      ----- ------------  ---------------
    36      5.929507   2 C  s                98      4.799921   4 C  s         
   127     -4.168105   5 H  s                45      3.237465   2 C  pz        
    67     -2.872190   3 C  s               151     -2.330427   9 H  s         
    35     -2.240152   2 C  s                76     -2.205058   3 C  pz        
   145     -2.070163   8 H  s               133      1.794871   6 H  s         
 
 Vector   38  Occ=0.000000D+00  E= 3.949757D-01
              MO Center=  2.4D-01,  1.9D-01, -7.3D-02, r^2= 6.4D+00
   Bfn.  Coefficient  Atom+Function         Bfn.  Coefficient  Atom+Function  
  ----- ------------  ---------------      ----- ------------  ---------------
    98     11.719099   4 C  s                67     -6.418896   3 C  s         
    45      4.868091   2 C  pz               76     -2.898532   3 C  pz        
    44      2.639947   2 C  py              133      2.604797   6 H  s         
   157     -2.585914  10 H  s                43     -2.149567   2 C  px        
    75      1.875610   3 C  py               97     -1.729835   4 C  s         
 
 Vector   39  Occ=0.000000D+00  E= 4.014182D-01
              MO Center= -2.9D-01,  1.5D-01,  1.7D-01, r^2= 6.4D+00
   Bfn.  Coefficient  Atom+Function         Bfn.  Coefficient  Atom+Function  
  ----- ------------  ---------------      ----- ------------  ---------------
    67    -12.210385   3 C  s                36     11.999880   2 C  s         
    45     -5.184190   2 C  pz               98     -5.039903   4 C  s         
    44      3.893403   2 C  py              127      2.863688   5 H  s         
    66      2.723321   3 C  s               139      2.532446   7 H  s         
    43     -2.428836   2 C  px              105      2.252923   4 C  px        
 
 Vector   40  Occ=0.000000D+00  E= 4.139342D-01
              MO Center=  8.9D-01, -3.8D-01, -8.8D-01, r^2= 5.8D+00
   Bfn.  Coefficient  Atom+Function         Bfn.  Coefficient  Atom+Function  
  ----- ------------  ---------------      ----- ------------  ---------------
    98      7.055914   4 C  s                36     -4.254741   2 C  s         
    45      3.086728   2 C  pz              105     -2.658067   4 C  px        
   151     -2.425679   9 H  s               157     -1.971973  10 H  s         
   145      1.933579   8 H  s                97     -1.060768   4 C  s         
   127     -0.987375   5 H  s               144     -0.983772   8 H  s         
 
 Vector   41  Occ=0.000000D+00  E= 4.272176D-01
              MO Center=  4.1D-01,  3.0D-01, -6.7D-02, r^2= 6.8D+00
   Bfn.  Coefficient  Atom+Function         Bfn.  Coefficient  Atom+Function  
  ----- ------------  ---------------      ----- ------------  ---------------
    36      9.514119   2 C  s                67     -4.808572   3 C  s         
    98     -4.166926   4 C  s                44      2.712015   2 C  py        
    75      2.690883   3 C  py              151      2.274063   9 H  s         
    43     -1.806879   2 C  px               74     -1.502858   3 C  px        
    45     -1.489073   2 C  pz              133     -1.386604   6 H  s         
 
 Vector   42  Occ=0.000000D+00  E= 4.471438D-01
              MO Center=  7.6D-02, -1.4D-01, -2.0D-01, r^2= 6.1D+00
   Bfn.  Coefficient  Atom+Function         Bfn.  Coefficient  Atom+Function  
  ----- ------------  ---------------      ----- ------------  ---------------
    36      9.667915   2 C  s                98     -9.294650   4 C  s         
    45     -5.765391   2 C  pz               67     -2.856222   3 C  s         
   127      2.860941   5 H  s                76      2.732606   3 C  pz        
   157      2.136394  10 H  s                44      2.076616   2 C  py        
   106     -2.073757   4 C  py              133     -2.002217   6 H  s         
 
 Vector   43  Occ=0.000000D+00  E= 4.597517D-01
              MO Center=  6.6D-02,  8.3D-01, -5.4D-01, r^2= 5.1D+00
   Bfn.  Coefficient  Atom+Function         Bfn.  Coefficient  Atom+Function  
  ----- ------------  ---------------      ----- ------------  ---------------
   139      3.155382   7 H  s               157     -2.467440  10 H  s         
    75     -2.173748   3 C  py              107     -2.147907   4 C  pz        
    44     -1.617486   2 C  py               43      1.581866   2 C  px        
   138     -1.465953   7 H  s                45     -1.425499   2 C  pz        
    76      0.962046   3 C  pz               74      0.837581   3 C  px        
 
 Vector   44  Occ=0.000000D+00  E= 4.698880D-01
              MO Center=  4.7D-01,  1.6D-01, -4.5D-02, r^2= 5.7D+00
   Bfn.  Coefficient  Atom+Function         Bfn.  Coefficient  Atom+Function  
  ----- ------------  ---------------      ----- ------------  ---------------
    98      5.514318   4 C  s                36     -4.948601   2 C  s         
    45      2.376742   2 C  pz              107      1.855201   4 C  pz        
   145     -1.713848   8 H  s               133     -1.516116   6 H  s         
    67      1.287682   3 C  s                35      1.252403   2 C  s         
   157      1.159631  10 H  s               132      1.120649   6 H  s         
 
 Vector   45  Occ=0.000000D+00  E= 5.078250D-01
              MO Center=  1.0D+00, -4.4D-01, -9.8D-01, r^2= 4.6D+00
   Bfn.  Coefficient  Atom+Function         Bfn.  Coefficient  Atom+Function  
  ----- ------------  ---------------      ----- ------------  ---------------
    98     11.583963   4 C  s                36     -7.595202   2 C  s         
    45      4.670491   2 C  pz              107      3.123987   4 C  pz        
   144     -1.401112   8 H  s               106      1.265756   4 C  py        
   156     -1.210758  10 H  s               150     -1.204266   9 H  s         
   127     -1.193016   5 H  s               105     -1.041466   4 C  px        
 
 Vector   46  Occ=0.000000D+00  E= 5.342393D-01
              MO Center= -7.3D-03, -3.7D-01, -4.1D-01, r^2= 4.3D+00
   Bfn.  Coefficient  Atom+Function         Bfn.  Coefficient  Atom+Function  
  ----- ------------  ---------------      ----- ------------  ---------------
    36      5.724498   2 C  s                98     -5.695429   4 C  s         
    76      3.242884   3 C  pz               45     -3.051126   2 C  pz        
   133     -1.858770   6 H  s               139      1.445845   7 H  s         
   105      1.308677   4 C  px               14     -1.275034   1 O  pz        
   107     -1.188731   4 C  pz                5     -0.986974   1 O  s         
 
 Vector   47  Occ=0.000000D+00  E= 6.589573D-01
              MO Center= -4.2D-01,  4.5D-02, -1.2D-02, r^2= 4.3D+00
   Bfn.  Coefficient  Atom+Function         Bfn.  Coefficient  Atom+Function  
  ----- ------------  ---------------      ----- ------------  ---------------
    36     12.187668   2 C  s                67     -9.457157   3 C  s         
    98     -4.254584   4 C  s                43     -2.657673   2 C  px        
    75      2.592220   3 C  py               13      2.329601   1 O  py        
    76      2.087789   3 C  pz              105      1.573389   4 C  px        
    44      1.546718   2 C  py              139      1.539288   7 H  s         
 
 Vector   48  Occ=0.000000D+00  E= 6.744588D-01
              MO Center= -2.5D-01,  3.5D-01,  1.2D-01, r^2= 3.9D+00
   Bfn.  Coefficient  Atom+Function         Bfn.  Coefficient  Atom+Function  
  ----- ------------  ---------------      ----- ------------  ---------------
    36      7.415635   2 C  s                67     -7.346246   3 C  s         
     5      3.047202   1 O  s                75      2.416123   3 C  py        
    13      1.993594   1 O  py               98     -1.976742   4 C  s         
    45     -1.237860   2 C  pz                4     -1.122707   1 O  s         
    43     -1.092418   2 C  px               44      0.851093   2 C  py        
 
 Vector   49  Occ=0.000000D+00  E= 7.082758D-01
              MO Center=  1.8D-01, -3.2D-01, -2.7D-01, r^2= 4.5D+00
   Bfn.  Coefficient  Atom+Function         Bfn.  Coefficient  Atom+Function  
  ----- ------------  ---------------      ----- ------------  ---------------
    67      9.540634   3 C  s                36     -7.424997   2 C  s         
    43      3.730776   2 C  px               44     -3.532089   2 C  py        
    75     -2.784247   3 C  py               98     -2.487767   4 C  s         
     5      2.246991   1 O  s                12      1.671905   1 O  px        
   106      1.679218   4 C  py               13     -1.318098   1 O  py        
 
 Vector   50  Occ=0.000000D+00  E= 7.613755D-01
              MO Center=  6.4D-01, -1.2D-02, -3.5D-01, r^2= 4.0D+00
   Bfn.  Coefficient  Atom+Function         Bfn.  Coefficient  Atom+Function  
  ----- ------------  ---------------      ----- ------------  ---------------
    45      2.462790   2 C  pz              127     -1.701454   5 H  s         
   105     -1.651137   4 C  px               43      1.472607   2 C  px        
    36      1.357438   2 C  s               126     -1.346281   5 H  s         
     5     -1.339335   1 O  s               144      1.220658   8 H  s         
    76     -1.074189   3 C  pz               66      1.007980   3 C  s         
 
 Vector   51  Occ=0.000000D+00  E= 7.947882D-01
              MO Center=  2.7D-01,  4.7D-02, -1.9D-01, r^2= 4.4D+00
   Bfn.  Coefficient  Atom+Function         Bfn.  Coefficient  Atom+Function  
  ----- ------------  ---------------      ----- ------------  ---------------
     5      4.134978   1 O  s                36     -2.753900   2 C  s         
    76     -2.527984   3 C  pz                4     -1.622418   1 O  s         
    45      1.525695   2 C  pz               12      1.364282   1 O  px        
   133      1.328973   6 H  s                43      1.214961   2 C  px        
    66     -1.084046   3 C  s                35     -1.041786   2 C  s         
 
 Vector   52  Occ=0.000000D+00  E= 8.317250D-01
              MO Center=  3.1D-01,  1.7D-01,  2.7D-03, r^2= 4.4D+00
   Bfn.  Coefficient  Atom+Function         Bfn.  Coefficient  Atom+Function  
  ----- ------------  ---------------      ----- ------------  ---------------
    36      6.755012   2 C  s                98     -4.137867   4 C  s         
     5     -4.012011   1 O  s                43     -2.590799   2 C  px        
   105      1.954036   4 C  px               35     -1.858430   2 C  s         
    45     -1.860889   2 C  pz               44      1.505143   2 C  py        
    66     -1.182732   3 C  s                97      1.040728   4 C  s         
 
 Vector   53  Occ=0.000000D+00  E= 8.541765D-01
              MO Center=  6.0D-01,  1.3D-01, -4.0D-01, r^2= 4.2D+00
   Bfn.  Coefficient  Atom+Function         Bfn.  Coefficient  Atom+Function  
  ----- ------------  ---------------      ----- ------------  ---------------
    36      4.609939   2 C  s                98     -4.544182   4 C  s         
    45     -4.481315   2 C  pz               76      1.988515   3 C  pz        
   127      1.727993   5 H  s               106     -1.571698   4 C  py        
    44      1.408514   2 C  py              105      1.377579   4 C  px        
   150     -1.189504   9 H  s                 5     -1.165986   1 O  s         
 
 Vector   54  Occ=0.000000D+00  E= 8.721470D-01
              MO Center=  2.0D-01, -4.7D-02, -1.2D-01, r^2= 4.2D+00
   Bfn.  Coefficient  Atom+Function         Bfn.  Coefficient  Atom+Function  
  ----- ------------  ---------------      ----- ------------  ---------------
     5      4.521876   1 O  s                 4     -1.519438   1 O  s         
    76      1.473587   3 C  pz              138      1.411659   7 H  s         
    36     -1.390985   2 C  s                67     -1.331032   3 C  s         
    98     -1.287896   4 C  s                12      1.170060   1 O  px        
    66     -1.139983   3 C  s                44      0.886605   2 C  py        
 
 Vector   55  Occ=0.000000D+00  E= 9.201448D-01
              MO Center=  5.0D-01,  3.1D-01, -4.7D-01, r^2= 4.5D+00
   Bfn.  Coefficient  Atom+Function         Bfn.  Coefficient  Atom+Function  
  ----- ------------  ---------------      ----- ------------  ---------------
    35      4.899079   2 C  s                36     -1.629421   2 C  s         
    67      1.486325   3 C  s               132     -1.352985   6 H  s         
    72      1.274635   3 C  py               66     -1.242995   3 C  s         
    84      1.163503   3 C  d  0             98     -1.165565   4 C  s         
    41      1.150905   2 C  py              156     -1.146320  10 H  s         
 
 Vector   56  Occ=0.000000D+00  E= 9.604734D-01
              MO Center=  4.6D-01,  2.9D-01, -5.4D-01, r^2= 4.7D+00
   Bfn.  Coefficient  Atom+Function         Bfn.  Coefficient  Atom+Function  
  ----- ------------  ---------------      ----- ------------  ---------------
    35      4.185770   2 C  s                67      2.549872   3 C  s         
   138     -2.343593   7 H  s                76     -1.833684   3 C  pz        
    42     -1.751420   2 C  pz               83     -1.642304   3 C  d -1      
    36     -1.502249   2 C  s               115     -1.460335   4 C  d  0      
    98     -1.395617   4 C  s               132      1.364683   6 H  s         
 
 Vector   57  Occ=0.000000D+00  E= 9.916058D-01
              MO Center=  3.5D-01,  4.7D-01, -1.3D-01, r^2= 4.1D+00
   Bfn.  Coefficient  Atom+Function         Bfn.  Coefficient  Atom+Function  
  ----- ------------  ---------------      ----- ------------  ---------------
    36      7.508867   2 C  s                98     -4.881493   4 C  s         
    67     -3.954596   3 C  s                45     -3.754687   2 C  pz        
    43     -2.325449   2 C  px               44      2.165598   2 C  py        
    66     -1.696540   3 C  s               127      1.583721   5 H  s         
    75      1.472192   3 C  py              126      1.342865   5 H  s         
 
 Vector   58  Occ=0.000000D+00  E= 1.013115D+00
              MO Center=  3.6D-01,  5.6D-01, -4.1D-02, r^2= 4.3D+00
   Bfn.  Coefficient  Atom+Function         Bfn.  Coefficient  Atom+Function  
  ----- ------------  ---------------      ----- ------------  ---------------
    36      5.768034   2 C  s                67     -4.628158   3 C  s         
    45     -2.283673   2 C  pz               44      1.919432   2 C  py        
    98     -1.907982   4 C  s               156     -1.495542  10 H  s         
    74     -1.368013   3 C  px               76      1.363171   3 C  pz        
    82      1.358542   3 C  d -2             43     -1.349797   2 C  px        
 
 Vector   59  Occ=0.000000D+00  E= 1.041800D+00
              MO Center=  7.1D-01, -1.7D-01, -4.8D-01, r^2= 4.2D+00
   Bfn.  Coefficient  Atom+Function         Bfn.  Coefficient  Atom+Function  
  ----- ------------  ---------------      ----- ------------  ---------------
    35      2.832472   2 C  s                66     -2.393599   3 C  s         
    36      2.273606   2 C  s               144     -1.977549   8 H  s         
   150      1.936075   9 H  s                 5     -1.861255   1 O  s         
   117      1.740473   4 C  d  2             41      1.541573   2 C  py        
    44      1.266465   2 C  py               72      1.246610   3 C  py        
 
 Vector   60  Occ=0.000000D+00  E= 1.078569D+00
              MO Center=  6.7D-01,  1.8D-02, -6.7D-02, r^2= 4.1D+00
   Bfn.  Coefficient  Atom+Function         Bfn.  Coefficient  Atom+Function  
  ----- ------------  ---------------      ----- ------------  ---------------
    98      4.160775   4 C  s                66     -4.046964   3 C  s         
    45      3.789430   2 C  pz               97      3.667881   4 C  s         
    36     -3.442507   2 C  s                41      2.593038   2 C  py        
   104      2.480815   4 C  pz               72      2.372101   3 C  py        
    42      2.332925   2 C  pz               53     -2.242009   2 C  d  0      
 
 Vector   61  Occ=0.000000D+00  E= 1.105291D+00
              MO Center=  3.7D-01,  6.3D-02,  6.1D-02, r^2= 3.8D+00
   Bfn.  Coefficient  Atom+Function         Bfn.  Coefficient  Atom+Function  
  ----- ------------  ---------------      ----- ------------  ---------------
    36      7.623150   2 C  s                67     -5.336043   3 C  s         
    98     -2.969583   4 C  s                66      2.147064   3 C  s         
   126     -2.002918   5 H  s                45     -1.962409   2 C  pz        
   132      1.662586   6 H  s                72     -1.599711   3 C  py        
    41     -1.477436   2 C  py               53      1.432008   2 C  d  0      
 
 Vector   62  Occ=0.000000D+00  E= 1.146679D+00
              MO Center=  6.2D-01,  1.1D-02, -3.4D-02, r^2= 3.6D+00
   Bfn.  Coefficient  Atom+Function         Bfn.  Coefficient  Atom+Function  
  ----- ------------  ---------------      ----- ------------  ---------------
    67      5.089881   3 C  s                36     -3.823822   2 C  s         
    44     -2.364150   2 C  py              126      1.842187   5 H  s         
    97     -1.771587   4 C  s                54      1.605731   2 C  d  1      
    43      1.522476   2 C  px               55      1.472652   2 C  d  2      
    42     -1.451206   2 C  pz               75     -1.421050   3 C  py        
 
 Vector   63  Occ=0.000000D+00  E= 1.215267D+00
              MO Center=  5.6D-01,  2.0D-01, -1.4D-01, r^2= 3.8D+00
   Bfn.  Coefficient  Atom+Function         Bfn.  Coefficient  Atom+Function  
  ----- ------------  ---------------      ----- ------------  ---------------
    36      6.797628   2 C  s                66     -5.016625   3 C  s         
    67     -3.374778   3 C  s                97     -3.352453   4 C  s         
    35      3.192039   2 C  s                72      1.939872   3 C  py        
    51     -1.771621   2 C  d -2             52      1.686500   2 C  d -1      
   138      1.649731   7 H  s                41      1.513366   2 C  py        
 
 Vector   64  Occ=0.000000D+00  E= 1.347974D+00
              MO Center=  3.5D-01,  5.4D-01,  2.2D-01, r^2= 3.6D+00
   Bfn.  Coefficient  Atom+Function         Bfn.  Coefficient  Atom+Function  
  ----- ------------  ---------------      ----- ------------  ---------------
    66      4.658177   3 C  s                35      4.027111   2 C  s         
    67     -2.962172   3 C  s                36     -2.873487   2 C  s         
    65     -2.386809   3 C  s               132     -2.039911   6 H  s         
    34     -1.490110   2 C  s               133      1.423168   6 H  s         
    72      1.357891   3 C  py              139      1.054051   7 H  s         
 
 Vector   65  Occ=0.000000D+00  E= 1.415827D+00
              MO Center=  1.5D-01,  5.2D-01, -4.4D-02, r^2= 3.4D+00
   Bfn.  Coefficient  Atom+Function         Bfn.  Coefficient  Atom+Function  
  ----- ------------  ---------------      ----- ------------  ---------------
    36      4.220370   2 C  s                66      3.938792   3 C  s         
    67     -3.924653   3 C  s                35     -3.783052   2 C  s         
    73     -2.297165   3 C  pz              138     -2.243033   7 H  s         
   139      2.220123   7 H  s               126      1.794120   5 H  s         
    76      1.685298   3 C  pz               65     -1.598382   3 C  s         
 
 Vector   66  Occ=0.000000D+00  E= 1.433090D+00
              MO Center=  1.0D+00, -4.5D-01, -1.1D+00, r^2= 3.6D+00
   Bfn.  Coefficient  Atom+Function         Bfn.  Coefficient  Atom+Function  
  ----- ------------  ---------------      ----- ------------  ---------------
    98      9.821716   4 C  s                97     -7.405590   4 C  s         
    96      2.988882   4 C  s                36     -2.598714   2 C  s         
   145     -2.363449   8 H  s               151     -2.240187   9 H  s         
   157     -2.066959  10 H  s               144      1.661545   8 H  s         
   150      1.591425   9 H  s               104      1.517148   4 C  pz        
 
 Vector   67  Occ=0.000000D+00  E= 1.443565D+00
              MO Center=  2.8D-01,  5.1D-03,  7.6D-02, r^2= 4.1D+00
   Bfn.  Coefficient  Atom+Function         Bfn.  Coefficient  Atom+Function  
  ----- ------------  ---------------      ----- ------------  ---------------
    98      4.666780   4 C  s                66      4.282286   3 C  s         
    35     -3.251770   2 C  s                67     -2.592813   3 C  s         
    45      2.431382   2 C  pz               97     -2.279693   4 C  s         
   133      2.156678   6 H  s                76     -2.057726   3 C  pz        
   127     -1.843301   5 H  s               132     -1.677362   6 H  s         
 
 Vector   68  Occ=0.000000D+00  E= 1.446125D+00
              MO Center=  4.5D-01,  5.9D-03, -3.8D-01, r^2= 3.3D+00
   Bfn.  Coefficient  Atom+Function         Bfn.  Coefficient  Atom+Function  
  ----- ------------  ---------------      ----- ------------  ---------------
    98      4.224549   4 C  s                36     -3.259547   2 C  s         
    97     -2.494230   4 C  s                 5      2.140087   1 O  s         
    66     -1.845079   3 C  s                67      1.691165   3 C  s         
    45      1.261772   2 C  pz               96      1.032864   4 C  s         
    44     -0.980800   2 C  py               40      0.911414   2 C  px        
 
 Vector   69  Occ=0.000000D+00  E= 1.471419D+00
              MO Center=  9.4D-01, -2.5D-01, -9.7D-01, r^2= 3.4D+00
   Bfn.  Coefficient  Atom+Function         Bfn.  Coefficient  Atom+Function  
  ----- ------------  ---------------      ----- ------------  ---------------
    66      1.644377   3 C  s                36      1.628344   2 C  s         
    98     -1.481323   4 C  s                97      1.223407   4 C  s         
     5     -1.199333   1 O  s                67     -1.180298   3 C  s         
   103      1.103437   4 C  py               71     -0.986612   3 C  px        
   106     -0.763454   4 C  py               65     -0.747043   3 C  s         
 
 Vector   70  Occ=0.000000D+00  E= 1.481528D+00
              MO Center=  9.8D-01, -4.1D-01, -1.0D+00, r^2= 3.3D+00
   Bfn.  Coefficient  Atom+Function         Bfn.  Coefficient  Atom+Function  
  ----- ------------  ---------------      ----- ------------  ---------------
   156     -2.662353  10 H  s                36      2.612627   2 C  s         
   102     -2.166136   4 C  px              157      1.977270  10 H  s         
   126      1.723395   5 H  s               103      1.678089   4 C  py        
   104     -1.676918   4 C  pz               66     -1.535749   3 C  s         
    35     -1.419039   2 C  s               127     -1.397142   5 H  s         
 
 Vector   71  Occ=0.000000D+00  E= 1.512630D+00
              MO Center=  3.4D-01,  9.1D-02, -3.7D-01, r^2= 4.0D+00
   Bfn.  Coefficient  Atom+Function         Bfn.  Coefficient  Atom+Function  
  ----- ------------  ---------------      ----- ------------  ---------------
    98      2.444285   4 C  s               144      1.754625   8 H  s         
   102     -1.478909   4 C  px              103     -1.426855   4 C  py        
   145     -1.348101   8 H  s                45      1.252181   2 C  pz        
   150     -1.042081   9 H  s                66      0.974046   3 C  s         
    97     -0.929980   4 C  s                36     -0.844377   2 C  s         
 
 Vector   72  Occ=0.000000D+00  E= 1.542273D+00
              MO Center=  3.0D-01,  5.2D-01, -1.5D-01, r^2= 4.5D+00
   Bfn.  Coefficient  Atom+Function         Bfn.  Coefficient  Atom+Function  
  ----- ------------  ---------------      ----- ------------  ---------------
    36      4.364009   2 C  s                35     -3.619806   2 C  s         
    98     -3.615642   4 C  s                97      3.128612   4 C  s         
    67     -2.465810   3 C  s                73      2.181798   3 C  pz        
   132     -1.802178   6 H  s               133      1.456670   6 H  s         
   138      1.381280   7 H  s               102     -1.301853   4 C  px        
 
 Vector   73  Occ=0.000000D+00  E= 1.578158D+00
              MO Center=  4.9D-01, -3.0D-02, -8.9D-02, r^2= 3.3D+00
   Bfn.  Coefficient  Atom+Function         Bfn.  Coefficient  Atom+Function  
  ----- ------------  ---------------      ----- ------------  ---------------
    35      3.504400   2 C  s                36     -2.848507   2 C  s         
    40     -2.105645   2 C  px               97     -1.930404   4 C  s         
    67      1.886639   3 C  s               126      1.812841   5 H  s         
    72      1.646749   3 C  py               42     -1.458506   2 C  pz        
    34     -1.448485   2 C  s                45      1.338927   2 C  pz        
 
 Vector   74  Occ=0.000000D+00  E= 1.595773D+00
              MO Center=  3.5D-01,  3.8D-01, -1.5D-01, r^2= 3.4D+00
   Bfn.  Coefficient  Atom+Function         Bfn.  Coefficient  Atom+Function  
  ----- ------------  ---------------      ----- ------------  ---------------
    36     -5.390714   2 C  s                66     -5.327836   3 C  s         
    35      5.162398   2 C  s                67      4.012671   3 C  s         
    41      3.764551   2 C  py               71     -2.563669   3 C  px        
    72      2.448235   3 C  py               40     -2.049659   2 C  px        
    98      1.800652   4 C  s                82      1.679387   3 C  d -2      
 
 Vector   75  Occ=0.000000D+00  E= 1.641906D+00
              MO Center=  4.8D-01,  1.7D-01, -3.6D-02, r^2= 3.7D+00
   Bfn.  Coefficient  Atom+Function         Bfn.  Coefficient  Atom+Function  
  ----- ------------  ---------------      ----- ------------  ---------------
    66      2.663095   3 C  s                35      2.358136   2 C  s         
    98      2.001349   4 C  s                 5     -1.881448   1 O  s         
    97     -1.778467   4 C  s                67     -1.381185   3 C  s         
   104     -1.201566   4 C  pz              144      1.152549   8 H  s         
   103     -1.028654   4 C  py              145     -1.018374   8 H  s         
 
 Vector   76  Occ=0.000000D+00  E= 1.695701D+00
              MO Center=  4.8D-01,  2.7D-01, -3.9D-01, r^2= 3.9D+00
   Bfn.  Coefficient  Atom+Function         Bfn.  Coefficient  Atom+Function  
  ----- ------------  ---------------      ----- ------------  ---------------
    97     -5.712969   4 C  s                35      5.241551   2 C  s         
   104     -3.048647   4 C  pz               42     -3.013205   2 C  pz        
    72     -1.803993   3 C  py              102      1.743584   4 C  px        
    34     -1.590502   2 C  s                40      1.587515   2 C  px        
    96      1.528344   4 C  s               138      1.453958   7 H  s         
 
 Vector   77  Occ=0.000000D+00  E= 1.700411D+00
              MO Center=  4.8D-02,  1.4D-01, -1.1D-01, r^2= 3.6D+00
   Bfn.  Coefficient  Atom+Function         Bfn.  Coefficient  Atom+Function  
  ----- ------------  ---------------      ----- ------------  ---------------
     5      3.670395   1 O  s                72      2.880599   3 C  py        
    36     -2.436815   2 C  s                66     -2.091539   3 C  s         
   138     -1.675212   7 H  s                12      1.427733   1 O  px        
    41      1.266315   2 C  py               43      1.157783   2 C  px        
    44     -0.971436   2 C  py               67      0.956902   3 C  s         
 
 Vector   78  Occ=0.000000D+00  E= 1.791322D+00
              MO Center=  4.1D-01,  2.5D-01,  2.2D-02, r^2= 3.5D+00
   Bfn.  Coefficient  Atom+Function         Bfn.  Coefficient  Atom+Function  
  ----- ------------  ---------------      ----- ------------  ---------------
    35      3.212867   2 C  s                97     -2.825314   4 C  s         
    36      1.663757   2 C  s                45     -1.308912   2 C  pz        
   104     -1.244012   4 C  pz               42     -1.074517   2 C  pz        
    67     -1.032424   3 C  s                72      1.027137   3 C  py        
   102      0.964677   4 C  px               96      0.917323   4 C  s         
 
 Vector   79  Occ=0.000000D+00  E= 1.814836D+00
              MO Center= -6.3D-01,  1.8D-01,  1.9D-01, r^2= 2.6D+00
   Bfn.  Coefficient  Atom+Function         Bfn.  Coefficient  Atom+Function  
  ----- ------------  ---------------      ----- ------------  ---------------
    35      4.119060   2 C  s                 5     -3.325345   1 O  s         
    40     -2.456177   2 C  px               41      2.120153   2 C  py        
    72      1.985582   3 C  py               66     -1.801588   3 C  s         
    71     -1.689250   3 C  px               12     -1.383679   1 O  px        
   132     -1.043330   6 H  s               138     -1.026041   7 H  s         
 
 Vector   80  Occ=0.000000D+00  E= 1.840825D+00
              MO Center=  1.4D-01,  2.2D-01, -1.2D-01, r^2= 3.8D+00
   Bfn.  Coefficient  Atom+Function         Bfn.  Coefficient  Atom+Function  
  ----- ------------  ---------------      ----- ------------  ---------------
    35      2.114447   2 C  s               156     -0.962022  10 H  s         
    36     -0.930761   2 C  s               104     -0.865253   4 C  pz        
    71     -0.796341   3 C  px               97     -0.791923   4 C  s         
   150      0.715705   9 H  s               157      0.675918  10 H  s         
   126     -0.660371   5 H  s               103      0.542921   4 C  py        
 
 Vector   81  Occ=0.000000D+00  E= 1.865338D+00
              MO Center=  4.7D-01,  2.2D-01, -3.9D-01, r^2= 4.0D+00
   Bfn.  Coefficient  Atom+Function         Bfn.  Coefficient  Atom+Function  
  ----- ------------  ---------------      ----- ------------  ---------------
    35      6.356896   2 C  s                66     -4.442437   3 C  s         
    72      3.524232   3 C  py               97     -3.164203   4 C  s         
    36      2.257379   2 C  s               104     -1.726588   4 C  pz        
    41      1.636132   2 C  py               34     -1.586287   2 C  s         
    67     -1.565940   3 C  s                45     -1.408604   2 C  pz        
 
 Vector   82  Occ=0.000000D+00  E= 1.920623D+00
              MO Center=  3.3D-01, -1.5D-01, -3.0D-01, r^2= 3.2D+00
   Bfn.  Coefficient  Atom+Function         Bfn.  Coefficient  Atom+Function  
  ----- ------------  ---------------      ----- ------------  ---------------
    36      1.432015   2 C  s                98     -1.434946   4 C  s         
    45     -1.247774   2 C  pz              103     -1.212413   4 C  py        
    97     -1.114686   4 C  s                35      0.992250   2 C  s         
    66     -0.880835   3 C  s                41      0.795923   2 C  py        
   150     -0.757581   9 H  s                42     -0.737081   2 C  pz        
 
 Vector   83  Occ=0.000000D+00  E= 1.991125D+00
              MO Center=  8.1D-01, -2.1D-01, -3.4D-01, r^2= 3.4D+00
   Bfn.  Coefficient  Atom+Function         Bfn.  Coefficient  Atom+Function  
  ----- ------------  ---------------      ----- ------------  ---------------
    35      3.513121   2 C  s                98      3.473001   4 C  s         
    66     -2.756195   3 C  s                40     -2.248472   2 C  px        
    72      1.968091   3 C  py               41      1.722961   2 C  py        
    43     -1.610457   2 C  px               67     -1.429155   3 C  s         
    71     -1.395044   3 C  px               36     -1.323424   2 C  s         
 
 Vector   84  Occ=0.000000D+00  E= 1.998749D+00
              MO Center=  6.4D-01, -1.1D-01, -7.7D-01, r^2= 3.4D+00
   Bfn.  Coefficient  Atom+Function         Bfn.  Coefficient  Atom+Function  
  ----- ------------  ---------------      ----- ------------  ---------------
    36      4.277668   2 C  s                98     -3.810387   4 C  s         
    45     -2.037887   2 C  pz               35     -1.763442   2 C  s         
    67     -1.459333   3 C  s               156      1.151674  10 H  s         
   107     -1.025359   4 C  pz              104      0.905244   4 C  pz        
     5     -0.826489   1 O  s                34      0.762604   2 C  s         
 
 Vector   85  Occ=0.000000D+00  E= 2.088459D+00
              MO Center= -2.3D-02,  1.5D-01, -2.7D-02, r^2= 3.5D+00
   Bfn.  Coefficient  Atom+Function         Bfn.  Coefficient  Atom+Function  
  ----- ------------  ---------------      ----- ------------  ---------------
    98      1.947022   4 C  s                36     -1.672251   2 C  s         
   156     -0.759369  10 H  s               138      0.749335   7 H  s         
    14      0.674327   1 O  pz               40      0.565809   2 C  px        
    41     -0.550779   2 C  py              150     -0.528701   9 H  s         
   144     -0.521187   8 H  s                83      0.504009   3 C  d -1      
 
 Vector   86  Occ=0.000000D+00  E= 2.096749D+00
              MO Center= -3.7D-01,  6.1D-02,  6.2D-02, r^2= 2.9D+00
   Bfn.  Coefficient  Atom+Function         Bfn.  Coefficient  Atom+Function  
  ----- ------------  ---------------      ----- ------------  ---------------
    36      5.971864   2 C  s                67     -5.677563   3 C  s         
    35     -3.415101   2 C  s                66      3.331671   3 C  s         
    41     -3.047792   2 C  py               71      2.753718   3 C  px        
    13      1.884837   1 O  py               82     -1.475052   3 C  d -2      
    43     -1.348556   2 C  px               75      1.348676   3 C  py        
 
 Vector   87  Occ=0.000000D+00  E= 2.166961D+00
              MO Center=  4.8D-01, -4.2D-02, -4.9D-01, r^2= 3.2D+00
   Bfn.  Coefficient  Atom+Function         Bfn.  Coefficient  Atom+Function  
  ----- ------------  ---------------      ----- ------------  ---------------
    98      2.072920   4 C  s                67     -1.638096   3 C  s         
    35     -1.079403   2 C  s                73      1.066749   3 C  pz        
   156     -0.864321  10 H  s                40      0.849345   2 C  px        
    44      0.811998   2 C  py               43     -0.782968   2 C  px        
    42     -0.762583   2 C  pz               36      0.722231   2 C  s         
 
 Vector   88  Occ=0.000000D+00  E= 2.200048D+00
              MO Center=  4.7D-01,  1.7D-01, -3.4D-01, r^2= 3.7D+00
   Bfn.  Coefficient  Atom+Function         Bfn.  Coefficient  Atom+Function  
  ----- ------------  ---------------      ----- ------------  ---------------
    98      2.025816   4 C  s                36     -1.085353   2 C  s         
    45      0.983923   2 C  pz               76     -0.919092   3 C  pz        
   132      0.790370   6 H  s                42     -0.765421   2 C  pz        
   103     -0.697542   4 C  py               97     -0.664572   4 C  s         
   117     -0.622326   4 C  d  2            138     -0.587980   7 H  s         
 
 Vector   89  Occ=0.000000D+00  E= 2.233654D+00
              MO Center=  5.2D-01,  1.1D-01,  9.1D-02, r^2= 3.4D+00
   Bfn.  Coefficient  Atom+Function         Bfn.  Coefficient  Atom+Function  
  ----- ------------  ---------------      ----- ------------  ---------------
    36      3.175739   2 C  s                67     -1.663874   3 C  s         
    98     -1.316615   4 C  s                 5     -1.220494   1 O  s         
    66      1.201834   3 C  s                72     -1.205238   3 C  py        
    42     -1.171031   2 C  pz               35     -0.914351   2 C  s         
    51      0.771581   2 C  d -2            102      0.734595   4 C  px        
 
 Vector   90  Occ=0.000000D+00  E= 2.236898D+00
              MO Center=  8.2D-01, -3.3D-01, -9.6D-01, r^2= 3.3D+00
   Bfn.  Coefficient  Atom+Function         Bfn.  Coefficient  Atom+Function  
  ----- ------------  ---------------      ----- ------------  ---------------
    36      2.152467   2 C  s                67     -1.545319   3 C  s         
   150      1.268228   9 H  s                98     -1.099936   4 C  s         
   144     -1.032677   8 H  s               117      0.668389   4 C  d  2      
   159      0.541443  10 H  py               43     -0.537149   2 C  px        
    35     -0.514076   2 C  s               149     -0.494943   9 H  s         
 
 Vector   91  Occ=0.000000D+00  E= 2.267820D+00
              MO Center=  7.8D-01, -5.8D-02, -9.0D-01, r^2= 3.3D+00
   Bfn.  Coefficient  Atom+Function         Bfn.  Coefficient  Atom+Function  
  ----- ------------  ---------------      ----- ------------  ---------------
    66      1.775594   3 C  s                36      1.658015   2 C  s         
    98     -1.387038   4 C  s                41     -1.310086   2 C  py        
    67     -0.969944   3 C  s               156      0.904232  10 H  s         
    76      0.867624   3 C  pz              126     -0.780347   5 H  s         
    72     -0.731786   3 C  py              117     -0.719583   4 C  d  2      
 
 Vector   92  Occ=0.000000D+00  E= 2.286894D+00
              MO Center=  6.9D-01, -9.4D-02, -3.6D-01, r^2= 3.7D+00
   Bfn.  Coefficient  Atom+Function         Bfn.  Coefficient  Atom+Function  
  ----- ------------  ---------------      ----- ------------  ---------------
    98      3.631484   4 C  s                66      2.853758   3 C  s         
[...]
    21     -0.871471   1 O  d -1             42     -0.807416   2 C  pz        
    97     -0.720056   4 C  s                45     -0.701982   2 C  pz        
    98     -0.524158   4 C  s                67     -0.516305   3 C  s         
     5     -0.511986   1 O  s               102      0.497659   4 C  px        
 
 Vector  154  Occ=0.000000D+00  E= 6.676956D+00
              MO Center= -8.7D-01, -1.8D-01,  2.0D-01, r^2= 5.7D-01
   Bfn.  Coefficient  Atom+Function         Bfn.  Coefficient  Atom+Function  
  ----- ------------  ---------------      ----- ------------  ---------------
    18      1.061590   1 O  d  1             23     -1.036979   1 O  d  1      
    97     -0.861067   4 C  s                42     -0.775819   2 C  pz        
    35      0.755338   2 C  s               102      0.640766   4 C  px        
    54     -0.545797   2 C  d  1             14      0.406113   1 O  pz        
    16     -0.394464   1 O  d -1             11      0.389803   1 O  pz        
 
 Vector  155  Occ=0.000000D+00  E= 6.842323D+00
              MO Center= -8.8D-01, -1.9D-01,  2.0D-01, r^2= 5.9D-01
   Bfn.  Coefficient  Atom+Function         Bfn.  Coefficient  Atom+Function  
  ----- ------------  ---------------      ----- ------------  ---------------
     5      2.108073   1 O  s                40      1.770505   2 C  px        
     9      1.361532   1 O  px               97     -1.271678   4 C  s         
     4      1.204713   1 O  s                20      1.048968   1 O  d -2      
    42     -0.973140   2 C  pz               35     -0.867715   2 C  s         
    12      0.846362   1 O  px               15     -0.833434   1 O  d -2      
 
 Vector  156  Occ=0.000000D+00  E= 7.055363D+00
              MO Center= -8.9D-01, -1.9D-01,  2.0D-01, r^2= 6.4D-01
   Bfn.  Coefficient  Atom+Function         Bfn.  Coefficient  Atom+Function  
  ----- ------------  ---------------      ----- ------------  ---------------
    66     -3.177724   3 C  s                35      3.029496   2 C  s         
    40     -2.720018   2 C  px               72      2.688872   3 C  py        
    24     -1.577982   1 O  d  2             36      1.455455   2 C  s         
    67     -1.297635   3 C  s                10      1.283259   1 O  py        
    19      1.016354   1 O  d  2             13      0.868151   1 O  py        
 
 Vector  157  Occ=0.000000D+00  E= 2.194108D+01
              MO Center=  9.2D-02,  7.6D-01,  3.4D-02, r^2= 1.3D+00
   Bfn.  Coefficient  Atom+Function         Bfn.  Coefficient  Atom+Function  
  ----- ------------  ---------------      ----- ------------  ---------------
    64      1.571705   3 C  s                65     -1.334744   3 C  s         
    67     -1.267443   3 C  s                63     -1.238702   3 C  s         
    98      1.086496   4 C  s                95     -0.779397   4 C  s         
    96      0.642864   4 C  s                94      0.616496   4 C  s         
    35      0.512008   2 C  s                40     -0.483394   2 C  px        
 
 Vector  158  Occ=0.000000D+00  E= 2.198229D+01
              MO Center=  8.9D-01, -2.5D-01, -7.3D-01, r^2= 1.2D+00
   Bfn.  Coefficient  Atom+Function         Bfn.  Coefficient  Atom+Function  
  ----- ------------  ---------------      ----- ------------  ---------------
    95      1.435450   4 C  s                96     -1.326081   4 C  s         
    98     -1.152047   4 C  s                94     -1.129382   4 C  s         
    34     -0.928237   2 C  s                36     -0.869360   2 C  s         
    33      0.841777   2 C  s                65     -0.662898   3 C  s         
    32     -0.657465   2 C  s                64      0.617870   3 C  s         
 
 Vector  159  Occ=0.000000D+00  E= 2.210280D+01
              MO Center=  6.0D-01, -1.0D-01, -5.0D-02, r^2= 6.7D-01
   Bfn.  Coefficient  Atom+Function         Bfn.  Coefficient  Atom+Function  
  ----- ------------  ---------------      ----- ------------  ---------------
    36      2.212602   2 C  s                33     -1.558515   2 C  s         
    34      1.545727   2 C  s                35     -1.345073   2 C  s         
    98     -1.262984   4 C  s                32      1.220348   2 C  s         
    67     -1.181968   3 C  s                97      0.699641   4 C  s         
    95      0.677769   4 C  s                96     -0.614620   4 C  s         
 
 Vector  160  Occ=0.000000D+00  E= 4.341561D+01
              MO Center= -8.8D-01, -1.8D-01,  2.0D-01, r^2= 1.2D-01
   Bfn.  Coefficient  Atom+Function         Bfn.  Coefficient  Atom+Function  
  ----- ------------  ---------------      ----- ------------  ---------------
     4      2.510403   1 O  s                 3     -1.875393   1 O  s         
     2      1.731610   1 O  s                 1     -1.395855   1 O  s         
     5     -0.878938   1 O  s                36      0.822751   2 C  s         
     9      0.563419   1 O  px               66     -0.513532   3 C  s         
    40      0.467883   2 C  px               72      0.455691   3 C  py        
 

 center of mass
 --------------
 x =   0.30619385 y =   0.09486592 z =  -0.27792450

 moments of inertia (a.u.)
 ------------------
         199.929421407019          45.827674355722          83.840970922075
          45.827674355722         247.949195795773         -52.573942677945
          83.840970922075         -52.573942677945         238.923971499531
 
     Multipole analysis of the density
     ---------------------------------
 
     L   x y z        total         alpha         beta         nuclear
     -   - - -        -----         -----         ----         -------
     0   0 0 0     -0.000000    -16.000000    -16.000000     32.000000
 
     1   1 0 0      0.693289     -6.233508     -6.233508     13.160305
     1   0 1 0      0.324903     -1.615791     -1.615791      3.556485
     1   0 0 1     -0.053695      5.319082      5.319082    -10.691860
 
     2   2 0 0    -20.003034    -54.402840    -54.402840     88.802646
     2   1 1 0     -1.160882     13.965095     13.965095    -29.091072
     2   1 0 1      0.141273     26.512375     26.512375    -52.883478
     2   0 2 0    -17.829703    -40.465650    -40.465650     63.101598
     2   0 1 1      0.231094    -15.372596    -15.372596     30.976287
     2   0 0 2    -18.226284    -45.695638    -45.695638     73.164992
 
 *** CALLING NEW AORESP DRIVER FOR CLOSED AND OPEN SHELLS ***
 Entering AOResponse driver routine


--------------------------------------------------------------------------------

          ****************
          *** RESPONSE ***
          ****************

 Response module for NWChem and dynamic CPKS solver
 developed by J. Autschbach and coworkers, SUNY Buffalo
 The methodology used in this program is described in 
 ChemPhysChem 12 (2011), 3224-3235 (main reference)
 J. Chem. Phys. 123 (2005), 114103
 J. Chem. Phys. 122 (2005), 224115
 J. Chem. Phys. 122 (2005), 074105
 Comp. Lett. 3 (2007), 131-150 (contact JA for a copy)
 Please cite this work in publications based on results
 obtained with this code. Thank you!

 For extension of response module to open shell
 calculations please acknowledge:
 F. Aquino, Northwestern University, Schatz Rsrch Group
 The update to the methodology is described in
 J. Phys. Chem. A 118 (2014) 517-525



          -----------------------------------------------
          Solving response equations for perturbing field
          -----------------------------------------------

 number of frequencies:     1
 frequency in a.u.:  0.9319600E-01
 Perturbing field: electric
 Using GIAO formalism for OptRot
 Adding quadrupole terms to OptRot
 to create an origin in dependent tensor.
 Using El. Dipole Length Gauge
 
 Applying DAMPING constant of  0.003700 a.u.
 
 Setting up CPKS
 with frequency omega =      0.09319600 a.u.
 and a damping of            0.00370000 a.u.

 
                            NWChem Dynamic CPHF Module
                            --------------------------
 
 
    scftype = RHF 
    nclosed =   16
      nopen =    0
  variables =     9216
  num. vecs =        3
  tolerance =   1.0D-07
  max. iter =  100

 SCF residual:   3.631839637628898E-006


Iterative solution of linear equations
  No. of variables     4608
  No. of equations        3
  Maximum subspace       99
       Convergence  1.0D-07
        Start time     65.8


   iter   nsub   residual    time 
   ----  ------  --------  --------- 
 dft_CPHF2_read: failed to open
 ./methyloxirane_blyp-def2-tzvp_488.9_17.inp.aoresp_fiao_f1
     1      3    3.81D+00      97.9
     2      6    2.82D+00     130.1
     3      9    2.46D-01     162.3
     4     12    5.71D-02     194.6
     5     15    1.05D-02     226.8
     6     18    1.32D-03     259.1
     7     21    1.52D-04     291.3
     8     24    1.55D-05     323.5
     9     27    1.38D-06     355.8
    10     30    5.21D-07     388.1
    11     33    1.90D-08     420.3

 Calculating some arrays needed for GIAO optical rotation

    0 giaofock schwarz done =      93.63%
    0 giaofock schwarz done =      95.63%
 aor_r1_tensor_giao: roadata output requested
 dip-quad polarizability Re:

              1        2        3        4        5        6      
    1   77.9097  -6.6442 -27.9521  -4.3322   1.4705   9.3681
    2  -12.2516  25.9261   3.5878  23.2705 -21.6640   4.2393
    3   -7.0373   1.1903  39.4289  -0.1627  14.1214 -40.5500
 traceless dip-quad polarizability:

              1        2        3      
    1   75.3918  -9.9664 -41.9282
    2   -9.9664 -47.9711   2.2057
    3  -41.9282   2.2057 -27.4207

              1        2        3      
    1  -26.0065  38.8892   5.3818
    2   38.8892  27.2767 -32.4960
    3    5.3818 -32.4960  -1.2702

              1        2        3      
    1   13.3190   1.7854  59.1433
    2    1.7854  23.6310  21.1821
    3   59.1433  21.1821 -36.9500

 roa begin

 alpha real:
 XX       0.4108653848571E+02
 XY      -0.5287866760262E+01
 XZ      -0.3093978159950E+01
 YX      -0.5287866762342E+01
 YY       0.4403149956370E+02
 YZ       0.3145393624666E+01
 ZX      -0.3093978162114E+01
 ZY       0.3145393631122E+01
 ZZ       0.4141259464267E+02

 alpha im:
 XX       0.1115695326986E+00
 XY      -0.3016893759453E-01
 XZ      -0.1154222568035E-01
 YX      -0.3016893230958E-01
 YY       0.1289455728037E+00
 YZ       0.1829790808485E-01
 ZX      -0.1154222083498E-01
 ZY       0.1829790473493E-01
 ZZ       0.1225103994956E+00

 beta real:
 XX      -0.1347505806423E+00
 XY       0.9428314880120E+00
 XZ       0.2050427054423E+00
 YX      -0.8936450973486E+00
 YY       0.1335678815785E+00
 YZ      -0.1546939954921E+01
 ZX      -0.4870420431598E+00
 ZY       0.1856490118017E+01
 ZZ       0.3420779965052E-03

 G-prime = -omega beta(real):
 XX      -0.1347505806423E+00
 XY       0.9428314880120E+00
 XZ       0.2050427054423E+00
 YX      -0.8936450973486E+00
 YY       0.1335678815785E+00
 YZ      -0.1546939954921E+01
 ZX      -0.4870420431598E+00
 ZY       0.1856490118017E+01
 ZZ       0.3420779965052E-03

 beta im:
 XX      -0.5803030125623E-02
 XY       0.1347252037943E-01
 XZ       0.3028650276599E-02
 YX      -0.7810651651883E-02
 YY       0.4399573867249E-02
 YZ      -0.2338936496043E-01
 ZX      -0.1373524054596E-01
 ZY       0.3974817685181E-01
 ZZ       0.7573125858410E-03

 G-prime = -omega beta(imag):
 XX      -0.5803030125623E-02
 XY       0.1347252037943E-01
 XZ       0.3028650276599E-02
 YX      -0.7810651651883E-02
 YY       0.4399573867249E-02
 YZ      -0.2338936496043E-01
 ZX      -0.1373524054596E-01
 ZY       0.3974817685181E-01
 ZZ       0.7573125858410E-03

 dipole-quadrupole real (Cartesian):
 XXX      0.7790972690518E+02
 XXY     -0.6644237014018E+01
 XXZ     -0.2795213573867E+02
 XYY     -0.4332168971824E+01
 XYZ      0.1470470757181E+01
 XZZ      0.9368080812661E+01
 YXX     -0.1225158018846E+02
 YXY      0.2592610367799E+02
 YXZ      0.3587836715125E+01
 YYY      0.2327051466529E+02
 YYZ     -0.2166402902088E+02
 YZZ      0.4239303234910E+01
 ZXX     -0.7037343716648E+01
 ZXY      0.1190256884879E+01
 ZXZ      0.3942885016682E+02
 ZYY     -0.1626626333052E+00
 ZYZ      0.1412142170970E+02
 ZZZ     -0.4055003790100E+02

 dipole-quadrupole imag (Cartesian):
 XXX      0.2741194969157E+00
 XXY     -0.3636520344592E-01
 XXZ     -0.7885899411187E-01
 XYY     -0.2883366031022E-01
 XYZ      0.2606970143860E-02
 XZZ      0.6195561980651E-01
 YXX     -0.5790428356470E-01
 YXY      0.6345882433949E-01
 YXZ      0.2001207328757E-01
 YYY      0.9216300069912E-01
 YYZ     -0.6072949741679E-01
 YZZ      0.9942942493483E-02
 ZXX     -0.3628833182689E-01
 ZXY      0.6481371807266E-03
 ZXZ      0.1468215215764E+00
 ZYY      0.4953137860000E-02
 ZYZ      0.6674336721354E-01
 ZZZ     -0.9286893524874E-01

 dipole-quadrupole (traceless):
 XXX      0.7539177098476E+02
 XXY     -0.9966355521027E+01
 XXZ     -0.4192820360801E+02
 XYY     -0.4797107283074E+02
 XYZ      0.2205706135772E+01
 XZZ     -0.2742069815402E+02
 YXX     -0.2600648913856E+02
 YXY      0.3888915551699E+02
 YXZ      0.5381755072687E+01
 YYY      0.2727665314207E+02
 YYZ     -0.3249604353132E+02
 YZZ     -0.1270164003508E+01
 ZXX      0.1331900655050E+02
 ZXY      0.1785385327318E+01
 ZXZ      0.5914327525023E+02
 ZYY      0.2363102817552E+02
 ZYZ      0.2118213256454E+02
 ZZZ     -0.3695003472602E+02

 roa end


 Electric Dipole Response Matrix (nonzero elements):

              1        2        3      
    1   41.0865  -5.2879  -3.0940
    2   -5.2879  44.0315   3.1454
    3   -3.0940   3.1454  41.4126
 
 Imaginary part:

              1        2        3      
    1    0.1116  -0.0302  -0.0115
    2   -0.0302   0.1289   0.0183
    3   -0.0115   0.0183   0.1225

 ------------------------------------------
 average:        42.17688 + I       0.12101


 DFT Linear Response polarizability / au 
 Frequency  =       0.0931960 / au
 Wavelength =     488.8981609 / nm
              X              Y              Z
 -----------------------------------------------
 X      41.0865385     -5.2878668     -3.0939782
 Y      -5.2878668     44.0314996      3.1453936
 Z      -3.0939782      3.1453936     41.4125946
 -----------------------------------------------
 Eigenvalues =      36.9546494     50.2267674     39.3492159
 Isotropic   =      42.1768776
 Anisotropic =      10.0034026
 -----------------------------------------------
 *************************

 DFT Linear Response IMAG polarizability / au 
 Frequency  =       0.0931960 / au
 Wavelength =     488.8981609 / nm
              X              Y              Z
 -----------------------------------------------
 X       0.1115695     -0.0301689     -0.0115422
 Y      -0.0301689      0.1289456      0.0182979
 Z      -0.0115422      0.0182979      0.1225104
 -----------------------------------------------
 Eigenvalues =       0.0887422      0.1631135      0.1111697
 Isotropic   =       0.1210085
 Anisotropic =       0.0539514
 -----------------------------------------------
 *************************

 Magnetic Dipole Response Matrix (nonzero elements):
 Optical rotation tensor Beta
 (Buckingham-Dunn version including dipole-quadrupole terms)

              1        2        3      
    1    2.6447  -0.4105   0.4442
    2   -0.4105  -1.5733  -1.7101
    3    0.4442  -1.7101  -1.0624
 
 Imaginary part:

              1        2        3      
    1    0.0623  -0.1446  -0.0325
    2    0.0838  -0.0472   0.2510
    3    0.1474  -0.4265  -0.0081

 ------------------------------------------
 average:         0.00301 + I       0.00231

 Principal components and PAS (Real part)
                 -3.04701
                  2.79787
                  0.25815
 ------------------------
 average:         0.00301

              1        2        3      
    1    0.0038   0.9694  -0.2455
    2    0.7580  -0.1629  -0.6316
    3    0.6523   0.1837   0.7354

 Chiral response tensor (Real part):

              1        2        3      
    1   -1.3178   0.2053  -0.2221
    2    0.2053   0.7912   0.8551
    3   -0.2221   0.8551   0.5357
 
 Principal components and PAS (Real part)
                  1.52801
                 -1.39443
                 -0.12457
 ------------------------
 average:         0.00301

              1        2        3      
    1    0.0038   0.9694  -0.2455
    2    0.7580  -0.1629  -0.6316
    3    0.6523   0.1837   0.7354
 Exiting AOResponse driver routine

 Task  times  cpu:      410.1s     wall:      419.7s
 
 
                                NWChem Input Module
                                -------------------
 
 
 Summary of allocated global arrays
-----------------------------------
  No active global arrays



                         GA Statistics for process    0
                         ------------------------------

       create   destroy   get      put      acc     scatter   gather  read&inc
calls: 3294     3294     7.89e+06 3.14e+06 7.05e+05 2694        0     1076     
number of processes/call 1.01e+00 1.03e+00 1.42e+00 0.00e+00 0.00e+00
bytes total:             1.55e+09 1.26e+08 1.67e+09 1.84e+02 0.00e+00 8.61e+03
bytes remote:            6.10e+08 3.29e+07 9.24e+08 0.00e+00 0.00e+00 0.00e+00
Max memory consumed for GA by this process: 11242192 bytes
 
MA_summarize_allocated_blocks: starting scan ...
MA_summarize_allocated_blocks: scan completed: 0 heap blocks, 0 stack blocks
MA usage statistics:

	allocation statistics:
					      heap	     stack
					      ----	     -----
	current number of blocks	         0	         0
	maximum number of blocks	        24	        52
	current total bytes		         0	         0
	maximum total bytes		   7519856	  48998312
	maximum total K-bytes		      7520	     48999
	maximum total M-bytes		         8	        49
 
 
                                     CITATION
                                     --------
                Please cite the following reference when publishing
                           results obtained with NWChem:
 
                 M. Valiev, E.J. Bylaska, N. Govind, K. Kowalski,
              T.P. Straatsma, H.J.J. van Dam, D. Wang, J. Nieplocha,
                        E. Apra, T.L. Windus, W.A. de Jong
                 "NWChem: a comprehensive and scalable open-source
                  solution for large scale molecular simulations"
                      Comput. Phys. Commun. 181, 1477 (2010)
                           doi:10.1016/j.cpc.2010.04.018
 
                                      AUTHORS
                                      -------
          E. Apra, E. J. Bylaska, W. A. de Jong, N. Govind, K. Kowalski,
       T. P. Straatsma, M. Valiev, H. J. J. van Dam, D. Wang, T. L. Windus,
        J. Hammond, J. Autschbach, K. Bhaskaran-Nair, J. Brabec, K. Lopata,
    S. A. Fischer, S. Krishnamoorthy, M. Jacquelin, W. Ma, M. Klemm, O. Villa,
      Y. Chen, V. Anisimov, F. Aquino, S. Hirata, M. T. Hackler, V. Konjkov,
            D. Mejia-Rodriguez, T. Risthaus, M. Malagoli, A. Marenich,
   A. Otero-de-la-Roza, J. Mullin, P. Nichols, R. Peverati, J. Pittner, Y. Zhao,
        P.-D. Fan, A. Fonari, M. J. Williamson, R. J. Harrison, J. R. Rehr,
      M. Dupuis, D. Silverstein, D. M. A. Smith, J. Nieplocha, V. Tipparaju,
    M. Krishnan, B. E. Van Kuiken, A. Vazquez-Mayagoitia, L. Jensen, M. Swart,
      Q. Wu, T. Van Voorhis, A. A. Auer, M. Nooijen, L. D. Crosby, E. Brown,
      G. Cisneros, G. I. Fann, H. Fruchtl, J. Garza, K. Hirao, R. A. Kendall,
      J. A. Nichols, K. Tsemekhman, K. Wolinski, J. Anchell, D. E. Bernholdt,
      P. Borowski, T. Clark, D. Clerc, H. Dachsel, M. J. O. Deegan, K. Dyall,
    D. Elwood, E. Glendening, M. Gutowski, A. C. Hess, J. Jaffe, B. G. Johnson,
     J. Ju, R. Kobayashi, R. Kutteh, Z. Lin, R. Littlefield, X. Long, B. Meng,
      T. Nakajima, S. Niu, L. Pollack, M. Rosing, K. Glaesemann, G. Sandrone,
      M. Stave, H. Taylor, G. Thomas, J. H. van Lenthe, A. T. Wong, Z. Zhang.

 Total times  cpu:      461.2s     wall:      471.8s
