 argument  1 = methyloxirane_blyp-def2-tzvp_488.9_03.inp
 


============================== echo of input deck ==============================
echo
start methyloxirane_blyp-def2-tzvp_488.9_03.inp
title "methyloxirane roa calculations at 488.9 nm, input generated in va  with delta_type=2"
charge 0



geometry units angstrom nocenter noautoz noautosym nucleus point;symmetry c1
 O -0.876112 -0.181788  0.200740
 C  0.577099 -0.158719  0.129069
 C -0.183852  1.087654  0.337439
 C  1.179394 -0.517497 -1.208802
 H  1.059037 -0.605770  1.005389
 H -0.237051  1.541121  1.330579
 H -0.314347  1.778366 -0.500246
 H  2.235363 -0.213952 -1.255079
 H  1.132268 -1.602307 -1.376540
 H  0.635637 -0.020159 -2.021648
end

basis spherical
* library def2-TZVP
end

 set prop:newaoresp 1
 set aor:roadata T
 set cphf:maxsub 100
 set cphf:acc 1.0d-10
 set cphf:maxiter 100

property
    response 1   0.093196
    bdtensor
    convergence 1e-7
    damping 0.0037
    giao
end

dft
 direct
 mult 1
 xc becke88 lyp
 iterations 250
 tolerances tight
 grid xfine
 convergence nolevelshifting
 convergence energy 1e-8
 convergence gradient 1e-7


end

task dft gradient
task dft property
================================================================================


                                         
                                         
 
 
              Northwest Computational Chemistry Package (NWChem) 6.8
              ------------------------------------------------------
 
 
                    Environmental Molecular Sciences Laboratory
                       Pacific Northwest National Laboratory
                                Richland, WA 99352
 
                              Copyright (c) 1994-2017
                       Pacific Northwest National Laboratory
                            Battelle Memorial Institute
 
             NWChem is an open-source computational chemistry package
                        distributed under the terms of the
                      Educational Community License (ECL) 2.0
             A copy of the license is included with this distribution
                              in the LICENSE.TXT file
 
                                  ACKNOWLEDGMENT
                                  --------------

            This software and its documentation were developed at the
            EMSL at Pacific Northwest National Laboratory, a multiprogram
            national laboratory, operated for the U.S. Department of Energy
            by Battelle under Contract Number DE-AC05-76RL01830. Support
            for this work was provided by the Department of Energy Office
            of Biological and Environmental Research, Office of Basic
            Energy Sciences, and the Office of Advanced Scientific Computing.


           Job information
           ---------------

    hostname        = cpn-f11-19-01.cbls.ccr.buffalo.edu
    program         = /util/academic/nwchem/nwchem-6.8/bin/LINUX64/nwchem
    date            = Fri Mar  1 09:54:10 2019

    compiled        = Tue_Nov_06_14:59:08_2018
    source          = /util/academic/nwchem/nwchem-6.8
    nwchem branch   = 6.8
    nwchem revision = v6.8-47-gdf6c956
    ga revision     = ga-5.6.3
    use scalapack   = F
    input           = methyloxirane_blyp-def2-tzvp_488.9_03.inp
    prefix          = methyloxirane_blyp-def2-tzvp_488.9_03.inp.
    data base       = ./methyloxirane_blyp-def2-tzvp_488.9_03.inp.db
    status          = startup
    nproc           =        7
    time left       =     -1s



           Memory information
           ------------------

    heap     =   13107198 doubles =    100.0 Mbytes
    stack    =   13107195 doubles =    100.0 Mbytes
    global   =   26214400 doubles =    200.0 Mbytes (distinct from heap & stack)
    total    =   52428793 doubles =    400.0 Mbytes
    verify   = yes
    hardfail = no 


           Directory information
           ---------------------
 
  0 permanent = .
  0 scratch   = .
 
 
 
 
                                NWChem Input Module
                                -------------------
 
 
                    methyloxirane roa calculations at 488.9 nm, input generated in va  with delta_type=2
                    ------------------------------------------

 Scaling coordinates for geometry "geometry" by  1.889725989
 (inverse scale =  0.529177249)

 
 
                             Geometry "geometry" -> ""
                             -------------------------
 
 Output coordinates in angstroms (scale by  1.889725989 to convert to a.u.)
 
  No.       Tag          Charge          X              Y              Z
 ---- ---------------- ---------- -------------- -------------- --------------
    1 O                    8.0000    -0.87611200    -0.18178800     0.20074000
    2 C                    6.0000     0.57709900    -0.15871900     0.12906900
    3 C                    6.0000    -0.18385200     1.08765400     0.33743900
    4 C                    6.0000     1.17939400    -0.51749700    -1.20880200
    5 H                    1.0000     1.05903700    -0.60577000     1.00538900
    6 H                    1.0000    -0.23705100     1.54112100     1.33057900
    7 H                    1.0000    -0.31434700     1.77836600    -0.50024600
    8 H                    1.0000     2.23536300    -0.21395200    -1.25507900
    9 H                    1.0000     1.13226800    -1.60230700    -1.37654000
   10 H                    1.0000     0.63563700    -0.02015900    -2.02164800
 
      Atomic Mass 
      ----------- 
 
      O                 15.994910
      C                 12.000000
      H                  1.007825
 

 Effective nuclear repulsion energy (a.u.)     123.6654380914

            Nuclear Dipole moment (a.u.) 
            ----------------------------
        X                 Y               Z
 ---------------- ---------------- ----------------
    13.1106486780     3.5746491437   -10.7060328287
 
 
            XYZ format geometry
            -------------------
    10
 geometry
 O                    -0.87611200    -0.18178800     0.20074000
 C                     0.57709900    -0.15871900     0.12906900
 C                    -0.18385200     1.08765400     0.33743900
 C                     1.17939400    -0.51749700    -1.20880200
 H                     1.05903700    -0.60577000     1.00538900
 H                    -0.23705100     1.54112100     1.33057900
 H                    -0.31434700     1.77836600    -0.50024600
 H                     2.23536300    -0.21395200    -1.25507900
 H                     1.13226800    -1.60230700    -1.37654000
 H                     0.63563700    -0.02015900    -2.02164800
 
 ==============================================================================
                                internuclear distances
 ------------------------------------------------------------------------------
       center one      |      center two      | atomic units |  angstroms
 ------------------------------------------------------------------------------
    2 C                |   1 O                |     2.74985  |     1.45516
    3 C                |   1 O                |     2.74459  |     1.45238
    3 C                |   2 C                |     2.78753  |     1.47510
    4 C                |   2 C                |     2.85429  |     1.51042
    5 H                |   2 C                |     2.07014  |     1.09547
    6 H                |   3 C                |     2.06559  |     1.09306
    7 H                |   3 C                |     2.06649  |     1.09354
    8 H                |   4 C                |     2.07814  |     1.09971
    9 H                |   4 C                |     2.07627  |     1.09871
   10 H                |   4 C                |     2.07331  |     1.09715
 ------------------------------------------------------------------------------
                         number of included internuclear distances:         10
 ==============================================================================



 ==============================================================================
                                 internuclear angles
 ------------------------------------------------------------------------------
        center 1       |       center 2       |       center 3       |  degrees
 ------------------------------------------------------------------------------
    2 C                |   1 O                |   3 C                |    60.97
    2 C                |   1 O                |   3 C                |    60.97
    1 O                |   2 C                |   4 C                |   115.98
    1 O                |   2 C                |   5 H                |   113.17
    3 C                |   2 C                |   4 C                |   122.11
    3 C                |   2 C                |   5 H                |   117.31
    4 C                |   2 C                |   5 H                |   115.86
    3 C                |   1 O                |   2 C                |    60.97
    1 O                |   3 C                |   6 H                |   115.15
    1 O                |   3 C                |   7 H                |   115.03
    2 C                |   3 C                |   6 H                |   120.26
    2 C                |   3 C                |   7 H                |   119.15
    6 H                |   3 C                |   7 H                |   115.35
    2 C                |   4 C                |   8 H                |   110.77
    2 C                |   4 C                |   9 H                |   110.65
    2 C                |   4 C                |  10 H                |   110.54
    8 H                |   4 C                |   9 H                |   107.90
    8 H                |   4 C                |  10 H                |   108.64
    9 H                |   4 C                |  10 H                |   108.25
 ------------------------------------------------------------------------------
                            number of included internuclear angles:         19
 ==============================================================================



  warning:::::::::::::: from_environment
  NWCHEM_BASIS_LIBRARY set to: <
 /util/academic/nwchem/nwchem-6.8/src/basis/libraries>
  but file does not exist !
  using .nwchemrc or compiled library


 Summary of "ao basis" -> "" (spherical)
 ------------------------------------------------------------------------------
       Tag                 Description            Shells   Functions and Types
 ---------------- ------------------------------  ------  ---------------------
 *                         def2-TZVP                  on all atoms 


 
                                 NWChem DFT Module
                                 -----------------
 
 
                    methyloxirane roa calculations at 488.9 nm, input generated in va  with delta_type=2
 
 
                      Basis "ao basis" -> "ao basis" (spherical)
                      -----
  O (Oxygen)
  ----------
            Exponent  Coefficients 
       -------------- ---------------------------------------------------------
  1 S  2.70323826E+04  0.000217
  1 S  4.05238714E+03  0.001684
  1 S  9.22327227E+02  0.008740
  1 S  2.61240710E+02  0.035240
  1 S  8.53546414E+01  0.111535
  1 S  3.10350352E+01  0.255890
 
  2 S  1.22608607E+01  0.397687
  2 S  4.99870760E+00  0.246278
 
  3 S  1.17031082E+00  1.000000
 
  4 S  4.64747410E-01  1.000000
 
  5 S  1.85045364E-01  1.000000
 
  6 P  6.32749548E+01  0.006069
  6 P  1.46270494E+01  0.041913
  6 P  4.45012235E+00  0.161538
  6 P  1.52757996E+00  0.357070
 
  7 P  5.29351179E-01  1.000000
 
  8 P  1.74784213E-01  1.000000
 
  9 D  2.31400000E+00  1.000000
 
 10 D  6.45000000E-01  1.000000
 
 11 F  1.42800000E+00  1.000000
 
  C (Carbon)
  ----------
            Exponent  Coefficients 
       -------------- ---------------------------------------------------------
  1 S  1.35753497E+04  0.000222
  1 S  2.03523337E+03  0.001723
  1 S  4.63225624E+02  0.008926
  1 S  1.31200196E+02  0.035728
  1 S  4.28530159E+01  0.110763
  1 S  1.55841858E+01  0.242956
 
  2 S  6.20671385E+00  0.414403
  2 S  2.57648965E+00  0.237450
 
  3 S  5.76963394E-01  1.000000
 
  4 S  2.29728314E-01  1.000000
 
  5 S  9.51644400E-02  1.000000
 
  6 P  3.46972322E+01  0.005333
  6 P  7.95826228E+00  0.035864
  6 P  2.37808269E+00  0.142159
  6 P  8.14332082E-01  0.342705
 
  7 P  2.88875473E-01  1.000000
 
  8 P  1.00568237E-01  1.000000
 
  9 D  1.09700000E+00  1.000000
 
 10 D  3.18000000E-01  1.000000
 
 11 F  7.61000000E-01  1.000000
 
  H (Hydrogen)
  ------------
            Exponent  Coefficients 
       -------------- ---------------------------------------------------------
  1 S  3.40613410E+01  0.006025
  1 S  5.12357460E+00  0.045021
  1 S  1.16466260E+00  0.201897
 
  2 S  3.27230410E-01  1.000000
 
  3 S  1.03072410E-01  1.000000
 
  4 P  8.00000000E-01  1.000000
 


 Summary of "ao basis" -> "ao basis" (spherical)
 ------------------------------------------------------------------------------
       Tag                 Description            Shells   Functions and Types
 ---------------- ------------------------------  ------  ---------------------
 O                         def2-TZVP                11       31   5s3p2d1f
 C                         def2-TZVP                11       31   5s3p2d1f
 H                         def2-TZVP                 4        6   3s1p




 Summary of "ao basis" -> "ao basis" (spherical)
 ------------------------------------------------------------------------------
       Tag                 Description            Shells   Functions and Types
 ---------------- ------------------------------  ------  ---------------------
 O                         def2-TZVP                11       31   5s3p2d1f
 C                         def2-TZVP                11       31   5s3p2d1f
 H                         def2-TZVP                 4        6   3s1p


  Caching 1-el integrals 
  itol2e modified to match energy
  convergence criterion.
  tol_rho modified to match energy
  convergence criterion.
 
            General Information
            -------------------
          SCF calculation type: DFT
          Wavefunction type:  closed shell.
          No. of atoms     :    10
          No. of electrons :    32
           Alpha electrons :    16
            Beta electrons :    16
          Charge           :     0
          Spin multiplicity:     1
          Use of symmetry is: off; symmetry adaption is: off
          Maximum number of iterations: 250
          This is a Direct SCF calculation.
          AO basis - number of functions:   160
                     number of shells:    68
          Convergence on energy requested:  1.00D-08
          Convergence on density requested:  1.00D-05
          Convergence on gradient requested:  1.00D-07
 
              XC Information
              --------------
                    Becke 1988 Exchange Functional  1.000          
              Lee-Yang-Parr Correlation Functional  1.000          
 
             Grid Information
             ----------------
          Grid used for XC integration:  xfine     
          Radial quadrature: Mura-Knowles        
          Angular quadrature: Lebedev. 
          Tag              B.-S. Rad. Rad. Pts. Rad. Cut. Ang. Pts.
          ---              ---------- --------- --------- ---------
          O                   0.60      100          11.0      1454
          C                   0.70      100          11.0      1454
          H                   0.35      100          12.0      1202
          Grid pruning is: on 
          Number of quadrature shells:  1000
          Spatial weights used:  Erf1
 
          Convergence Information
          -----------------------
          Convergence aids based upon iterative change in 
          total energy or number of iterations. 
          Levelshifting, if invoked, occurs when the 
          HOMO/LUMO gap drops below (HL_TOL):  1.00D-02
          DIIS, if invoked, will attempt to extrapolate 
          using up to (NFOCK): 10 stored Fock matrices.

                    Damping( 0%)  Levelshifting(0.0)       DIIS
                  --------------- ------------------- ---------------
          dE  on:    start             N/A                start   
          dE off:    2 iters           N/A              250 iters 

 
      Screening Tolerance Information
      -------------------------------
          Density screening/tol_rho:  1.00D-11
          AO Gaussian exp screening on grid/accAOfunc:  18
          CD Gaussian exp screening on grid/accCDfunc:  20
          XC Gaussian exp screening on grid/accXCfunc:  20
          Schwarz screening/accCoul:  1.00D-09

 
      Superposition of Atomic Density Guess
      -------------------------------------
 
 Sum of atomic energies:        -190.79714706
 
      Non-variational initial energy
      ------------------------------

 Total energy =    -193.166759
 1-e energy   =    -502.290284
 2-e energy   =     185.458088
 HOMO         =      -0.351972
 LUMO         =       0.090492
 
   Time after variat. SCF:      0.6
   Time prior to 1st pass:      0.6

 Grid_pts file          = ./methyloxirane_blyp-def2-tzvp_488.9_03.inp.gridpts.0
 Record size in doubles =  12289        No. of grid_pts per rec  =   3070
 Max. records in memory =     76        Max. recs in file   =    554542


           Memory utilization after 1st SCF pass: 
           Heap Space remaining (MW):       12.17            12167542
          Stack Space remaining (MW):       13.11            13106116

   convergence    iter        energy       DeltaE   RMS-Dens  Diis-err    time
 ---------------- ----- ----------------- --------- --------- ---------  ------
 d= 0,ls=0.0,diis     1   -193.0201538086 -3.17D+02  9.19D-03  1.06D+00     6.9
 d= 0,ls=0.0,diis     2   -192.8583598043  1.62D-01  7.60D-03  2.56D+00    12.9
 d= 0,ls=0.0,diis     3   -193.0770963814 -2.19D-01  1.83D-03  3.87D-01    18.9
 d= 0,ls=0.0,diis     4   -193.1072755143 -3.02D-02  6.84D-04  1.82D-02    24.9
 d= 0,ls=0.0,diis     5   -193.1089441973 -1.67D-03  2.92D-04  2.70D-03    31.0
 d= 0,ls=0.0,diis     6   -193.1092802886 -3.36D-04  3.03D-05  3.52D-05    37.0
 d= 0,ls=0.0,diis     7   -193.1092844934 -4.20D-06  8.42D-06  3.87D-06    43.0
 d= 0,ls=0.0,diis     8   -193.1092849245 -4.31D-07  1.95D-06  2.84D-07    49.0
 d= 0,ls=0.0,diis     9   -193.1092849556 -3.10D-08  6.35D-07  1.48D-08    55.0
 d= 0,ls=0.0,diis    10   -193.1092849573 -1.73D-09  1.72D-07  1.57D-09    61.0


         Total DFT energy =     -193.109284957323
      One electron energy =     -505.947432180533
           Coulomb energy =      216.194475122303
    Exchange-Corr. energy =      -27.021765990484
 Nuclear repulsion energy =      123.665438091391

 Numeric. integr. density =       31.999999895853

     Total iterative time =     60.5s


 
                       DFT Final Molecular Orbital Analysis
                       ------------------------------------
 
 Vector    1  Occ=2.000000D+00  E=-1.877965D+01
              MO Center= -8.8D-01, -1.8D-01,  2.0D-01, r^2= 1.5D-02
   Bfn.  Coefficient  Atom+Function         Bfn.  Coefficient  Atom+Function  
  ----- ------------  ---------------      ----- ------------  ---------------
     2      0.638476   1 O  s                 1      0.435422   1 O  s         
     3      0.039893   1 O  s                 4     -0.033256   1 O  s         
 
 Vector    2  Occ=2.000000D+00  E=-9.963131D+00
              MO Center=  5.8D-01, -1.6D-01,  1.3D-01, r^2= 2.8D-02
   Bfn.  Coefficient  Atom+Function         Bfn.  Coefficient  Atom+Function  
  ----- ------------  ---------------      ----- ------------  ---------------
    33      0.606915   2 C  s                32      0.467260   2 C  s         
    34      0.042379   2 C  s                36      0.037456   2 C  s         
    35     -0.026701   2 C  s         
 
 Vector    3  Occ=2.000000D+00  E=-9.955604D+00
              MO Center= -1.8D-01,  1.1D+00,  3.4D-01, r^2= 2.8D-02
   Bfn.  Coefficient  Atom+Function         Bfn.  Coefficient  Atom+Function  
  ----- ------------  ---------------      ----- ------------  ---------------
    64      0.607026   3 C  s                63      0.467222   3 C  s         
    65      0.039724   3 C  s         
 
 Vector    4  Occ=2.000000D+00  E=-9.907577D+00
              MO Center=  1.2D+00, -5.2D-01, -1.2D+00, r^2= 2.8D-02
   Bfn.  Coefficient  Atom+Function         Bfn.  Coefficient  Atom+Function  
  ----- ------------  ---------------      ----- ------------  ---------------
    95      0.606958   4 C  s                94      0.467214   4 C  s         
    96      0.040615   4 C  s                98      0.035537   4 C  s         
 
 Vector    5  Occ=2.000000D+00  E=-9.627228D-01
              MO Center= -4.7D-01,  5.5D-02,  2.1D-01, r^2= 6.5D-01
   Bfn.  Coefficient  Atom+Function         Bfn.  Coefficient  Atom+Function  
  ----- ------------  ---------------      ----- ------------  ---------------
     4      0.375052   1 O  s                 3      0.277281   1 O  s         
     2     -0.192697   1 O  s                34      0.140072   2 C  s         
    65      0.139037   3 C  s                 5      0.122678   1 O  s         
    35      0.104968   2 C  s                 6      0.093307   1 O  px        
    66      0.093644   3 C  s                69     -0.091383   3 C  py        
 
 Vector    6  Occ=2.000000D+00  E=-6.696068D-01
              MO Center=  9.4D-01, -3.9D-01, -7.7D-01, r^2= 1.5D+00
   Bfn.  Coefficient  Atom+Function         Bfn.  Coefficient  Atom+Function  
  ----- ------------  ---------------      ----- ------------  ---------------
    97      0.285167   4 C  s                96      0.276212   4 C  s         
    35      0.184830   2 C  s                34      0.174278   2 C  s         
    95     -0.173929   4 C  s                 4     -0.148784   1 O  s         
    33     -0.108873   2 C  s                 3     -0.104121   1 O  s         
    94     -0.083336   4 C  s                 5     -0.073824   1 O  s         
 
 Vector    7  Occ=2.000000D+00  E=-5.898905D-01
              MO Center= -1.3D-01,  7.2D-01,  2.2D-01, r^2= 2.0D+00
   Bfn.  Coefficient  Atom+Function         Bfn.  Coefficient  Atom+Function  
  ----- ------------  ---------------      ----- ------------  ---------------
    66      0.326409   3 C  s                65      0.278417   3 C  s         
     4     -0.237751   1 O  s                64     -0.172074   3 C  s         
     3     -0.167864   1 O  s                 5     -0.147477   1 O  s         
     2      0.110851   1 O  s                38      0.105091   2 C  py        
   132      0.102725   6 H  s                97     -0.099588   4 C  s         
 
 Vector    8  Occ=2.000000D+00  E=-5.300887D-01
              MO Center=  4.2D-01,  1.2D-02, -9.2D-02, r^2= 2.7D+00
   Bfn.  Coefficient  Atom+Function         Bfn.  Coefficient  Atom+Function  
  ----- ------------  ---------------      ----- ------------  ---------------
    35      0.303659   2 C  s                34      0.225374   2 C  s         
    97     -0.154664   4 C  s                66     -0.152134   3 C  s         
    33     -0.138624   2 C  s               126      0.133528   5 H  s         
    96     -0.128345   4 C  s                 6      0.106467   1 O  px        
   125      0.106688   5 H  s                65     -0.098467   3 C  s         
 
 Vector    9  Occ=2.000000D+00  E=-4.480926D-01
              MO Center=  1.2D-01,  2.8D-01,  2.4D-01, r^2= 2.5D+00
   Bfn.  Coefficient  Atom+Function         Bfn.  Coefficient  Atom+Function  
  ----- ------------  ---------------      ----- ------------  ---------------
    70      0.208591   3 C  pz               39      0.155849   2 C  pz        
   132      0.144973   6 H  s                73      0.130893   3 C  pz        
     8      0.125909   1 O  pz              126      0.115770   5 H  s         
     6     -0.111647   1 O  px              131      0.107540   6 H  s         
    38     -0.106726   2 C  py               37      0.103803   2 C  px        
 
 Vector   10  Occ=2.000000D+00  E=-4.134960D-01
              MO Center=  4.8D-02,  2.9D-01, -2.3D-01, r^2= 2.6D+00
   Bfn.  Coefficient  Atom+Function         Bfn.  Coefficient  Atom+Function  
  ----- ------------  ---------------      ----- ------------  ---------------
    69      0.215873   3 C  py              101      0.153749   4 C  pz        
   138      0.154086   7 H  s                 6     -0.142316   1 O  px        
    38     -0.140399   2 C  py               37      0.128703   2 C  px        
     7     -0.123600   1 O  py               72      0.122101   3 C  py        
    70     -0.117392   3 C  pz                9     -0.113740   1 O  px        
 
 Vector   11  Occ=2.000000D+00  E=-3.767742D-01
              MO Center=  9.0D-01, -3.1D-01, -7.4D-01, r^2= 2.7D+00
   Bfn.  Coefficient  Atom+Function         Bfn.  Coefficient  Atom+Function  
  ----- ------------  ---------------      ----- ------------  ---------------
    99      0.210350   4 C  px              144      0.184671   8 H  s         
   100      0.164962   4 C  py              150     -0.140893   9 H  s         
   102      0.134937   4 C  px               37      0.128902   2 C  px        
   143      0.129290   8 H  s                 6     -0.119586   1 O  px        
     7      0.114269   1 O  py              103      0.109023   4 C  py        
 
 Vector   12  Occ=2.000000D+00  E=-3.554915D-01
              MO Center=  5.9D-01, -3.4D-01, -8.8D-01, r^2= 2.8D+00
   Bfn.  Coefficient  Atom+Function         Bfn.  Coefficient  Atom+Function  
  ----- ------------  ---------------      ----- ------------  ---------------
   100      0.255968   4 C  py              150     -0.185652   9 H  s         
   156      0.177061  10 H  s                 7     -0.168927   1 O  py        
   103      0.165832   4 C  py               10     -0.135211   1 O  py        
   149     -0.129288   9 H  s               155      0.125412  10 H  s         
    70      0.117396   3 C  pz              106      0.103680   4 C  py        
 
 Vector   13  Occ=2.000000D+00  E=-3.292012D-01
              MO Center=  3.4D-01,  2.6D-01, -2.1D-01, r^2= 2.7D+00
   Bfn.  Coefficient  Atom+Function         Bfn.  Coefficient  Atom+Function  
  ----- ------------  ---------------      ----- ------------  ---------------
    39      0.221823   2 C  pz              101     -0.199959   4 C  pz        
    70     -0.175154   3 C  pz              138      0.163478   7 H  s         
     7     -0.158800   1 O  py               42      0.150678   2 C  pz        
   104     -0.139830   4 C  pz               10     -0.128025   1 O  py        
    99      0.122095   4 C  px              132     -0.110520   6 H  s         
 
 Vector   14  Occ=2.000000D+00  E=-3.213847D-01
              MO Center=  3.9D-01, -6.6D-02, -2.5D-01, r^2= 3.0D+00
   Bfn.  Coefficient  Atom+Function         Bfn.  Coefficient  Atom+Function  
  ----- ------------  ---------------      ----- ------------  ---------------
     7      0.210910   1 O  py               10      0.172871   1 O  py        
    99     -0.164240   4 C  px              126      0.158012   5 H  s         
     6     -0.151897   1 O  px              156      0.151707  10 H  s         
    37      0.135584   2 C  px              144     -0.135663   8 H  s         
     9     -0.124545   1 O  px               39      0.122796   2 C  pz        
 
 Vector   15  Occ=2.000000D+00  E=-2.634859D-01
              MO Center=  1.9D-02,  1.5D-01,  3.4D-02, r^2= 2.3D+00
   Bfn.  Coefficient  Atom+Function         Bfn.  Coefficient  Atom+Function  
  ----- ------------  ---------------      ----- ------------  ---------------
    68      0.264698   3 C  px               38      0.256492   2 C  py        
     6     -0.236236   1 O  px               41      0.199770   2 C  py        
    71      0.196820   3 C  px                9     -0.184756   1 O  px        
    12     -0.156517   1 O  px              150      0.115095   9 H  s         
   100     -0.111030   4 C  py               67      0.106225   3 C  s         
 
 Vector   16  Occ=2.000000D+00  E=-2.197108D-01
              MO Center= -5.8D-01, -2.7D-02,  2.0D-01, r^2= 1.6D+00
   Bfn.  Coefficient  Atom+Function         Bfn.  Coefficient  Atom+Function  
  ----- ------------  ---------------      ----- ------------  ---------------
     8      0.449672   1 O  pz               11      0.358226   1 O  pz        
    14      0.296478   1 O  pz              133     -0.130504   6 H  s         
   139      0.117845   7 H  s               132     -0.103830   6 H  s         
   138      0.104119   7 H  s               145     -0.104272   8 H  s         
   126     -0.095567   5 H  s                98      0.088891   4 C  s         
 
 Vector   17  Occ=0.000000D+00  E= 2.599415D-02
              MO Center=  1.2D+00, -7.3D-02, -6.2D-01, r^2= 7.3D+00
   Bfn.  Coefficient  Atom+Function         Bfn.  Coefficient  Atom+Function  
  ----- ------------  ---------------      ----- ------------  ---------------
    98      4.473294   4 C  s               145     -1.516393   8 H  s         
   151     -1.496067   9 H  s               157     -1.352178  10 H  s         
   127     -1.225229   5 H  s                45      1.121901   2 C  pz        
   139     -0.898309   7 H  s                67      0.737974   3 C  s         
   133     -0.612288   6 H  s                75      0.321251   3 C  py        
 
 Vector   18  Occ=0.000000D+00  E= 4.276686D-02
              MO Center= -1.3D-01,  6.5D-01,  9.5D-02, r^2= 4.5D+00
   Bfn.  Coefficient  Atom+Function         Bfn.  Coefficient  Atom+Function  
  ----- ------------  ---------------      ----- ------------  ---------------
    98     -2.196716   4 C  s                36      2.021021   2 C  s         
     5     -1.265996   1 O  s                74     -0.943870   3 C  px        
   151      0.825506   9 H  s                45     -0.506813   2 C  pz        
   157      0.458752  10 H  s                67     -0.449387   3 C  s         
    13     -0.435500   1 O  py               44      0.413802   2 C  py        
 
 Vector   19  Occ=0.000000D+00  E= 4.991467D-02
              MO Center=  4.4D-01,  3.5D-01, -9.2D-02, r^2= 6.7D+00
   Bfn.  Coefficient  Atom+Function         Bfn.  Coefficient  Atom+Function  
  ----- ------------  ---------------      ----- ------------  ---------------
    36      2.774161   2 C  s                67     -2.266348   3 C  s         
   127     -1.968267   5 H  s               139      1.552752   7 H  s         
   157      0.986738  10 H  s                98     -0.904308   4 C  s         
    76      0.585959   3 C  pz               43      0.527643   2 C  px        
    45      0.505962   2 C  pz                5      0.473671   1 O  s         
 
 Vector   20  Occ=0.000000D+00  E= 5.101214D-02
              MO Center=  5.3D-01,  6.8D-01,  4.1D-01, r^2= 7.5D+00
   Bfn.  Coefficient  Atom+Function         Bfn.  Coefficient  Atom+Function  
  ----- ------------  ---------------      ----- ------------  ---------------
    98     -3.257581   4 C  s                67      3.060247   3 C  s         
   133     -1.868911   6 H  s               145      1.235476   8 H  s         
    44     -1.143817   2 C  py              157      0.939227  10 H  s         
   127     -0.893120   5 H  s               151      0.702736   9 H  s         
    43      0.571981   2 C  px              139     -0.543453   7 H  s         
 
 Vector   21  Occ=0.000000D+00  E= 6.455005D-02
              MO Center=  2.7D-01,  1.1D-01, -1.5D-01, r^2= 4.8D+00
   Bfn.  Coefficient  Atom+Function         Bfn.  Coefficient  Atom+Function  
  ----- ------------  ---------------      ----- ------------  ---------------
    98      1.237271   4 C  s               139      1.230491   7 H  s         
    67     -0.975905   3 C  s               151     -0.950397   9 H  s         
     5     -0.894285   1 O  s                43     -0.849041   2 C  px        
   133      0.588947   6 H  s                75     -0.569913   3 C  py        
    12     -0.487875   1 O  px               45      0.394535   2 C  pz        
 
 Vector   22  Occ=0.000000D+00  E= 8.599687D-02
              MO Center=  1.3D+00,  2.2D-01, -4.8D-01, r^2= 7.2D+00
   Bfn.  Coefficient  Atom+Function         Bfn.  Coefficient  Atom+Function  
  ----- ------------  ---------------      ----- ------------  ---------------
    36      2.885870   2 C  s               145      1.992425   8 H  s         
    67     -1.411020   3 C  s               127     -1.331369   5 H  s         
   157     -1.313627  10 H  s               133      1.224467   6 H  s         
   107     -1.103788   4 C  pz              105     -1.008886   4 C  px        
    98     -0.976042   4 C  s                75      0.762634   3 C  py        
 
 Vector   23  Occ=0.000000D+00  E= 9.154529D-02
              MO Center=  1.2D+00, -6.7D-01, -5.7D-01, r^2= 6.5D+00
   Bfn.  Coefficient  Atom+Function         Bfn.  Coefficient  Atom+Function  
  ----- ------------  ---------------      ----- ------------  ---------------
    36      2.467554   2 C  s               151      2.101048   9 H  s         
   145     -1.595837   8 H  s                98     -1.294435   4 C  s         
   106      1.167269   4 C  py              105      1.112280   4 C  px        
   133      0.903601   6 H  s                67     -0.881378   3 C  s         
   127     -0.811073   5 H  s               107     -0.677999   4 C  pz        
 
 Vector   24  Occ=0.000000D+00  E= 1.030483D-01
              MO Center=  4.2D-01,  4.5D-01, -1.1D+00, r^2= 6.8D+00
   Bfn.  Coefficient  Atom+Function         Bfn.  Coefficient  Atom+Function  
  ----- ------------  ---------------      ----- ------------  ---------------
   157      2.041516  10 H  s               133      1.606751   6 H  s         
    98     -1.504331   4 C  s               139     -1.507998   7 H  s         
   106     -1.462085   4 C  py              151     -1.380362   9 H  s         
    36      1.305059   2 C  s                76     -1.169945   3 C  pz        
   105      1.015384   4 C  px               45     -0.551977   2 C  pz        
 
 Vector   25  Occ=0.000000D+00  E= 1.390289D-01
              MO Center=  7.9D-01,  2.0D-01, -4.5D-01, r^2= 7.9D+00
   Bfn.  Coefficient  Atom+Function         Bfn.  Coefficient  Atom+Function  
  ----- ------------  ---------------      ----- ------------  ---------------
    36      4.804079   2 C  s                98     -3.632166   4 C  s         
    45     -3.458775   2 C  pz               67     -2.847120   3 C  s         
   127      2.741414   5 H  s                76      2.166201   3 C  pz        
   105      2.084790   4 C  px              133     -1.782165   6 H  s         
   139      1.693629   7 H  s               107     -1.617592   4 C  pz        
 
 Vector   26  Occ=0.000000D+00  E= 1.704058D-01
              MO Center=  4.5D-01,  5.3D-01, -1.3D-01, r^2= 7.3D+00
   Bfn.  Coefficient  Atom+Function         Bfn.  Coefficient  Atom+Function  
  ----- ------------  ---------------      ----- ------------  ---------------
    75      2.281558   3 C  py              107      1.608106   4 C  pz        
    36      1.467965   2 C  s                67     -1.467439   3 C  s         
   139     -1.194820   7 H  s               157      1.058025  10 H  s         
    74     -0.958610   3 C  px               44      0.696808   2 C  py        
   106     -0.588557   4 C  py               43     -0.574678   2 C  px        
 
 Vector   27  Occ=0.000000D+00  E= 1.978042D-01
              MO Center=  8.1D-01, -8.4D-02, -9.4D-01, r^2= 5.1D+00
   Bfn.  Coefficient  Atom+Function         Bfn.  Coefficient  Atom+Function  
  ----- ------------  ---------------      ----- ------------  ---------------
    67      2.968758   3 C  s                44     -2.629232   2 C  py        
   106      1.975156   4 C  py               36     -1.670974   2 C  s         
    43      1.028344   2 C  px               74      0.746315   3 C  px        
    45     -0.727565   2 C  pz              157     -0.714748  10 H  s         
   105      0.680900   4 C  px              150      0.631309   9 H  s         
 
 Vector   28  Occ=0.000000D+00  E= 2.017544D-01
              MO Center=  9.4D-01, -4.4D-01, -7.1D-01, r^2= 6.7D+00
   Bfn.  Coefficient  Atom+Function         Bfn.  Coefficient  Atom+Function  
  ----- ------------  ---------------      ----- ------------  ---------------
    36      2.644212   2 C  s                75      1.722789   3 C  py        
   105     -1.436135   4 C  px              133     -1.222782   6 H  s         
   106      0.846041   4 C  py              107     -0.839713   4 C  pz        
   139     -0.779368   7 H  s                45      0.747603   2 C  pz        
   156     -0.721110  10 H  s                76      0.668880   3 C  pz        
 
 Vector   29  Occ=0.000000D+00  E= 2.367979D-01
              MO Center= -3.0D-01,  4.0D-01, -7.4D-02, r^2= 5.4D+00
   Bfn.  Coefficient  Atom+Function         Bfn.  Coefficient  Atom+Function  
  ----- ------------  ---------------      ----- ------------  ---------------
    67      4.658408   3 C  s                36     -3.129724   2 C  s         
   139     -1.538508   7 H  s                66     -1.446770   3 C  s         
   133     -1.261038   6 H  s                98      1.234684   4 C  s         
   107      0.949733   4 C  pz              106      0.814636   4 C  py        
    74     -0.777231   3 C  px                5     -0.757424   1 O  s         
 
 Vector   30  Occ=0.000000D+00  E= 2.473379D-01
              MO Center=  5.4D-01,  1.8D-02, -9.7D-02, r^2= 5.9D+00
   Bfn.  Coefficient  Atom+Function         Bfn.  Coefficient  Atom+Function  
  ----- ------------  ---------------      ----- ------------  ---------------
    67      5.895497   3 C  s                43      4.133088   2 C  px        
    75     -2.993678   3 C  py               44     -2.566008   2 C  py        
    36     -2.132290   2 C  s               107     -2.038192   4 C  pz        
   157     -1.862602  10 H  s                45     -1.435939   2 C  pz        
    98     -1.276589   4 C  s               105     -1.240135   4 C  px        
 
 Vector   31  Occ=0.000000D+00  E= 2.683928D-01
              MO Center=  3.3D-01, -1.2D-01,  2.5D-01, r^2= 5.7D+00
   Bfn.  Coefficient  Atom+Function         Bfn.  Coefficient  Atom+Function  
  ----- ------------  ---------------      ----- ------------  ---------------
    36      4.302540   2 C  s                67      2.241758   3 C  s         
     5     -2.154117   1 O  s                43     -1.558898   2 C  px        
   105      1.540791   4 C  px               66     -1.202677   3 C  s         
    98     -1.087077   4 C  s               139     -0.947069   7 H  s         
   133     -0.902023   6 H  s               106     -0.856001   4 C  py        
 
 Vector   32  Occ=0.000000D+00  E= 2.774322D-01
              MO Center=  3.8D-01,  2.8D-01,  3.0D-01, r^2= 4.2D+00
   Bfn.  Coefficient  Atom+Function         Bfn.  Coefficient  Atom+Function  
  ----- ------------  ---------------      ----- ------------  ---------------
    36      2.742663   2 C  s                 5     -1.831833   1 O  s         
    67     -1.635718   3 C  s                43     -1.359565   2 C  px        
    98     -0.789664   4 C  s                74     -0.730966   3 C  px        
    45     -0.687781   2 C  pz              145      0.573253   8 H  s         
     4      0.501698   1 O  s                71      0.351897   3 C  px        
 
 Vector   33  Occ=0.000000D+00  E= 3.032593D-01
              MO Center=  4.2D-01,  3.8D-01, -3.8D-01, r^2= 5.0D+00
   Bfn.  Coefficient  Atom+Function         Bfn.  Coefficient  Atom+Function  
  ----- ------------  ---------------      ----- ------------  ---------------
   106      1.750032   4 C  py               43      1.733629   2 C  px        
   151      1.666586   9 H  s                98     -1.534579   4 C  s         
    76      1.407807   3 C  pz               44     -1.156624   2 C  py        
    36     -1.080027   2 C  s                66      1.038310   3 C  s         
   139      0.961639   7 H  s               107     -0.952141   4 C  pz        
 
 Vector   34  Occ=0.000000D+00  E= 3.379461D-01
              MO Center=  1.1D-01,  4.3D-01, -4.2D-01, r^2= 5.8D+00
   Bfn.  Coefficient  Atom+Function         Bfn.  Coefficient  Atom+Function  
  ----- ------------  ---------------      ----- ------------  ---------------
    67      4.673632   3 C  s                76     -4.033868   3 C  pz        
   139     -3.179477   7 H  s                36     -2.464970   2 C  s         
   133      2.060607   6 H  s               157     -1.805778  10 H  s         
   107     -1.786156   4 C  pz               98      1.541054   4 C  s         
    43      1.423398   2 C  px               44     -1.208231   2 C  py        
 
 Vector   35  Occ=0.000000D+00  E= 3.629074D-01
              MO Center=  7.9D-01, -2.4D-02, -3.6D-01, r^2= 6.8D+00
   Bfn.  Coefficient  Atom+Function         Bfn.  Coefficient  Atom+Function  
  ----- ------------  ---------------      ----- ------------  ---------------
    98      7.889168   4 C  s               145     -3.266168   8 H  s         
    76      3.198156   3 C  pz               97     -3.155950   4 C  s         
   133     -2.318539   6 H  s               151     -1.940396   9 H  s         
   139      1.572540   7 H  s                44      1.538777   2 C  py        
    45     -1.430459   2 C  pz              157     -1.393462  10 H  s         
 
 Vector   36  Occ=0.000000D+00  E= 3.717497D-01
              MO Center=  5.5D-01,  2.4D-01, -4.4D-02, r^2= 6.4D+00
   Bfn.  Coefficient  Atom+Function         Bfn.  Coefficient  Atom+Function  
  ----- ------------  ---------------      ----- ------------  ---------------
    36     12.632414   2 C  s                98     -8.701125   4 C  s         
    67     -8.239376   3 C  s               127     -3.181730   5 H  s         
    97      2.445199   4 C  s               157      2.240735  10 H  s         
    35     -1.885890   2 C  s                44      1.865292   2 C  py        
   151      1.680271   9 H  s                74     -1.584787   3 C  px        
 
 Vector   37  Occ=0.000000D+00  E= 3.849441D-01
              MO Center=  8.9D-01, -3.4D-01, -1.2D-01, r^2= 6.0D+00
   Bfn.  Coefficient  Atom+Function         Bfn.  Coefficient  Atom+Function  
  ----- ------------  ---------------      ----- ------------  ---------------
    36      6.089773   2 C  s               127     -4.071649   5 H  s         
    98      3.851422   4 C  s                45      2.764711   2 C  pz        
    67     -2.414886   3 C  s                35     -2.237954   2 C  s         
   151     -2.210952   9 H  s               145     -1.982060   8 H  s         
    76     -1.956256   3 C  pz              133      1.636013   6 H  s         
 
 Vector   38  Occ=0.000000D+00  E= 3.946648D-01
              MO Center=  2.0D-01,  1.6D-01, -9.9D-02, r^2= 6.5D+00
   Bfn.  Coefficient  Atom+Function         Bfn.  Coefficient  Atom+Function  
  ----- ------------  ---------------      ----- ------------  ---------------
    98     12.293245   4 C  s                67     -6.023588   3 C  s         
    45      5.320342   2 C  pz               76     -3.118246   3 C  pz        
   157     -2.674289  10 H  s               133      2.607360   6 H  s         
    44      2.377786   2 C  py               43     -1.918997   2 C  px        
    36     -1.878406   2 C  s                75      1.832536   3 C  py        
 
 Vector   39  Occ=0.000000D+00  E= 4.012019D-01
              MO Center= -2.2D-01,  1.7D-01,  2.0D-01, r^2= 6.5D+00
   Bfn.  Coefficient  Atom+Function         Bfn.  Coefficient  Atom+Function  
  ----- ------------  ---------------      ----- ------------  ---------------
    67    -12.565353   3 C  s                36     12.354212   2 C  s         
    45     -5.278021   2 C  pz               98     -5.082691   4 C  s         
    44      4.136267   2 C  py              127      3.036709   5 H  s         
    43     -2.657598   2 C  px               66      2.652982   3 C  s         
   139      2.406479   7 H  s               105      2.370814   4 C  px        
 
 Vector   40  Occ=0.000000D+00  E= 4.156143D-01
              MO Center=  8.4D-01, -3.7D-01, -8.6D-01, r^2= 5.8D+00
   Bfn.  Coefficient  Atom+Function         Bfn.  Coefficient  Atom+Function  
  ----- ------------  ---------------      ----- ------------  ---------------
    98      7.187426   4 C  s                36     -3.675632   2 C  s         
    45      3.155685   2 C  pz              105     -2.642919   4 C  px        
   151     -2.424598   9 H  s               157     -2.046995  10 H  s         
   145      1.844535   8 H  s                97     -1.118029   4 C  s         
   127     -1.092113   5 H  s               144     -0.989384   8 H  s         
 
 Vector   41  Occ=0.000000D+00  E= 4.263943D-01
              MO Center=  4.4D-01,  2.5D-01, -1.1D-01, r^2= 6.8D+00
   Bfn.  Coefficient  Atom+Function         Bfn.  Coefficient  Atom+Function  
  ----- ------------  ---------------      ----- ------------  ---------------
    36      9.389873   2 C  s                67     -4.505664   3 C  s         
    98     -4.364340   4 C  s                44      2.575475   2 C  py        
    75      2.588202   3 C  py              151      2.360621   9 H  s         
    43     -1.737442   2 C  px               45     -1.611570   2 C  pz        
    74     -1.449360   3 C  px              133     -1.394152   6 H  s         
 
 Vector   42  Occ=0.000000D+00  E= 4.469094D-01
              MO Center=  1.2D-01, -1.4D-01, -1.7D-01, r^2= 6.1D+00
   Bfn.  Coefficient  Atom+Function         Bfn.  Coefficient  Atom+Function  
  ----- ------------  ---------------      ----- ------------  ---------------
    36      9.430918   2 C  s                98     -9.139564   4 C  s         
    45     -5.719098   2 C  pz              127      2.969612   5 H  s         
    67     -2.755297   3 C  s                76      2.669829   3 C  pz        
   157      2.171228  10 H  s                44      2.153291   2 C  py        
   106     -2.111100   4 C  py              133     -2.073938   6 H  s         
 
 Vector   43  Occ=0.000000D+00  E= 4.595915D-01
              MO Center=  8.4D-02,  8.0D-01, -5.9D-01, r^2= 5.1D+00
   Bfn.  Coefficient  Atom+Function         Bfn.  Coefficient  Atom+Function  
  ----- ------------  ---------------      ----- ------------  ---------------
   139      3.217625   7 H  s               157     -2.564659  10 H  s         
    75     -2.245587   3 C  py              107     -2.242293   4 C  pz        
    43      1.675942   2 C  px               44     -1.669592   2 C  py        
    45     -1.480929   2 C  pz              138     -1.447013   7 H  s         
    76      0.990338   3 C  pz               74      0.830122   3 C  px        
 
 Vector   44  Occ=0.000000D+00  E= 4.697995D-01
              MO Center=  4.2D-01,  2.1D-01,  1.2D-02, r^2= 5.6D+00
   Bfn.  Coefficient  Atom+Function         Bfn.  Coefficient  Atom+Function  
  ----- ------------  ---------------      ----- ------------  ---------------
    98     -5.341437   4 C  s                36      5.028247   2 C  s         
    45     -2.373111   2 C  pz              145      1.715939   8 H  s         
   107     -1.609113   4 C  pz               67     -1.568085   3 C  s         
   133      1.484490   6 H  s                35     -1.309592   2 C  s         
   132     -1.140972   6 H  s               126      1.051210   5 H  s         
 
 Vector   45  Occ=0.000000D+00  E= 5.078146D-01
              MO Center=  9.4D-01, -4.0D-01, -9.7D-01, r^2= 4.7D+00
   Bfn.  Coefficient  Atom+Function         Bfn.  Coefficient  Atom+Function  
  ----- ------------  ---------------      ----- ------------  ---------------
    98     11.406488   4 C  s                36     -7.520274   2 C  s         
    45      4.585169   2 C  pz              107      3.079470   4 C  pz        
   144     -1.347488   8 H  s               106      1.296154   4 C  py        
   156     -1.256316  10 H  s               127     -1.125823   5 H  s         
   150     -1.127514   9 H  s               105     -1.032689   4 C  px        
 
 Vector   46  Occ=0.000000D+00  E= 5.390352D-01
              MO Center=  5.8D-02, -3.9D-01, -4.6D-01, r^2= 4.3D+00
   Bfn.  Coefficient  Atom+Function         Bfn.  Coefficient  Atom+Function  
  ----- ------------  ---------------      ----- ------------  ---------------
    98     -6.646343   4 C  s                36      6.580832   2 C  s         
    45     -3.466380   2 C  pz               76      3.272306   3 C  pz        
   133     -1.822218   6 H  s               105      1.465165   4 C  px        
   139      1.448456   7 H  s               107     -1.329656   4 C  pz        
    14     -1.208766   1 O  pz                5     -1.145027   1 O  s         
 
 Vector   47  Occ=0.000000D+00  E= 6.570776D-01
              MO Center= -3.8D-01,  2.2D-02, -2.0D-02, r^2= 4.3D+00
   Bfn.  Coefficient  Atom+Function         Bfn.  Coefficient  Atom+Function  
  ----- ------------  ---------------      ----- ------------  ---------------
    36     11.826563   2 C  s                67     -9.062271   3 C  s         
    98     -4.209285   4 C  s                43     -2.656965   2 C  px        
    75      2.459633   3 C  py               13      2.232876   1 O  py        
    76      2.094992   3 C  pz              105      1.630530   4 C  px        
   139      1.534027   7 H  s                44      1.507796   2 C  py        
 
 Vector   48  Occ=0.000000D+00  E= 6.744428D-01
              MO Center= -2.6D-01,  3.6D-01,  1.1D-01, r^2= 3.9D+00
   Bfn.  Coefficient  Atom+Function         Bfn.  Coefficient  Atom+Function  
  ----- ------------  ---------------      ----- ------------  ---------------
    36      7.980632   2 C  s                67     -7.710667   3 C  s         
     5      3.035043   1 O  s                75      2.533533   3 C  py        
    98     -2.224317   4 C  s                13      2.081544   1 O  py        
    45     -1.280201   2 C  pz               43     -1.179057   2 C  px        
     4     -1.124280   1 O  s                44      0.907099   2 C  py        
 
 Vector   49  Occ=0.000000D+00  E= 7.071130D-01
              MO Center=  1.6D-01, -3.2D-01, -2.6D-01, r^2= 4.5D+00
   Bfn.  Coefficient  Atom+Function         Bfn.  Coefficient  Atom+Function  
  ----- ------------  ---------------      ----- ------------  ---------------
    67      9.484435   3 C  s                36     -7.303210   2 C  s         
    43      3.617654   2 C  px               44     -3.458381   2 C  py        
    75     -2.752831   3 C  py               98     -2.546761   4 C  s         
     5      2.172904   1 O  s                12      1.674234   1 O  px        
   106      1.664351   4 C  py               13     -1.339539   1 O  py        
 
 Vector   50  Occ=0.000000D+00  E= 7.607040D-01
              MO Center=  6.3D-01,  6.8D-03, -3.3D-01, r^2= 4.0D+00
   Bfn.  Coefficient  Atom+Function         Bfn.  Coefficient  Atom+Function  
  ----- ------------  ---------------      ----- ------------  ---------------
    45      2.522204   2 C  pz              127     -1.736382   5 H  s         
   105     -1.678733   4 C  px               43      1.512648   2 C  px        
     5     -1.357249   1 O  s               126     -1.330574   5 H  s         
   144      1.263201   8 H  s                36      1.181237   2 C  s         
    76     -1.087892   3 C  pz               66      0.991539   3 C  s         
 
 Vector   51  Occ=0.000000D+00  E= 7.948971D-01
              MO Center=  2.5D-01,  5.7D-02, -1.7D-01, r^2= 4.4D+00
   Bfn.  Coefficient  Atom+Function         Bfn.  Coefficient  Atom+Function  
  ----- ------------  ---------------      ----- ------------  ---------------
     5      4.247731   1 O  s                36     -3.006125   2 C  s         
    76     -2.544617   3 C  pz                4     -1.648922   1 O  s         
    45      1.629220   2 C  pz               12      1.377249   1 O  px        
   133      1.333510   6 H  s                43      1.307144   2 C  px        
    66     -1.060357   3 C  s                35     -1.009435   2 C  s         
 
 Vector   52  Occ=0.000000D+00  E= 8.327074D-01
              MO Center=  3.2D-01,  1.8D-01, -1.6D-03, r^2= 4.4D+00
   Bfn.  Coefficient  Atom+Function         Bfn.  Coefficient  Atom+Function  
  ----- ------------  ---------------      ----- ------------  ---------------
    36      6.632238   2 C  s                98     -4.169310   4 C  s         
     5     -3.831870   1 O  s                43     -2.527569   2 C  px        
   105      1.929224   4 C  px               35     -1.859583   2 C  s         
    45     -1.817206   2 C  pz               44      1.481137   2 C  py        
    66     -1.240333   3 C  s                97      1.090303   4 C  s         
 
 Vector   53  Occ=0.000000D+00  E= 8.548731D-01
              MO Center=  6.0D-01,  1.3D-01, -4.0D-01, r^2= 4.2D+00
   Bfn.  Coefficient  Atom+Function         Bfn.  Coefficient  Atom+Function  
  ----- ------------  ---------------      ----- ------------  ---------------
    36      4.883295   2 C  s                98     -4.742575   4 C  s         
    45     -4.602959   2 C  pz               76      1.969146   3 C  pz        
   127      1.799166   5 H  s               106     -1.600353   4 C  py        
    44      1.533083   2 C  py              105      1.368458   4 C  px        
   150     -1.204873   9 H  s                 5     -1.129506   1 O  s         
 
 Vector   54  Occ=0.000000D+00  E= 8.722018D-01
              MO Center=  1.9D-01, -4.5D-02, -1.1D-01, r^2= 4.2D+00
   Bfn.  Coefficient  Atom+Function         Bfn.  Coefficient  Atom+Function  
  ----- ------------  ---------------      ----- ------------  ---------------
     5      4.599308   1 O  s                36     -1.672514   2 C  s         
     4     -1.543052   1 O  s               138      1.407809   7 H  s         
    76      1.400800   3 C  pz               67     -1.250786   3 C  s         
    12      1.184628   1 O  px               66     -1.147272   3 C  s         
    98     -1.048710   4 C  s                43      0.868175   2 C  px        
 
 Vector   55  Occ=0.000000D+00  E= 9.226688D-01
              MO Center=  5.2D-01,  2.9D-01, -4.9D-01, r^2= 4.6D+00
   Bfn.  Coefficient  Atom+Function         Bfn.  Coefficient  Atom+Function  
  ----- ------------  ---------------      ----- ------------  ---------------
    35      5.007223   2 C  s                36     -1.627249   2 C  s         
    67      1.533240   3 C  s                66     -1.383154   3 C  s         
    72      1.360878   3 C  py              132     -1.316719   6 H  s         
    98     -1.284972   4 C  s                41      1.205617   2 C  py        
    84      1.173718   3 C  d  0            156     -1.137713  10 H  s         
 
 Vector   56  Occ=0.000000D+00  E= 9.611730D-01
              MO Center=  4.4D-01,  3.2D-01, -5.1D-01, r^2= 4.7D+00
   Bfn.  Coefficient  Atom+Function         Bfn.  Coefficient  Atom+Function  
  ----- ------------  ---------------      ----- ------------  ---------------
    35      4.129924   2 C  s                67      2.500213   3 C  s         
   138     -2.381367   7 H  s                76     -1.829739   3 C  pz        
    42     -1.770677   2 C  pz               83     -1.674648   3 C  d -1      
    36     -1.530628   2 C  s               115     -1.465313   4 C  d  0      
   132      1.409157   6 H  s               107     -1.252303   4 C  pz        
 
 Vector   57  Occ=0.000000D+00  E= 9.915621D-01
              MO Center=  3.7D-01,  4.4D-01, -1.6D-01, r^2= 4.1D+00
   Bfn.  Coefficient  Atom+Function         Bfn.  Coefficient  Atom+Function  
  ----- ------------  ---------------      ----- ------------  ---------------
    36      7.749264   2 C  s                98     -4.916330   4 C  s         
    67     -4.154479   3 C  s                45     -3.900116   2 C  pz        
    43     -2.413170   2 C  px               44      2.243556   2 C  py        
    66     -1.652423   3 C  s               127      1.645384   5 H  s         
    75      1.494025   3 C  py               35     -1.366858   2 C  s         
 
 Vector   58  Occ=0.000000D+00  E= 1.011427D+00
              MO Center=  3.6D-01,  5.7D-01, -2.7D-02, r^2= 4.2D+00
   Bfn.  Coefficient  Atom+Function         Bfn.  Coefficient  Atom+Function  
  ----- ------------  ---------------      ----- ------------  ---------------
    36      5.551214   2 C  s                67     -4.486786   3 C  s         
    45     -2.227687   2 C  pz               44      1.877360   2 C  py        
    98     -1.742960   4 C  s               156     -1.474026  10 H  s         
    74     -1.366675   3 C  px               82      1.372363   3 C  d -2      
     5     -1.308246   1 O  s                43     -1.309778   2 C  px        
 
 Vector   59  Occ=0.000000D+00  E= 1.042805D+00
              MO Center=  7.1D-01, -1.8D-01, -4.7D-01, r^2= 4.2D+00
   Bfn.  Coefficient  Atom+Function         Bfn.  Coefficient  Atom+Function  
  ----- ------------  ---------------      ----- ------------  ---------------
    35      2.695267   2 C  s                36      2.354006   2 C  s         
    66     -2.260725   3 C  s               144     -1.967463   8 H  s         
   150      1.929086   9 H  s                 5     -1.893478   1 O  s         
   117      1.728418   4 C  d  2             41      1.472730   2 C  py        
    44      1.270790   2 C  py               72      1.167154   3 C  py        
 
 Vector   60  Occ=0.000000D+00  E= 1.078212D+00
              MO Center=  6.8D-01,  1.3D-02, -6.9D-02, r^2= 4.1D+00
   Bfn.  Coefficient  Atom+Function         Bfn.  Coefficient  Atom+Function  
  ----- ------------  ---------------      ----- ------------  ---------------
    98     -4.147934   4 C  s                66      4.029168   3 C  s         
    45     -3.770795   2 C  pz               97     -3.761944   4 C  s         
    36      3.431959   2 C  s                41     -2.596502   2 C  py        
   104     -2.556357   4 C  pz               42     -2.377360   2 C  pz        
    72     -2.363903   3 C  py               53      2.269991   2 C  d  0      
 
 Vector   61  Occ=0.000000D+00  E= 1.105741D+00
              MO Center=  3.7D-01,  4.4D-02,  5.5D-02, r^2= 3.7D+00
   Bfn.  Coefficient  Atom+Function         Bfn.  Coefficient  Atom+Function  
  ----- ------------  ---------------      ----- ------------  ---------------
    36      7.523828   2 C  s                67     -5.219171   3 C  s         
    98     -2.947847   4 C  s                66      2.121626   3 C  s         
    45     -1.973381   2 C  pz              126     -1.983126   5 H  s         
   132      1.623087   6 H  s                72     -1.596870   3 C  py        
    41     -1.484135   2 C  py               97     -1.465696   4 C  s         
 
 Vector   62  Occ=0.000000D+00  E= 1.146878D+00
              MO Center=  6.2D-01,  2.5D-02, -5.9D-03, r^2= 3.5D+00
   Bfn.  Coefficient  Atom+Function         Bfn.  Coefficient  Atom+Function  
  ----- ------------  ---------------      ----- ------------  ---------------
    67      5.329440   3 C  s                36     -4.296359   2 C  s         
    44     -2.439037   2 C  py              126      1.881694   5 H  s         
    97     -1.655019   4 C  s                43      1.586256   2 C  px        
    54      1.559234   2 C  d  1             75     -1.478702   3 C  py        
    55      1.466593   2 C  d  2            132     -1.437136   6 H  s         
 
 Vector   63  Occ=0.000000D+00  E= 1.214557D+00
              MO Center=  5.5D-01,  2.1D-01, -1.4D-01, r^2= 3.8D+00
   Bfn.  Coefficient  Atom+Function         Bfn.  Coefficient  Atom+Function  
  ----- ------------  ---------------      ----- ------------  ---------------
    36      6.590736   2 C  s                66     -4.990794   3 C  s         
    97     -3.386881   4 C  s                35      3.213568   2 C  s         
    67     -3.186264   3 C  s                72      1.930288   3 C  py        
    51     -1.755857   2 C  d -2             52      1.687509   2 C  d -1      
   138      1.676513   7 H  s                41      1.506512   2 C  py        
 
 Vector   64  Occ=0.000000D+00  E= 1.346770D+00
              MO Center=  3.6D-01,  5.4D-01,  2.2D-01, r^2= 3.6D+00
   Bfn.  Coefficient  Atom+Function         Bfn.  Coefficient  Atom+Function  
  ----- ------------  ---------------      ----- ------------  ---------------
    66      4.663868   3 C  s                35      4.003837   2 C  s         
    67     -3.011426   3 C  s                36     -2.898359   2 C  s         
    65     -2.390861   3 C  s               132     -2.042600   6 H  s         
    34     -1.488240   2 C  s               133      1.434467   6 H  s         
    72      1.366430   3 C  py              139      1.043078   7 H  s         
 
 Vector   65  Occ=0.000000D+00  E= 1.415374D+00
              MO Center=  1.6D-01,  5.2D-01, -4.0D-02, r^2= 3.4D+00
   Bfn.  Coefficient  Atom+Function         Bfn.  Coefficient  Atom+Function  
  ----- ------------  ---------------      ----- ------------  ---------------
    36      4.245149   2 C  s                66      3.933323   3 C  s         
    67     -3.869742   3 C  s                35     -3.808763   2 C  s         
    73     -2.303697   3 C  pz              138     -2.250773   7 H  s         
   139      2.205225   7 H  s               126      1.812445   5 H  s         
    76      1.660693   3 C  pz               65     -1.599452   3 C  s         
 
 Vector   66  Occ=0.000000D+00  E= 1.432567D+00
              MO Center=  1.0D+00, -4.4D-01, -1.1D+00, r^2= 3.6D+00
   Bfn.  Coefficient  Atom+Function         Bfn.  Coefficient  Atom+Function  
  ----- ------------  ---------------      ----- ------------  ---------------
    98      9.866247   4 C  s                97     -7.511132   4 C  s         
    96      3.029962   4 C  s                36     -2.563704   2 C  s         
   145     -2.399856   8 H  s               151     -2.215145   9 H  s         
   157     -2.068565  10 H  s               144      1.750237   8 H  s         
   150      1.552977   9 H  s               104      1.459259   4 C  pz        
 
 Vector   67  Occ=0.000000D+00  E= 1.442015D+00
              MO Center=  3.9D-01, -7.5D-03, -2.0D-01, r^2= 4.3D+00
   Bfn.  Coefficient  Atom+Function         Bfn.  Coefficient  Atom+Function  
  ----- ------------  ---------------      ----- ------------  ---------------
    66      4.313116   3 C  s                98      3.421400   4 C  s         
    35     -3.107399   2 C  s                67     -2.958402   3 C  s         
   133      1.946817   6 H  s                36      1.863963   2 C  s         
    45      1.856528   2 C  pz               76     -1.773990   3 C  pz        
    97     -1.619719   4 C  s                65     -1.541586   3 C  s         
 
 Vector   68  Occ=0.000000D+00  E= 1.446544D+00
              MO Center=  3.3D-01, -3.4D-02, -1.1D-01, r^2= 3.1D+00
   Bfn.  Coefficient  Atom+Function         Bfn.  Coefficient  Atom+Function  
  ----- ------------  ---------------      ----- ------------  ---------------
    98      5.190620   4 C  s                97     -2.839691   4 C  s         
    36     -2.562785   2 C  s                45      2.082334   2 C  pz        
     5      2.019379   1 O  s                35     -1.552091   2 C  s         
   127     -1.401611   5 H  s                96      1.196829   4 C  s         
   126      1.075572   5 H  s                44     -1.032167   2 C  py        
 
 Vector   69  Occ=0.000000D+00  E= 1.475332D+00
              MO Center=  9.0D-01, -2.6D-01, -9.5D-01, r^2= 3.6D+00
   Bfn.  Coefficient  Atom+Function         Bfn.  Coefficient  Atom+Function  
  ----- ------------  ---------------      ----- ------------  ---------------
    66      2.423104   3 C  s                67     -1.371217   3 C  s         
     5     -1.209954   1 O  s               133      1.042815   6 H  s         
    65     -1.023356   3 C  s                36      0.979862   2 C  s         
    71     -0.942284   3 C  px              132     -0.917177   6 H  s         
    97      0.846008   4 C  s                98     -0.737533   4 C  s         
 
 Vector   70  Occ=0.000000D+00  E= 1.478389D+00
              MO Center=  9.6D-01, -3.6D-01, -1.0D+00, r^2= 3.3D+00
   Bfn.  Coefficient  Atom+Function         Bfn.  Coefficient  Atom+Function  
  ----- ------------  ---------------      ----- ------------  ---------------
    36      3.062177   2 C  s               156     -2.754426  10 H  s         
   157      2.138824  10 H  s               102     -2.029816   4 C  px        
   103      1.809454   4 C  py              104     -1.723410   4 C  pz        
   126      1.730259   5 H  s                66     -1.469383   3 C  s         
    35     -1.343127   2 C  s               127     -1.310874   5 H  s         
 
 Vector   71  Occ=0.000000D+00  E= 1.512396D+00
              MO Center=  3.3D-01,  1.4D-01, -3.3D-01, r^2= 4.0D+00
   Bfn.  Coefficient  Atom+Function         Bfn.  Coefficient  Atom+Function  
  ----- ------------  ---------------      ----- ------------  ---------------
    98      2.604640   4 C  s               144      1.862349   8 H  s         
   102     -1.585213   4 C  px              145     -1.427895   8 H  s         
   103     -1.362232   4 C  py               45      1.262361   2 C  pz        
    97     -1.148186   4 C  s                66      0.972298   3 C  s         
   150     -0.968007   9 H  s                36     -0.829221   2 C  s         
 
 Vector   72  Occ=0.000000D+00  E= 1.542758D+00
              MO Center=  3.5D-01,  4.6D-01, -2.1D-01, r^2= 4.6D+00
   Bfn.  Coefficient  Atom+Function         Bfn.  Coefficient  Atom+Function  
  ----- ------------  ---------------      ----- ------------  ---------------
    36      4.327264   2 C  s                35     -3.601684   2 C  s         
    98     -3.595775   4 C  s                97      3.052446   4 C  s         
    67     -2.462124   3 C  s                73      2.154136   3 C  pz        
   132     -1.767684   6 H  s               133      1.446127   6 H  s         
   102     -1.405301   4 C  px              138      1.376374   7 H  s         
 
 Vector   73  Occ=0.000000D+00  E= 1.576323D+00
              MO Center=  5.0D-01, -4.5D-02, -1.0D-01, r^2= 3.2D+00
   Bfn.  Coefficient  Atom+Function         Bfn.  Coefficient  Atom+Function  
  ----- ------------  ---------------      ----- ------------  ---------------
    35      3.616040   2 C  s                36     -3.104622   2 C  s         
    40     -2.146823   2 C  px               67      2.054554   3 C  s         
    97     -1.960969   4 C  s               126      1.795831   5 H  s         
    72      1.688932   3 C  py               98      1.524169   4 C  s         
    34     -1.490641   2 C  s                66     -1.472162   3 C  s         
 
 Vector   74  Occ=0.000000D+00  E= 1.599022D+00
              MO Center=  3.2D-01,  4.2D-01, -1.3D-01, r^2= 3.4D+00
   Bfn.  Coefficient  Atom+Function         Bfn.  Coefficient  Atom+Function  
  ----- ------------  ---------------      ----- ------------  ---------------
    36     -5.302560   2 C  s                66     -5.240636   3 C  s         
    35      5.088685   2 C  s                67      3.917362   3 C  s         
    41      3.703479   2 C  py               71     -2.578365   3 C  px        
    72      2.340750   3 C  py               40     -1.936782   2 C  px        
    98      1.885310   4 C  s                82      1.702129   3 C  d -2      
 
 Vector   75  Occ=0.000000D+00  E= 1.642153D+00
              MO Center=  4.7D-01,  1.7D-01, -3.8D-02, r^2= 3.7D+00
   Bfn.  Coefficient  Atom+Function         Bfn.  Coefficient  Atom+Function  
  ----- ------------  ---------------      ----- ------------  ---------------
    66      2.712430   3 C  s                35      2.314195   2 C  s         
    98      2.078409   4 C  s                 5     -1.831278   1 O  s         
    97     -1.834758   4 C  s                67     -1.385010   3 C  s         
   104     -1.213780   4 C  pz              144      1.115534   8 H  s         
   103     -1.075757   4 C  py              150     -1.067119   9 H  s         
 
 Vector   76  Occ=0.000000D+00  E= 1.696322D+00
              MO Center=  5.0D-01,  2.3D-01, -4.1D-01, r^2= 3.8D+00
   Bfn.  Coefficient  Atom+Function         Bfn.  Coefficient  Atom+Function  
  ----- ------------  ---------------      ----- ------------  ---------------
    97      5.754125   4 C  s                35     -5.161926   2 C  s         
    42      3.031996   2 C  pz              104      3.041346   4 C  pz        
   102     -1.792279   4 C  px               40     -1.645779   2 C  px        
    72      1.642051   3 C  py               96     -1.551701   4 C  s         
    34      1.537412   2 C  s               138     -1.331147   7 H  s         
 
 Vector   77  Occ=0.000000D+00  E= 1.700930D+00
              MO Center=  4.5D-03,  1.8D-01, -8.8D-02, r^2= 3.6D+00
   Bfn.  Coefficient  Atom+Function         Bfn.  Coefficient  Atom+Function  
  ----- ------------  ---------------      ----- ------------  ---------------
     5      3.806745   1 O  s                72      2.973652   3 C  py        
    36     -2.327371   2 C  s                66     -1.994060   3 C  s         
   138     -1.752397   7 H  s                12      1.479073   1 O  px        
    41      1.279144   2 C  py               43      1.177546   2 C  px        
    42      1.089822   2 C  pz               97      1.048491   4 C  s         
 
 Vector   78  Occ=0.000000D+00  E= 1.789473D+00
              MO Center=  4.0D-01,  2.5D-01,  7.6D-03, r^2= 3.6D+00
   Bfn.  Coefficient  Atom+Function         Bfn.  Coefficient  Atom+Function  
  ----- ------------  ---------------      ----- ------------  ---------------
    35      3.236189   2 C  s                97     -2.967588   4 C  s         
    36      1.881984   2 C  s                45     -1.367166   2 C  pz        
   104     -1.266925   4 C  pz               67     -1.177323   3 C  s         
    42     -1.158331   2 C  pz               72      1.005394   3 C  py        
   102      0.984724   4 C  px               96      0.961273   4 C  s         
 
 Vector   79  Occ=0.000000D+00  E= 1.815429D+00
              MO Center= -6.2D-01,  2.1D-01,  1.9D-01, r^2= 2.6D+00
   Bfn.  Coefficient  Atom+Function         Bfn.  Coefficient  Atom+Function  
  ----- ------------  ---------------      ----- ------------  ---------------
    35      4.167374   2 C  s                 5     -3.257410   1 O  s         
    40     -2.462281   2 C  px               41      2.193533   2 C  py        
    72      2.083313   3 C  py               66     -1.916204   3 C  s         
    71     -1.733613   3 C  px               12     -1.357721   1 O  px        
   132     -1.083581   6 H  s               138     -1.052246   7 H  s         
 
 Vector   80  Occ=0.000000D+00  E= 1.843309D+00
              MO Center=  9.7D-02,  2.5D-01, -1.0D-01, r^2= 3.7D+00
   Bfn.  Coefficient  Atom+Function         Bfn.  Coefficient  Atom+Function  
  ----- ------------  ---------------      ----- ------------  ---------------
    35      1.841679   2 C  s                36     -1.064383   2 C  s         
   156     -0.963781  10 H  s               104     -0.861856   4 C  pz        
    97     -0.747772   4 C  s                71     -0.721802   3 C  px        
   157      0.671041  10 H  s                41     -0.656461   2 C  py        
   150      0.647095   9 H  s               126     -0.630791   5 H  s         
 
 Vector   81  Occ=0.000000D+00  E= 1.868139D+00
              MO Center=  4.9D-01,  1.9D-01, -3.9D-01, r^2= 4.0D+00
   Bfn.  Coefficient  Atom+Function         Bfn.  Coefficient  Atom+Function  
  ----- ------------  ---------------      ----- ------------  ---------------
    35      6.389254   2 C  s                66     -4.399539   3 C  s         
    72      3.484806   3 C  py               97     -3.170434   4 C  s         
    36      2.149168   2 C  s               104     -1.810670   4 C  pz        
    34     -1.599078   2 C  s                41      1.564306   2 C  py        
    67     -1.563033   3 C  s                45     -1.377379   2 C  pz        
 
 Vector   82  Occ=0.000000D+00  E= 1.923957D+00
              MO Center=  3.1D-01, -1.5D-01, -3.1D-01, r^2= 3.2D+00
   Bfn.  Coefficient  Atom+Function         Bfn.  Coefficient  Atom+Function  
  ----- ------------  ---------------      ----- ------------  ---------------
    36      1.694830   2 C  s                98     -1.556299   4 C  s         
    45     -1.363269   2 C  pz               97     -1.236854   4 C  s         
   103     -1.208608   4 C  py               35      1.133234   2 C  s         
    66     -0.947549   3 C  s                42     -0.821818   2 C  pz        
    41      0.788372   2 C  py              150     -0.730269   9 H  s         
 
 Vector   83  Occ=0.000000D+00  E= 1.990811D+00
              MO Center=  8.9D-01, -2.6D-01, -4.3D-01, r^2= 3.4D+00
   Bfn.  Coefficient  Atom+Function         Bfn.  Coefficient  Atom+Function  
  ----- ------------  ---------------      ----- ------------  ---------------
    98      3.756956   4 C  s                35      3.532770   2 C  s         
    66     -2.760933   3 C  s                40     -2.191804   2 C  px        
    72      1.953974   3 C  py               36     -1.824057   2 C  s         
    41      1.750073   2 C  py               43     -1.496833   2 C  px        
    71     -1.332618   3 C  px              107      1.239216   4 C  pz        
 
 Vector   84  Occ=0.000000D+00  E= 1.993368D+00
              MO Center=  5.8D-01, -6.8D-02, -6.9D-01, r^2= 3.4D+00
   Bfn.  Coefficient  Atom+Function         Bfn.  Coefficient  Atom+Function  
  ----- ------------  ---------------      ----- ------------  ---------------
    36      4.333889   2 C  s                98     -3.562910   4 C  s         
    45     -2.083478   2 C  pz               67     -1.784946   3 C  s         
    35     -1.411827   2 C  s               156      1.061620  10 H  s         
     5     -0.951438   1 O  s               104      0.908904   4 C  pz        
   107     -0.900325   4 C  pz               40     -0.760831   2 C  px        
 
 Vector   85  Occ=0.000000D+00  E= 2.090812D+00
              MO Center= -6.5D-02,  1.7D-01,  5.7D-04, r^2= 3.5D+00
   Bfn.  Coefficient  Atom+Function         Bfn.  Coefficient  Atom+Function  
  ----- ------------  ---------------      ----- ------------  ---------------
    36      3.020325   2 C  s                98     -2.298122   4 C  s         
    67     -1.152022   3 C  s                35     -0.864161   2 C  s         
   138     -0.755595   7 H  s               156      0.717033  10 H  s         
    14     -0.586436   1 O  pz               45     -0.579998   2 C  pz        
   144      0.578687   8 H  s                40     -0.560354   2 C  px        
 
 Vector   86  Occ=0.000000D+00  E= 2.096344D+00
              MO Center= -3.5D-01,  6.2D-02,  4.0D-02, r^2= 3.0D+00
   Bfn.  Coefficient  Atom+Function         Bfn.  Coefficient  Atom+Function  
  ----- ------------  ---------------      ----- ------------  ---------------
    67     -5.471986   3 C  s                36      5.341750   2 C  s         
    66      3.322101   3 C  s                35     -3.266316   2 C  s         
    41     -3.102295   2 C  py               71      2.746511   3 C  px        
    13      1.816872   1 O  py               82     -1.461115   3 C  d -2      
    55      1.330139   2 C  d  2             43     -1.318042   2 C  px        
 
 Vector   87  Occ=0.000000D+00  E= 2.169590D+00
              MO Center=  5.2D-01, -3.2D-02, -4.9D-01, r^2= 3.2D+00
   Bfn.  Coefficient  Atom+Function         Bfn.  Coefficient  Atom+Function  
  ----- ------------  ---------------      ----- ------------  ---------------
    98      2.224883   4 C  s                67     -1.821399   3 C  s         
    35     -1.125606   2 C  s                73      1.083362   3 C  pz        
   156     -0.880812  10 H  s                44      0.842051   2 C  py        
    43     -0.828918   2 C  px               36      0.804800   2 C  s         
    40      0.791025   2 C  px               42     -0.778052   2 C  pz        
 
 Vector   88  Occ=0.000000D+00  E= 2.200319D+00
              MO Center=  4.5D-01,  1.6D-01, -3.1D-01, r^2= 3.7D+00
   Bfn.  Coefficient  Atom+Function         Bfn.  Coefficient  Atom+Function  
  ----- ------------  ---------------      ----- ------------  ---------------
    98      2.117193   4 C  s                36     -1.400289   2 C  s         
    45      1.036621   2 C  pz               76     -0.923643   3 C  pz        
   132      0.807950   6 H  s                42     -0.706564   2 C  pz        
   103     -0.679457   4 C  py               97     -0.665841   4 C  s         
   117     -0.663918   4 C  d  2            138     -0.605979   7 H  s         
 
 Vector   89  Occ=0.000000D+00  E= 2.226407D+00
              MO Center=  6.1D-01,  4.6D-02, -3.6D-02, r^2= 3.5D+00
   Bfn.  Coefficient  Atom+Function         Bfn.  Coefficient  Atom+Function  
  ----- ------------  ---------------      ----- ------------  ---------------
    36      3.000907   2 C  s                67     -1.658231   3 C  s         
     5     -1.155225   1 O  s                42     -1.137274   2 C  pz        
    98     -1.077377   4 C  s                72     -0.922055   3 C  py        
    66      0.760279   3 C  s               102      0.745882   4 C  px        
    43     -0.718443   2 C  px               51      0.678917   2 C  d -2      
 
 Vector   90  Occ=0.000000D+00  E= 2.244424D+00
              MO Center=  7.9D-01, -2.8D-01, -8.3D-01, r^2= 3.5D+00
   Bfn.  Coefficient  Atom+Function         Bfn.  Coefficient  Atom+Function  
  ----- ------------  ---------------      ----- ------------  ---------------
   150      1.361038   9 H  s                36      1.270637   2 C  s         
   144     -0.907030   8 H  s                98     -0.873908   4 C  s         
    66     -0.817572   3 C  s               117      0.815342   4 C  d  2      
    67     -0.804226   3 C  s                72      0.693378   3 C  py        
   149     -0.519367   9 H  s               147      0.511574   8 H  py        
 
 Vector   91  Occ=0.000000D+00  E= 2.268348D+00
              MO Center=  9.6D-01, -3.0D-01, -1.1D+00, r^2= 3.0D+00
   Bfn.  Coefficient  Atom+Function         Bfn.  Coefficient  Atom+Function  
  ----- ------------  ---------------      ----- ------------  ---------------
    66      2.661572   3 C  s                41     -1.692491   2 C  py        
    36      1.582490   2 C  s                35     -1.403434   2 C  s         
    67     -1.268688   3 C  s                72     -1.244222   3 C  py        
   126     -1.040990   5 H  s                71      0.982455   3 C  px        
   156      0.958077  10 H  s                40      0.757479   2 C  px        
 
 Vector   92  Occ=0.000000D+00  E= 2.283011D+00
              MO Center=  4.5D-01,  1.6D-01, -2.1D-01, r^2= 3.6D+00
   Bfn.  Coefficient  Atom+Function         Bfn.  Coefficient  Atom+Function  
  ----- ------------  ---------------      ----- ------------  ---------------
    98      3.780222   4 C  s                36     -2.741072   2 C  s         
[...]
    21     -0.875084   1 O  d -1             42     -0.800925   2 C  pz        
    97     -0.718005   4 C  s                45     -0.713082   2 C  pz        
    67     -0.522988   3 C  s                98     -0.520926   4 C  s         
     5     -0.516518   1 O  s                83     -0.499778   3 C  d -1      
 
 Vector  154  Occ=0.000000D+00  E= 6.678648D+00
              MO Center= -8.7D-01, -1.8D-01,  2.0D-01, r^2= 5.7D-01
   Bfn.  Coefficient  Atom+Function         Bfn.  Coefficient  Atom+Function  
  ----- ------------  ---------------      ----- ------------  ---------------
    18      1.063879   1 O  d  1             23     -1.040887   1 O  d  1      
    97     -0.902389   4 C  s                35      0.828850   2 C  s         
    42     -0.805231   2 C  pz              102      0.664047   4 C  px        
    54     -0.555551   2 C  d  1             14      0.409381   1 O  pz        
    45     -0.403293   2 C  pz               11      0.391997   1 O  pz        
 
 Vector  155  Occ=0.000000D+00  E= 6.842307D+00
              MO Center= -8.8D-01, -1.9D-01,  2.0D-01, r^2= 5.9D-01
   Bfn.  Coefficient  Atom+Function         Bfn.  Coefficient  Atom+Function  
  ----- ------------  ---------------      ----- ------------  ---------------
     5      2.108690   1 O  s                40      1.759151   2 C  px        
     9      1.357455   1 O  px               97     -1.285391   4 C  s         
     4      1.196819   1 O  s                20      1.046686   1 O  d -2      
    42     -0.967508   2 C  pz               12      0.848451   1 O  px        
    15     -0.832119   1 O  d -2             22     -0.828734   1 O  d  0      
 
 Vector  156  Occ=0.000000D+00  E= 7.056615D+00
              MO Center= -8.8D-01, -1.9D-01,  2.0D-01, r^2= 6.4D-01
   Bfn.  Coefficient  Atom+Function         Bfn.  Coefficient  Atom+Function  
  ----- ------------  ---------------      ----- ------------  ---------------
    66     -3.198866   3 C  s                35      3.046869   2 C  s         
    40     -2.728801   2 C  px               72      2.705325   3 C  py        
    24     -1.580146   1 O  d  2             36      1.473755   2 C  s         
    67     -1.310194   3 C  s                10      1.286906   1 O  py        
    19      1.016709   1 O  d  2             13      0.871165   1 O  py        
 
 Vector  157  Occ=0.000000D+00  E= 2.194153D+01
              MO Center=  2.7D-02,  8.4D-01,  1.1D-01, r^2= 1.0D+00
   Bfn.  Coefficient  Atom+Function         Bfn.  Coefficient  Atom+Function  
  ----- ------------  ---------------      ----- ------------  ---------------
    64      1.616205   3 C  s                65     -1.387528   3 C  s         
    63     -1.273531   3 C  s                67     -1.226334   3 C  s         
    98      0.998525   4 C  s                95     -0.668014   4 C  s         
    96      0.537461   4 C  s                94      0.528680   4 C  s         
    35      0.481963   2 C  s                40     -0.461041   2 C  px        
 
 Vector  158  Occ=0.000000D+00  E= 2.198028D+01
              MO Center=  9.3D-01, -3.1D-01, -7.7D-01, r^2= 9.9D-01
   Bfn.  Coefficient  Atom+Function         Bfn.  Coefficient  Atom+Function  
  ----- ------------  ---------------      ----- ------------  ---------------
    95      1.463957   4 C  s                96     -1.350117   4 C  s         
    98     -1.176947   4 C  s                94     -1.151936   4 C  s         
    36     -0.961765   2 C  s                34     -0.945362   2 C  s         
    33      0.878681   2 C  s                32     -0.686872   2 C  s         
    67      0.681006   3 C  s                65     -0.549418   3 C  s         
 
 Vector  159  Occ=0.000000D+00  E= 2.210312D+01
              MO Center=  6.1D-01, -1.1D-01, -7.8D-02, r^2= 7.2D-01
   Bfn.  Coefficient  Atom+Function         Bfn.  Coefficient  Atom+Function  
  ----- ------------  ---------------      ----- ------------  ---------------
    36      2.169144   2 C  s                33     -1.530339   2 C  s         
    34      1.507466   2 C  s                35     -1.299154   2 C  s         
    98     -1.304259   4 C  s                32      1.198468   2 C  s         
    67     -1.141034   3 C  s                95      0.734368   4 C  s         
    97      0.684550   4 C  s                96     -0.660990   4 C  s         
 
 Vector  160  Occ=0.000000D+00  E= 4.341597D+01
              MO Center= -8.7D-01, -1.8D-01,  2.0D-01, r^2= 1.2D-01
   Bfn.  Coefficient  Atom+Function         Bfn.  Coefficient  Atom+Function  
  ----- ------------  ---------------      ----- ------------  ---------------
     4      2.508279   1 O  s                 3     -1.875035   1 O  s         
     2      1.731614   1 O  s                 1     -1.395856   1 O  s         
     5     -0.883141   1 O  s                36      0.840338   2 C  s         
     9      0.561444   1 O  px               66     -0.505761   3 C  s         
    40      0.464833   2 C  px               72      0.454128   3 C  py        
 

 center of mass
 --------------
 x =   0.30619366 y =   0.09486541 z =  -0.27792479

 moments of inertia (a.u.)
 ------------------
         199.409186771779          45.170068063080          82.734820896517
          45.170068063080         246.511520362081         -52.139958398230
          82.734820896517         -52.139958398230         237.646930126739
 
     Multipole analysis of the density
     ---------------------------------
 
     L   x y z        total         alpha         beta         nuclear
     -   - - -        -----         -----         ----         -------
     0   0 0 0     -0.000000    -16.000000    -16.000000     32.000000
 
     1   1 0 0      0.686956     -6.211846     -6.211846     13.110649
     1   0 1 0      0.326310     -1.624169     -1.624169      3.574649
     1   0 0 1     -0.051522      5.327256      5.327256    -10.706033
 
     2   2 0 0    -20.033735    -54.024785    -54.024785     88.015835
     2   1 1 0     -1.108625     13.745022     13.745022    -28.598668
     2   1 0 1      0.155400     26.197950     26.197950    -52.240500
     2   0 2 0    -17.838467    -40.413267    -40.413267     62.988068
     2   0 1 1      0.238614    -15.249496    -15.249496     30.737606
     2   0 0 2    -18.197236    -45.633050    -45.633050     73.068865
 
 *** CALLING NEW AORESP DRIVER FOR CLOSED AND OPEN SHELLS ***
 Entering AOResponse driver routine


--------------------------------------------------------------------------------

          ****************
          *** RESPONSE ***
          ****************

 Response module for NWChem and dynamic CPKS solver
 developed by J. Autschbach and coworkers, SUNY Buffalo
 The methodology used in this program is described in 
 ChemPhysChem 12 (2011), 3224-3235 (main reference)
 J. Chem. Phys. 123 (2005), 114103
 J. Chem. Phys. 122 (2005), 224115
 J. Chem. Phys. 122 (2005), 074105
 Comp. Lett. 3 (2007), 131-150 (contact JA for a copy)
 Please cite this work in publications based on results
 obtained with this code. Thank you!

 For extension of response module to open shell
 calculations please acknowledge:
 F. Aquino, Northwestern University, Schatz Rsrch Group
 The update to the methodology is described in
 J. Phys. Chem. A 118 (2014) 517-525



          -----------------------------------------------
          Solving response equations for perturbing field
          -----------------------------------------------

 number of frequencies:     1
 frequency in a.u.:  0.9319600E-01
 Perturbing field: electric
 Using GIAO formalism for OptRot
 Adding quadrupole terms to OptRot
 to create an origin in dependent tensor.
 Using El. Dipole Length Gauge
 
 Applying DAMPING constant of  0.003700 a.u.
 
 Setting up CPKS
 with frequency omega =      0.09319600 a.u.
 and a damping of            0.00370000 a.u.

 
                            NWChem Dynamic CPHF Module
                            --------------------------
 
 
    scftype = RHF 
    nclosed =   16
      nopen =    0
  variables =     9216
  num. vecs =        3
  tolerance =   1.0D-07
  max. iter =  100

 SCF residual:   3.858607992864029E-006


Iterative solution of linear equations
  No. of variables     4608
  No. of equations        3
  Maximum subspace       99
       Convergence  1.0D-07
        Start time     93.9


   iter   nsub   residual    time 
   ----  ------  --------  --------- 
 dft_CPHF2_read: failed to open
 ./methyloxirane_blyp-def2-tzvp_488.9_03.inp.aoresp_fiao_f1
     1      3    3.85D+00     142.7
     2      6    2.71D+00     191.7
     3      9    2.43D-01     240.9
     4     12    5.19D-02     290.2
     5     15    1.07D-02     339.3
     6     18    1.30D-03     388.3
     7     21    1.45D-04     437.3
     8     24    1.37D-05     486.4
     9     27    1.29D-06     535.4
    10     30    4.90D-07     584.6
    11     33    1.65D-08     633.6

 Calculating some arrays needed for GIAO optical rotation

    0 giaofock schwarz done =      91.51%
    0 giaofock schwarz done =      93.23%
 aor_r1_tensor_giao: roadata output requested
 dip-quad polarizability Re:

              1        2        3        4        5        6      
    1   77.0806  -6.1624 -27.7331  -4.4868   0.9856   9.1602
    2  -11.7316  25.4223   3.2340  23.6359 -21.6769   3.9615
    3   -6.7475   0.8786  39.0616  -0.2241  14.0384 -40.5446
 traceless dip-quad polarizability:

              1        2        3      
    1   74.7439  -9.2437 -41.5997
    2   -9.2437 -47.6072   1.4783
    3  -41.5997   1.4783 -27.1367

              1        2        3      
    1  -25.5303  38.1334   4.8510
    2   38.1334  27.5209 -32.5153
    3    4.8510 -32.5153  -1.9906

              1        2        3      
    1   13.6368   1.3179  58.5924
    2    1.3179  23.4220  21.0576
    3   58.5924  21.0576 -37.0588

 roa begin

 alpha real:
 XX       0.4093655959582E+02
 XY      -0.5169088751960E+01
 XZ      -0.3021152632404E+01
 YX      -0.5169088760209E+01
 YY       0.4402259788377E+02
 YZ       0.3143954482831E+01
 ZX      -0.3021152644387E+01
 ZY       0.3143954482777E+01
 ZZ       0.4143541687612E+02

 alpha im:
 XX       0.1106418167282E+00
 XY      -0.2981529970343E-01
 XZ      -0.1124933124419E-01
 YX      -0.2981529257982E-01
 YY       0.1290886918363E+00
 YZ       0.1823378115936E-01
 ZX      -0.1124932649310E-01
 ZY       0.1823378197834E-01
 ZZ       0.1224609977780E+00

 beta real:
 XX      -0.1352463340697E+00
 XY       0.9380564920894E+00
 XZ       0.2016498715533E+00
 YX      -0.8847523131238E+00
 YY       0.1464949428210E+00
 YZ      -0.1543214940271E+01
 ZX      -0.4897684006385E+00
 ZY       0.1863333246334E+01
 ZZ      -0.1189698425297E-01

 G-prime = -omega beta(real):
 XX      -0.1352463340697E+00
 XY       0.9380564920894E+00
 XZ       0.2016498715533E+00
 YX      -0.8847523131238E+00
 YY       0.1464949428210E+00
 YZ      -0.1543214940271E+01
 ZX      -0.4897684006385E+00
 ZY       0.1863333246334E+01
 ZZ      -0.1189698425297E-01

 beta im:
 XX      -0.5840190482720E-02
 XY       0.1328129483372E-01
 XZ       0.2770190789932E-02
 YX      -0.7479579274838E-02
 YY       0.4856014264471E-02
 YZ      -0.2347051357855E-01
 ZX      -0.1366063820336E-01
 ZY       0.4009906639881E-01
 ZZ       0.2954983011958E-03

 G-prime = -omega beta(imag):
 XX      -0.5840190482720E-02
 XY       0.1328129483372E-01
 XZ       0.2770190789932E-02
 YX      -0.7479579274838E-02
 YY       0.4856014264471E-02
 YZ      -0.2347051357855E-01
 ZX      -0.1366063820336E-01
 ZY       0.4009906639881E-01
 ZZ       0.2954983011958E-03

 dipole-quadrupole real (Cartesian):
 XXX      0.7708059803591E+02
 XXY     -0.6162449424334E+01
 XXZ     -0.2773312158640E+02
 XYY     -0.4486802751774E+01
 XYZ      0.9855583732600E+00
 XZZ      0.9160244374143E+01
 YXX     -0.1173163925779E+02
 YXY      0.2542226416971E+02
 YXZ      0.3233996251932E+01
 YYY      0.2363586526454E+02
 YYZ     -0.2167686958266E+02
 YZZ      0.3961539489343E+01
 ZXX     -0.6747539345410E+01
 ZXY      0.8786099620597E+00
 ZXZ      0.3906157789189E+02
 ZYY     -0.2240514989539E+00
 ZYZ      0.1403842651179E+02
 ZZZ     -0.4054460482640E+02

 dipole-quadrupole imag (Cartesian):
 XXX      0.2697813718083E+00
 XXY     -0.3448397529585E-01
 XXZ     -0.7778107613157E-01
 XYY     -0.2874228612287E-01
 XYZ      0.1260477399794E-02
 XZZ      0.6072269497683E-01
 YXX     -0.5663344816249E-01
 YXY      0.6140541560357E-01
 YXZ      0.1887537054411E-01
 YYY      0.9352554956536E-01
 YYZ     -0.6148492876054E-01
 YZZ      0.9311784539069E-02
 ZXX     -0.3451847707597E-01
 ZXY     -0.1136416337163E-02
 ZXZ      0.1443587899793E+00
 ZYY      0.4981850553210E-02
 ZYZ      0.6678491755133E-01
 ZZZ     -0.9308194043779E-01

 dipole-quadrupole (traceless):
 XXX      0.7474387722473E+02
 XXY     -0.9243674136501E+01
 XXZ     -0.4159968237960E+02
 XYY     -0.4760722395680E+02
 XYZ      0.1478337559890E+01
 XZZ     -0.2713665326793E+02
 YXX     -0.2553034163473E+02
 YXY      0.3813339625456E+02
 YXZ      0.4850994377898E+01
 YYY      0.2752091514876E+02
 YYZ     -0.3251530437399E+02
 YZZ     -0.1990573514032E+01
 ZXX      0.1363678881726E+02
 ZXY      0.1317914943090E+01
 ZXZ      0.5859236683783E+02
 ZYY      0.2342202058695E+02
 ZYZ      0.2105763976769E+02
 ZZZ     -0.3705880940421E+02

 roa end


 Electric Dipole Response Matrix (nonzero elements):

              1        2        3      
    1   40.9366  -5.1691  -3.0212
    2   -5.1691  44.0226   3.1440
    3   -3.0212   3.1440  41.4354
 
 Imaginary part:

              1        2        3      
    1    0.1106  -0.0298  -0.0112
    2   -0.0298   0.1291   0.0182
    3   -0.0112   0.0182   0.1225

 ------------------------------------------
 average:        42.13152 + I       0.12073


 DFT Linear Response polarizability / au 
 Frequency  =       0.0931960 / au
 Wavelength =     488.8981609 / nm
              X              Y              Z
 -----------------------------------------------
 X      40.9365596     -5.1690888     -3.0211526
 Y      -5.1690888     44.0225979      3.1439545
 Z      -3.0211526      3.1439545     41.4354169
 -----------------------------------------------
 Eigenvalues =      36.9770625     50.0519070     39.3656049
 Isotropic   =      42.1315248
 Anisotropic =       9.8463825
 -----------------------------------------------
 *************************

 DFT Linear Response IMAG polarizability / au 
 Frequency  =       0.0931960 / au
 Wavelength =     488.8981609 / nm
              X              Y              Z
 -----------------------------------------------
 X       0.1106418     -0.0298153     -0.0112493
 Y      -0.0298153      0.1290887      0.0182338
 Z      -0.0112493      0.0182338      0.1224610
 -----------------------------------------------
 Eigenvalues =       0.0885386      0.1624789      0.1111740
 Isotropic   =       0.1207305
 Anisotropic =       0.0535778
 -----------------------------------------------
 *************************

 Magnetic Dipole Response Matrix (nonzero elements):
 Optical rotation tensor Beta
 (Buckingham-Dunn version including dipole-quadrupole terms)

              1        2        3      
    1    2.6289  -0.4028   0.4188
    2   -0.4028  -1.6254  -1.7194
    3    0.4188  -1.7194  -0.9966
 
 Imaginary part:

              1        2        3      
    1    0.0627  -0.1425  -0.0297
    2    0.0803  -0.0521   0.2518
    3    0.1466  -0.4303  -0.0032

 ------------------------------------------
 average:         0.00232 + I       0.00246

 Principal components and PAS (Real part)
                 -3.05916
                  2.77301
                  0.29311
 ------------------------
 average:         0.00232

              1        2        3      
    1    0.0074   0.9705  -0.2408
    2    0.7688  -0.1595  -0.6192
    3    0.6394   0.1806   0.7474

 Chiral response tensor (Real part):

              1        2        3      
    1   -1.3110   0.2014  -0.2094
    2    0.2014   0.8162   0.8597
    3   -0.2094   0.8597   0.5018
 
 Principal components and PAS (Real part)
                  1.53306
                 -1.38302
                 -0.14308
 ------------------------
 average:         0.00232

              1        2        3      
    1    0.0074   0.9705  -0.2408
    2    0.7688  -0.1595  -0.6192
    3    0.6394   0.1806   0.7474
 Exiting AOResponse driver routine

 Task  times  cpu:      614.0s     wall:      626.2s
 
 
                                NWChem Input Module
                                -------------------
 
 
 Summary of allocated global arrays
-----------------------------------
  No active global arrays



                         GA Statistics for process    0
                         ------------------------------

       create   destroy   get      put      acc     scatter   gather  read&inc
calls: 3294     3294     7.57e+06 3.14e+06 7.43e+05 2694        0     1100     
number of processes/call 1.01e+00 1.03e+00 1.43e+00 0.00e+00 0.00e+00
bytes total:             1.73e+09 1.26e+08 1.76e+09 1.84e+02 0.00e+00 8.80e+03
bytes remote:            7.39e+08 3.29e+07 1.02e+09 0.00e+00 0.00e+00 0.00e+00
Max memory consumed for GA by this process: 11242192 bytes
 
MA_summarize_allocated_blocks: starting scan ...
MA_summarize_allocated_blocks: scan completed: 0 heap blocks, 0 stack blocks
MA usage statistics:

	allocation statistics:
					      heap	     stack
					      ----	     -----
	current number of blocks	         0	         0
	maximum number of blocks	        24	        52
	current total bytes		         0	         0
	maximum total bytes		   7519840	  48955000
	maximum total K-bytes		      7520	     48955
	maximum total M-bytes		         8	        49
 
 
                                     CITATION
                                     --------
                Please cite the following reference when publishing
                           results obtained with NWChem:
 
                 M. Valiev, E.J. Bylaska, N. Govind, K. Kowalski,
              T.P. Straatsma, H.J.J. van Dam, D. Wang, J. Nieplocha,
                        E. Apra, T.L. Windus, W.A. de Jong
                 "NWChem: a comprehensive and scalable open-source
                  solution for large scale molecular simulations"
                      Comput. Phys. Commun. 181, 1477 (2010)
                           doi:10.1016/j.cpc.2010.04.018
 
                                      AUTHORS
                                      -------
          E. Apra, E. J. Bylaska, W. A. de Jong, N. Govind, K. Kowalski,
       T. P. Straatsma, M. Valiev, H. J. J. van Dam, D. Wang, T. L. Windus,
        J. Hammond, J. Autschbach, K. Bhaskaran-Nair, J. Brabec, K. Lopata,
    S. A. Fischer, S. Krishnamoorthy, M. Jacquelin, W. Ma, M. Klemm, O. Villa,
      Y. Chen, V. Anisimov, F. Aquino, S. Hirata, M. T. Hackler, V. Konjkov,
            D. Mejia-Rodriguez, T. Risthaus, M. Malagoli, A. Marenich,
   A. Otero-de-la-Roza, J. Mullin, P. Nichols, R. Peverati, J. Pittner, Y. Zhao,
        P.-D. Fan, A. Fonari, M. J. Williamson, R. J. Harrison, J. R. Rehr,
      M. Dupuis, D. Silverstein, D. M. A. Smith, J. Nieplocha, V. Tipparaju,
    M. Krishnan, B. E. Van Kuiken, A. Vazquez-Mayagoitia, L. Jensen, M. Swart,
      Q. Wu, T. Van Voorhis, A. A. Auer, M. Nooijen, L. D. Crosby, E. Brown,
      G. Cisneros, G. I. Fann, H. Fruchtl, J. Garza, K. Hirao, R. A. Kendall,
      J. A. Nichols, K. Tsemekhman, K. Wolinski, J. Anchell, D. E. Bernholdt,
      P. Borowski, T. Clark, D. Clerc, H. Dachsel, M. J. O. Deegan, K. Dyall,
    D. Elwood, E. Glendening, M. Gutowski, A. C. Hess, J. Jaffe, B. G. Johnson,
     J. Ju, R. Kobayashi, R. Kutteh, Z. Lin, R. Littlefield, X. Long, B. Meng,
      T. Nakajima, S. Niu, L. Pollack, M. Rosing, K. Glaesemann, G. Sandrone,
      M. Stave, H. Taylor, G. Thomas, J. H. van Lenthe, A. T. Wong, Z. Zhang.

 Total times  cpu:      686.9s     wall:      700.9s
