 argument  1 = methyloxirane_blyp-def2-tzvp_488.9_41.inp
 


============================== echo of input deck ==============================
echo
start methyloxirane_blyp-def2-tzvp_488.9_41.inp
title "methyloxirane roa calculations at 488.9 nm, input generated in va  with delta_type=2"
charge 0



geometry units angstrom nocenter noautoz noautosym nucleus point;symmetry c1
 O -0.879282 -0.180472  0.205225
 C  0.575306 -0.158303  0.122422
 C -0.185558  1.088427  0.340171
 C  1.186493 -0.520364 -1.210392
 H  1.056275 -0.602611  1.000866
 H -0.228266  1.541026  1.334499
 H -0.325525  1.784844 -0.491243
 H  2.238301 -0.202377 -1.241934
 H  1.123569 -1.603773 -1.383500
 H  0.653980 -0.040714 -2.041865
end

basis spherical
* library def2-TZVP
end

 set prop:newaoresp 1
 set aor:roadata T
 set cphf:maxsub 100
 set cphf:acc 1.0d-10
 set cphf:maxiter 100

property
    response 1   0.093196
    bdtensor
    convergence 1e-7
    damping 0.0037
    giao
end

dft
 direct
 mult 1
 xc becke88 lyp
 iterations 250
 tolerances tight
 grid xfine
 convergence nolevelshifting
 convergence energy 1e-8
 convergence gradient 1e-7


end

task dft gradient
task dft property
================================================================================


                                         
                                         
 
 
              Northwest Computational Chemistry Package (NWChem) 6.8
              ------------------------------------------------------
 
 
                    Environmental Molecular Sciences Laboratory
                       Pacific Northwest National Laboratory
                                Richland, WA 99352
 
                              Copyright (c) 1994-2017
                       Pacific Northwest National Laboratory
                            Battelle Memorial Institute
 
             NWChem is an open-source computational chemistry package
                        distributed under the terms of the
                      Educational Community License (ECL) 2.0
             A copy of the license is included with this distribution
                              in the LICENSE.TXT file
 
                                  ACKNOWLEDGMENT
                                  --------------

            This software and its documentation were developed at the
            EMSL at Pacific Northwest National Laboratory, a multiprogram
            national laboratory, operated for the U.S. Department of Energy
            by Battelle under Contract Number DE-AC05-76RL01830. Support
            for this work was provided by the Department of Energy Office
            of Biological and Environmental Research, Office of Basic
            Energy Sciences, and the Office of Advanced Scientific Computing.


           Job information
           ---------------

    hostname        = cpn-f11-19-01.cbls.ccr.buffalo.edu
    program         = /util/academic/nwchem/nwchem-6.8/bin/LINUX64/nwchem
    date            = Fri Mar  1 10:42:32 2019

    compiled        = Tue_Nov_06_14:59:08_2018
    source          = /util/academic/nwchem/nwchem-6.8
    nwchem branch   = 6.8
    nwchem revision = v6.8-47-gdf6c956
    ga revision     = ga-5.6.3
    use scalapack   = F
    input           = methyloxirane_blyp-def2-tzvp_488.9_41.inp
    prefix          = methyloxirane_blyp-def2-tzvp_488.9_41.inp.
    data base       = ./methyloxirane_blyp-def2-tzvp_488.9_41.inp.db
    status          = startup
    nproc           =        7
    time left       =     -1s



           Memory information
           ------------------

    heap     =   13107198 doubles =    100.0 Mbytes
    stack    =   13107195 doubles =    100.0 Mbytes
    global   =   26214400 doubles =    200.0 Mbytes (distinct from heap & stack)
    total    =   52428793 doubles =    400.0 Mbytes
    verify   = yes
    hardfail = no 


           Directory information
           ---------------------
 
  0 permanent = .
  0 scratch   = .
 
 
 
 
                                NWChem Input Module
                                -------------------
 
 
                    methyloxirane roa calculations at 488.9 nm, input generated in va  with delta_type=2
                    ------------------------------------------

 Scaling coordinates for geometry "geometry" by  1.889725989
 (inverse scale =  0.529177249)

 
 
                             Geometry "geometry" -> ""
                             -------------------------
 
 Output coordinates in angstroms (scale by  1.889725989 to convert to a.u.)
 
  No.       Tag          Charge          X              Y              Z
 ---- ---------------- ---------- -------------- -------------- --------------
    1 O                    8.0000    -0.87928200    -0.18047200     0.20522500
    2 C                    6.0000     0.57530600    -0.15830300     0.12242200
    3 C                    6.0000    -0.18555800     1.08842700     0.34017100
    4 C                    6.0000     1.18649300    -0.52036400    -1.21039200
    5 H                    1.0000     1.05627500    -0.60261100     1.00086600
    6 H                    1.0000    -0.22826600     1.54102600     1.33449900
    7 H                    1.0000    -0.32552500     1.78484400    -0.49124300
    8 H                    1.0000     2.23830100    -0.20237700    -1.24193400
    9 H                    1.0000     1.12356900    -1.60377300    -1.38350000
   10 H                    1.0000     0.65398000    -0.04071400    -2.04186500
 
      Atomic Mass 
      ----------- 
 
      O                 15.994910
      C                 12.000000
      H                  1.007825
 

 Effective nuclear repulsion energy (a.u.)     123.5024515761

            Nuclear Dipole moment (a.u.) 
            ----------------------------
        X                 Y               Z
 ---------------- ---------------- ----------------
    13.1175783032     3.5738101054   -10.7112900464
 
 
            XYZ format geometry
            -------------------
    10
 geometry
 O                    -0.87928200    -0.18047200     0.20522500
 C                     0.57530600    -0.15830300     0.12242200
 C                    -0.18555800     1.08842700     0.34017100
 C                     1.18649300    -0.52036400    -1.21039200
 H                     1.05627500    -0.60261100     1.00086600
 H                    -0.22826600     1.54102600     1.33449900
 H                    -0.32552500     1.78484400    -0.49124300
 H                     2.23830100    -0.20237700    -1.24193400
 H                     1.12356900    -1.60377300    -1.38350000
 H                     0.65398000    -0.04071400    -2.04186500
 
 ==============================================================================
                                internuclear distances
 ------------------------------------------------------------------------------
       center one      |      center two      | atomic units |  angstroms
 ------------------------------------------------------------------------------
    2 C                |   1 O                |     2.75354  |     1.45711
    3 C                |   1 O                |     2.74470  |     1.45244
    3 C                |   2 C                |     2.79057  |     1.47671
    4 C                |   2 C                |     2.85407  |     1.51031
    5 H                |   2 C                |     2.07044  |     1.09563
    6 H                |   3 C                |     2.06608  |     1.09332
    7 H                |   3 C                |     2.06650  |     1.09354
    8 H                |   4 C                |     2.07733  |     1.09928
    9 H                |   4 C                |     2.07672  |     1.09895
   10 H                |   4 C                |     2.07438  |     1.09772
 ------------------------------------------------------------------------------
                         number of included internuclear distances:         10
 ==============================================================================



 ==============================================================================
                                 internuclear angles
 ------------------------------------------------------------------------------
        center 1       |       center 2       |       center 3       |  degrees
 ------------------------------------------------------------------------------
    2 C                |   1 O                |   3 C                |    61.00
    2 C                |   1 O                |   3 C                |    61.00
    1 O                |   2 C                |   4 C                |   116.77
    1 O                |   2 C                |   5 H                |   112.74
    3 C                |   2 C                |   4 C                |   122.75
    3 C                |   2 C                |   5 H                |   116.77
    4 C                |   2 C                |   5 H                |   115.64
    3 C                |   1 O                |   2 C                |    61.00
    1 O                |   3 C                |   6 H                |   115.31
    1 O                |   3 C                |   7 H                |   115.13
    2 C                |   3 C                |   6 H                |   120.25
    2 C                |   3 C                |   7 H                |   119.44
    6 H                |   3 C                |   7 H                |   115.01
    2 C                |   4 C                |   8 H                |   110.07
    2 C                |   4 C                |   9 H                |   110.62
    2 C                |   4 C                |  10 H                |   111.55
    8 H                |   4 C                |   9 H                |   109.60
    8 H                |   4 C                |  10 H                |   108.42
    9 H                |   4 C                |  10 H                |   106.48
 ------------------------------------------------------------------------------
                            number of included internuclear angles:         19
 ==============================================================================



  warning:::::::::::::: from_environment
  NWCHEM_BASIS_LIBRARY set to: <
 /util/academic/nwchem/nwchem-6.8/src/basis/libraries>
  but file does not exist !
  using .nwchemrc or compiled library


 Summary of "ao basis" -> "" (spherical)
 ------------------------------------------------------------------------------
       Tag                 Description            Shells   Functions and Types
 ---------------- ------------------------------  ------  ---------------------
 *                         def2-TZVP                  on all atoms 


 
                                 NWChem DFT Module
                                 -----------------
 
 
                    methyloxirane roa calculations at 488.9 nm, input generated in va  with delta_type=2
 
 
                      Basis "ao basis" -> "ao basis" (spherical)
                      -----
  O (Oxygen)
  ----------
            Exponent  Coefficients 
       -------------- ---------------------------------------------------------
  1 S  2.70323826E+04  0.000217
  1 S  4.05238714E+03  0.001684
  1 S  9.22327227E+02  0.008740
  1 S  2.61240710E+02  0.035240
  1 S  8.53546414E+01  0.111535
  1 S  3.10350352E+01  0.255890
 
  2 S  1.22608607E+01  0.397687
  2 S  4.99870760E+00  0.246278
 
  3 S  1.17031082E+00  1.000000
 
  4 S  4.64747410E-01  1.000000
 
  5 S  1.85045364E-01  1.000000
 
  6 P  6.32749548E+01  0.006069
  6 P  1.46270494E+01  0.041913
  6 P  4.45012235E+00  0.161538
  6 P  1.52757996E+00  0.357070
 
  7 P  5.29351179E-01  1.000000
 
  8 P  1.74784213E-01  1.000000
 
  9 D  2.31400000E+00  1.000000
 
 10 D  6.45000000E-01  1.000000
 
 11 F  1.42800000E+00  1.000000
 
  C (Carbon)
  ----------
            Exponent  Coefficients 
       -------------- ---------------------------------------------------------
  1 S  1.35753497E+04  0.000222
  1 S  2.03523337E+03  0.001723
  1 S  4.63225624E+02  0.008926
  1 S  1.31200196E+02  0.035728
  1 S  4.28530159E+01  0.110763
  1 S  1.55841858E+01  0.242956
 
  2 S  6.20671385E+00  0.414403
  2 S  2.57648965E+00  0.237450
 
  3 S  5.76963394E-01  1.000000
 
  4 S  2.29728314E-01  1.000000
 
  5 S  9.51644400E-02  1.000000
 
  6 P  3.46972322E+01  0.005333
  6 P  7.95826228E+00  0.035864
  6 P  2.37808269E+00  0.142159
  6 P  8.14332082E-01  0.342705
 
  7 P  2.88875473E-01  1.000000
 
  8 P  1.00568237E-01  1.000000
 
  9 D  1.09700000E+00  1.000000
 
 10 D  3.18000000E-01  1.000000
 
 11 F  7.61000000E-01  1.000000
 
  H (Hydrogen)
  ------------
            Exponent  Coefficients 
       -------------- ---------------------------------------------------------
  1 S  3.40613410E+01  0.006025
  1 S  5.12357460E+00  0.045021
  1 S  1.16466260E+00  0.201897
 
  2 S  3.27230410E-01  1.000000
 
  3 S  1.03072410E-01  1.000000
 
  4 P  8.00000000E-01  1.000000
 


 Summary of "ao basis" -> "ao basis" (spherical)
 ------------------------------------------------------------------------------
       Tag                 Description            Shells   Functions and Types
 ---------------- ------------------------------  ------  ---------------------
 O                         def2-TZVP                11       31   5s3p2d1f
 C                         def2-TZVP                11       31   5s3p2d1f
 H                         def2-TZVP                 4        6   3s1p




 Summary of "ao basis" -> "ao basis" (spherical)
 ------------------------------------------------------------------------------
       Tag                 Description            Shells   Functions and Types
 ---------------- ------------------------------  ------  ---------------------
 O                         def2-TZVP                11       31   5s3p2d1f
 C                         def2-TZVP                11       31   5s3p2d1f
 H                         def2-TZVP                 4        6   3s1p


  Caching 1-el integrals 
  itol2e modified to match energy
  convergence criterion.
  tol_rho modified to match energy
  convergence criterion.
 
            General Information
            -------------------
          SCF calculation type: DFT
          Wavefunction type:  closed shell.
          No. of atoms     :    10
          No. of electrons :    32
           Alpha electrons :    16
            Beta electrons :    16
          Charge           :     0
          Spin multiplicity:     1
          Use of symmetry is: off; symmetry adaption is: off
          Maximum number of iterations: 250
          This is a Direct SCF calculation.
          AO basis - number of functions:   160
                     number of shells:    68
          Convergence on energy requested:  1.00D-08
          Convergence on density requested:  1.00D-05
          Convergence on gradient requested:  1.00D-07
 
              XC Information
              --------------
                    Becke 1988 Exchange Functional  1.000          
              Lee-Yang-Parr Correlation Functional  1.000          
 
             Grid Information
             ----------------
          Grid used for XC integration:  xfine     
          Radial quadrature: Mura-Knowles        
          Angular quadrature: Lebedev. 
          Tag              B.-S. Rad. Rad. Pts. Rad. Cut. Ang. Pts.
          ---              ---------- --------- --------- ---------
          O                   0.60      100          11.0      1454
          C                   0.70      100          11.0      1454
          H                   0.35      100          12.0      1202
          Grid pruning is: on 
          Number of quadrature shells:  1000
          Spatial weights used:  Erf1
 
          Convergence Information
          -----------------------
          Convergence aids based upon iterative change in 
          total energy or number of iterations. 
          Levelshifting, if invoked, occurs when the 
          HOMO/LUMO gap drops below (HL_TOL):  1.00D-02
          DIIS, if invoked, will attempt to extrapolate 
          using up to (NFOCK): 10 stored Fock matrices.

                    Damping( 0%)  Levelshifting(0.0)       DIIS
                  --------------- ------------------- ---------------
          dE  on:    start             N/A                start   
          dE off:    2 iters           N/A              250 iters 

 
      Screening Tolerance Information
      -------------------------------
          Density screening/tol_rho:  1.00D-11
          AO Gaussian exp screening on grid/accAOfunc:  18
          CD Gaussian exp screening on grid/accCDfunc:  20
          XC Gaussian exp screening on grid/accXCfunc:  20
          Schwarz screening/accCoul:  1.00D-09

 
      Superposition of Atomic Density Guess
      -------------------------------------
 
 Sum of atomic energies:        -190.79714706
 
      Non-variational initial energy
      ------------------------------

 Total energy =    -193.158156
 1-e energy   =    -501.969195
 2-e energy   =     185.308588
 HOMO         =      -0.351246
 LUMO         =       0.090486
 
   Time after variat. SCF:      0.7
   Time prior to 1st pass:      0.7

 Grid_pts file          = ./methyloxirane_blyp-def2-tzvp_488.9_41.inp.gridpts.0
 Record size in doubles =  12289        No. of grid_pts per rec  =   3070
 Max. records in memory =     76        Max. recs in file   =    554542


           Memory utilization after 1st SCF pass: 
           Heap Space remaining (MW):       12.17            12167542
          Stack Space remaining (MW):       13.11            13106116

   convergence    iter        energy       DeltaE   RMS-Dens  Diis-err    time
 ---------------- ----- ----------------- --------- --------- ---------  ------
 d= 0,ls=0.0,diis     1   -193.0199077537 -3.17D+02  9.16D-03  1.06D+00     7.0
 d= 0,ls=0.0,diis     2   -192.8565140113  1.63D-01  7.57D-03  2.57D+00    13.1
 d= 0,ls=0.0,diis     3   -193.0770082902 -2.20D-01  1.82D-03  3.87D-01    19.2
 d= 0,ls=0.0,diis     4   -193.1071527484 -3.01D-02  6.85D-04  1.83D-02    25.2
 d= 0,ls=0.0,diis     5   -193.1088294513 -1.68D-03  2.92D-04  2.71D-03    31.3
 d= 0,ls=0.0,diis     6   -193.1091668117 -3.37D-04  3.01D-05  3.51D-05    37.3
 d= 0,ls=0.0,diis     7   -193.1091709736 -4.16D-06  8.38D-06  4.01D-06    43.3
 d= 0,ls=0.0,diis     8   -193.1091714191 -4.46D-07  1.99D-06  2.89D-07    49.6
 d= 0,ls=0.0,diis     9   -193.1091714505 -3.14D-08  6.54D-07  1.57D-08    55.6
 d= 0,ls=0.0,diis    10   -193.1091714522 -1.78D-09  1.86D-07  2.05D-09    61.6


         Total DFT energy =     -193.109171452239
      One electron energy =     -505.624484391125
           Coulomb energy =      216.032658391036
    Exchange-Corr. energy =      -27.019797028264
 Nuclear repulsion energy =      123.502451576115

 Numeric. integr. density =       32.000000090791

     Total iterative time =     61.0s


 
                       DFT Final Molecular Orbital Analysis
                       ------------------------------------
 
 Vector    1  Occ=2.000000D+00  E=-1.877965D+01
              MO Center= -8.8D-01, -1.8D-01,  2.1D-01, r^2= 1.5D-02
   Bfn.  Coefficient  Atom+Function         Bfn.  Coefficient  Atom+Function  
  ----- ------------  ---------------      ----- ------------  ---------------
     2      0.638479   1 O  s                 1      0.435422   1 O  s         
     3      0.039872   1 O  s                 4     -0.033187   1 O  s         
 
 Vector    2  Occ=2.000000D+00  E=-9.963371D+00
              MO Center=  5.8D-01, -1.6D-01,  1.2D-01, r^2= 2.8D-02
   Bfn.  Coefficient  Atom+Function         Bfn.  Coefficient  Atom+Function  
  ----- ------------  ---------------      ----- ------------  ---------------
    33      0.606920   2 C  s                32      0.467265   2 C  s         
    34      0.042487   2 C  s                36      0.037289   2 C  s         
    35     -0.027258   2 C  s         
 
 Vector    3  Occ=2.000000D+00  E=-9.955597D+00
              MO Center= -1.9D-01,  1.1D+00,  3.4D-01, r^2= 2.8D-02
   Bfn.  Coefficient  Atom+Function         Bfn.  Coefficient  Atom+Function  
  ----- ------------  ---------------      ----- ------------  ---------------
    64      0.607031   3 C  s                63      0.467227   3 C  s         
    65      0.039739   3 C  s         
 
 Vector    4  Occ=2.000000D+00  E=-9.908031D+00
              MO Center=  1.2D+00, -5.2D-01, -1.2D+00, r^2= 2.8D-02
   Bfn.  Coefficient  Atom+Function         Bfn.  Coefficient  Atom+Function  
  ----- ------------  ---------------      ----- ------------  ---------------
    95      0.606960   4 C  s                94      0.467215   4 C  s         
    96      0.040586   4 C  s                98      0.035837   4 C  s         
 
 Vector    5  Occ=2.000000D+00  E=-9.618519D-01
              MO Center= -4.7D-01,  5.6D-02,  2.1D-01, r^2= 6.5D-01
   Bfn.  Coefficient  Atom+Function         Bfn.  Coefficient  Atom+Function  
  ----- ------------  ---------------      ----- ------------  ---------------
     4      0.375392   1 O  s                 3      0.277569   1 O  s         
     2     -0.192863   1 O  s                34      0.139652   2 C  s         
    65      0.139094   3 C  s                 5      0.122866   1 O  s         
    35      0.105200   2 C  s                 6      0.093132   1 O  px        
    66      0.093572   3 C  s                69     -0.091292   3 C  py        
 
 Vector    6  Occ=2.000000D+00  E=-6.699565D-01
              MO Center=  9.4D-01, -3.9D-01, -7.7D-01, r^2= 1.5D+00
   Bfn.  Coefficient  Atom+Function         Bfn.  Coefficient  Atom+Function  
  ----- ------------  ---------------      ----- ------------  ---------------
    97      0.285278   4 C  s                96      0.276433   4 C  s         
    35      0.185019   2 C  s                34      0.174687   2 C  s         
    95     -0.174054   4 C  s                 4     -0.147489   1 O  s         
    33     -0.109104   2 C  s                 3     -0.103157   1 O  s         
    94     -0.083397   4 C  s                 5     -0.073043   1 O  s         
 
 Vector    7  Occ=2.000000D+00  E=-5.896853D-01
              MO Center= -1.3D-01,  7.2D-01,  2.2D-01, r^2= 2.0D+00
   Bfn.  Coefficient  Atom+Function         Bfn.  Coefficient  Atom+Function  
  ----- ------------  ---------------      ----- ------------  ---------------
    66      0.325937   3 C  s                65      0.278116   3 C  s         
     4     -0.238122   1 O  s                64     -0.171881   3 C  s         
     3     -0.168200   1 O  s                 5     -0.147775   1 O  s         
     2      0.111050   1 O  s                38      0.104380   2 C  py        
   132      0.102861   6 H  s                97     -0.099583   4 C  s         
 
 Vector    8  Occ=2.000000D+00  E=-5.301180D-01
              MO Center=  4.1D-01,  1.5D-02, -9.8D-02, r^2= 2.7D+00
   Bfn.  Coefficient  Atom+Function         Bfn.  Coefficient  Atom+Function  
  ----- ------------  ---------------      ----- ------------  ---------------
    35      0.302716   2 C  s                34      0.224966   2 C  s         
    97     -0.154787   4 C  s                66     -0.153085   3 C  s         
    33     -0.138343   2 C  s               126      0.133112   5 H  s         
    96     -0.128467   4 C  s                 6      0.106304   1 O  px        
   125      0.106274   5 H  s                65     -0.099601   3 C  s         
 
 Vector    9  Occ=2.000000D+00  E=-4.468757D-01
              MO Center=  1.1D-01,  2.9D-01,  2.6D-01, r^2= 2.4D+00
   Bfn.  Coefficient  Atom+Function         Bfn.  Coefficient  Atom+Function  
  ----- ------------  ---------------      ----- ------------  ---------------
    70      0.210098   3 C  pz               39      0.155497   2 C  pz        
   132      0.145388   6 H  s                73      0.132261   3 C  pz        
     8      0.127076   1 O  pz              126      0.116492   5 H  s         
     6     -0.112346   1 O  px               38     -0.108143   2 C  py        
   131      0.107868   6 H  s                37      0.105568   2 C  px        
 
 Vector   10  Occ=2.000000D+00  E=-4.135688D-01
              MO Center=  4.9D-02,  2.8D-01, -2.4D-01, r^2= 2.6D+00
   Bfn.  Coefficient  Atom+Function         Bfn.  Coefficient  Atom+Function  
  ----- ------------  ---------------      ----- ------------  ---------------
    69      0.214240   3 C  py              101      0.157710   4 C  pz        
   138      0.153809   7 H  s                 6     -0.142914   1 O  px        
    38     -0.138551   2 C  py               37      0.128524   2 C  px        
     7     -0.121027   1 O  py               72      0.120956   3 C  py        
    70     -0.117868   3 C  pz                9     -0.114228   1 O  px        
 
 Vector   11  Occ=2.000000D+00  E=-3.792398D-01
              MO Center=  9.5D-01, -3.5D-01, -7.9D-01, r^2= 2.6D+00
   Bfn.  Coefficient  Atom+Function         Bfn.  Coefficient  Atom+Function  
  ----- ------------  ---------------      ----- ------------  ---------------
    99      0.210446   4 C  px              144      0.188858   8 H  s         
   100      0.173449   4 C  py              150     -0.147016   9 H  s         
   102      0.134144   4 C  px              143      0.132335   8 H  s         
    37      0.123817   2 C  px                6     -0.114204   1 O  px        
   103      0.113569   4 C  py                7      0.108366   1 O  py        
 
 Vector   12  Occ=2.000000D+00  E=-3.537208D-01
              MO Center=  5.5D-01, -3.2D-01, -8.3D-01, r^2= 2.9D+00
   Bfn.  Coefficient  Atom+Function         Bfn.  Coefficient  Atom+Function  
  ----- ------------  ---------------      ----- ------------  ---------------
   100      0.249925   4 C  py                7     -0.184667   1 O  py        
   150     -0.181589   9 H  s               156      0.172964  10 H  s         
   103      0.162734   4 C  py               10     -0.148179   1 O  py        
   149     -0.126240   9 H  s               155      0.122418  10 H  s         
    70      0.114719   3 C  pz              106      0.101775   4 C  py        
 
 Vector   13  Occ=2.000000D+00  E=-3.292176D-01
              MO Center=  3.6D-01,  2.8D-01, -2.0D-01, r^2= 2.8D+00
   Bfn.  Coefficient  Atom+Function         Bfn.  Coefficient  Atom+Function  
  ----- ------------  ---------------      ----- ------------  ---------------
    39      0.225814   2 C  pz              101     -0.198515   4 C  pz        
    70     -0.180946   3 C  pz              138      0.164916   7 H  s         
    42      0.153105   2 C  pz                7     -0.148684   1 O  py        
   104     -0.138595   4 C  pz               99      0.123159   4 C  px        
    10     -0.119715   1 O  py              132     -0.115811   6 H  s         
 
 Vector   14  Occ=2.000000D+00  E=-3.211568D-01
              MO Center=  3.9D-01, -7.7D-02, -2.6D-01, r^2= 3.0D+00
   Bfn.  Coefficient  Atom+Function         Bfn.  Coefficient  Atom+Function  
  ----- ------------  ---------------      ----- ------------  ---------------
     7      0.208597   1 O  py               10      0.171140   1 O  py        
    99     -0.167179   4 C  px                6     -0.161664   1 O  px        
   126      0.154277   5 H  s               156      0.154073  10 H  s         
    37      0.143486   2 C  px              144     -0.136240   8 H  s         
     9     -0.132283   1 O  px               39      0.113278   2 C  pz        
 
 Vector   15  Occ=2.000000D+00  E=-2.633111D-01
              MO Center=  1.4D-02,  1.5D-01,  3.5D-02, r^2= 2.3D+00
   Bfn.  Coefficient  Atom+Function         Bfn.  Coefficient  Atom+Function  
  ----- ------------  ---------------      ----- ------------  ---------------
    68      0.264935   3 C  px               38      0.256896   2 C  py        
     6     -0.235749   1 O  px               41      0.200064   2 C  py        
    71      0.197133   3 C  px                9     -0.184342   1 O  px        
    12     -0.156225   1 O  px              150      0.114503   9 H  s         
   100     -0.111403   4 C  py               67      0.106553   3 C  s         
 
 Vector   16  Occ=2.000000D+00  E=-2.195625D-01
              MO Center= -5.8D-01, -2.4D-02,  2.0D-01, r^2= 1.6D+00
   Bfn.  Coefficient  Atom+Function         Bfn.  Coefficient  Atom+Function  
  ----- ------------  ---------------      ----- ------------  ---------------
     8      0.449247   1 O  pz               11      0.357799   1 O  pz        
    14      0.296346   1 O  pz              133     -0.131928   6 H  s         
   139      0.116855   7 H  s               132     -0.104290   6 H  s         
   138      0.104278   7 H  s               145     -0.102301   8 H  s         
   126     -0.096199   5 H  s                98      0.085068   4 C  s         
 
 Vector   17  Occ=0.000000D+00  E= 2.580684D-02
              MO Center=  1.2D+00, -8.8D-02, -6.2D-01, r^2= 7.3D+00
   Bfn.  Coefficient  Atom+Function         Bfn.  Coefficient  Atom+Function  
  ----- ------------  ---------------      ----- ------------  ---------------
    98      4.534862   4 C  s               145     -1.528374   8 H  s         
   151     -1.504547   9 H  s               157     -1.373386  10 H  s         
   127     -1.252871   5 H  s                45      1.153920   2 C  pz        
   139     -0.882136   7 H  s                67      0.722632   3 C  s         
   133     -0.612654   6 H  s                75      0.325436   3 C  py        
 
 Vector   18  Occ=0.000000D+00  E= 4.268898D-02
              MO Center= -1.3D-01,  6.5D-01,  9.9D-02, r^2= 4.5D+00
   Bfn.  Coefficient  Atom+Function         Bfn.  Coefficient  Atom+Function  
  ----- ------------  ---------------      ----- ------------  ---------------
    98     -2.161243   4 C  s                36      2.003684   2 C  s         
     5     -1.266086   1 O  s                74     -0.943633   3 C  px        
   151      0.835559   9 H  s                45     -0.498175   2 C  pz        
   157      0.448392  10 H  s                13     -0.435047   1 O  py        
    67     -0.432705   3 C  s                44      0.413339   2 C  py        
 
 Vector   19  Occ=0.000000D+00  E= 5.001330D-02
              MO Center=  4.4D-01,  3.2D-01, -8.8D-02, r^2= 6.6D+00
   Bfn.  Coefficient  Atom+Function         Bfn.  Coefficient  Atom+Function  
  ----- ------------  ---------------      ----- ------------  ---------------
    36      2.815593   2 C  s                67     -2.236428   3 C  s         
   127     -1.946008   5 H  s               139      1.514601   7 H  s         
    98     -1.042796   4 C  s               157      1.012320  10 H  s         
    76      0.584817   3 C  pz               43      0.547042   2 C  px        
     5      0.493889   1 O  s                45      0.470563   2 C  pz        
 
 Vector   20  Occ=0.000000D+00  E= 5.075168D-02
              MO Center=  5.1D-01,  6.9D-01,  4.0D-01, r^2= 7.4D+00
   Bfn.  Coefficient  Atom+Function         Bfn.  Coefficient  Atom+Function  
  ----- ------------  ---------------      ----- ------------  ---------------
    98     -3.230128   4 C  s                67      3.075100   3 C  s         
   133     -1.854417   6 H  s               145      1.197257   8 H  s         
    44     -1.131658   2 C  py              157      0.960297  10 H  s         
   127     -0.860523   5 H  s               151      0.690346   9 H  s         
   139     -0.583160   7 H  s                43      0.539526   2 C  px        
 
 Vector   21  Occ=0.000000D+00  E= 6.455085D-02
              MO Center=  2.5D-01,  1.6D-01, -1.7D-01, r^2= 4.8D+00
   Bfn.  Coefficient  Atom+Function         Bfn.  Coefficient  Atom+Function  
  ----- ------------  ---------------      ----- ------------  ---------------
   139      1.297185   7 H  s                98      1.181645   4 C  s         
    67     -1.047329   3 C  s               151     -0.917734   9 H  s         
     5     -0.876769   1 O  s                43     -0.821543   2 C  px        
   133      0.582124   6 H  s                75     -0.564871   3 C  py        
    12     -0.485093   1 O  px              127     -0.456006   5 H  s         
 
 Vector   22  Occ=0.000000D+00  E= 8.644086D-02
              MO Center=  1.3D+00,  1.8D-01, -5.5D-01, r^2= 7.0D+00
   Bfn.  Coefficient  Atom+Function         Bfn.  Coefficient  Atom+Function  
  ----- ------------  ---------------      ----- ------------  ---------------
    36      2.722933   2 C  s               145      2.068955   8 H  s         
   157     -1.399259  10 H  s               127     -1.331674   5 H  s         
    67     -1.305096   3 C  s               133      1.105991   6 H  s         
   105     -1.095271   4 C  px              107     -1.087396   4 C  pz        
    98     -0.807649   4 C  s                75      0.753239   3 C  py        
 
 Vector   23  Occ=0.000000D+00  E= 9.127513D-02
              MO Center=  1.1D+00, -6.1D-01, -5.3D-01, r^2= 6.7D+00
   Bfn.  Coefficient  Atom+Function         Bfn.  Coefficient  Atom+Function  
  ----- ------------  ---------------      ----- ------------  ---------------
    36      2.619226   2 C  s               151      2.060846   9 H  s         
   145     -1.539393   8 H  s                98     -1.359540   4 C  s         
   105      1.122284   4 C  px              106      1.124886   4 C  py        
   133      0.981299   6 H  s                67     -0.964097   3 C  s         
   127     -0.834827   5 H  s               107     -0.710016   4 C  pz        
 
 Vector   24  Occ=0.000000D+00  E= 1.012458D-01
              MO Center=  4.5D-01,  3.9D-01, -1.1D+00, r^2= 6.9D+00
   Bfn.  Coefficient  Atom+Function         Bfn.  Coefficient  Atom+Function  
  ----- ------------  ---------------      ----- ------------  ---------------
   157      1.966279  10 H  s               133      1.609634   6 H  s         
    98     -1.554499   4 C  s               106     -1.490281   4 C  py        
   139     -1.465551   7 H  s                36      1.445565   2 C  s         
   151     -1.432285   9 H  s                76     -1.138476   3 C  pz        
   105      0.959294   4 C  px               45     -0.577024   2 C  pz        
 
 Vector   25  Occ=0.000000D+00  E= 1.385220D-01
              MO Center=  7.8D-01,  2.1D-01, -4.4D-01, r^2= 7.9D+00
   Bfn.  Coefficient  Atom+Function         Bfn.  Coefficient  Atom+Function  
  ----- ------------  ---------------      ----- ------------  ---------------
    36      4.647073   2 C  s                98     -3.561402   4 C  s         
    45     -3.401921   2 C  pz               67     -2.731804   3 C  s         
   127      2.701802   5 H  s                76      2.165867   3 C  pz        
   105      2.055761   4 C  px              133     -1.807150   6 H  s         
   139      1.699051   7 H  s               107     -1.571080   4 C  pz        
 
 Vector   26  Occ=0.000000D+00  E= 1.705651D-01
              MO Center=  4.5D-01,  5.3D-01, -1.4D-01, r^2= 7.3D+00
   Bfn.  Coefficient  Atom+Function         Bfn.  Coefficient  Atom+Function  
  ----- ------------  ---------------      ----- ------------  ---------------
    75      2.317141   3 C  py              107      1.625879   4 C  pz        
    67     -1.536834   3 C  s                36      1.510979   2 C  s         
   139     -1.180126   7 H  s               157      1.041863  10 H  s         
    74     -0.974592   3 C  px               44      0.722160   2 C  py        
    43     -0.599170   2 C  px              106     -0.556719   4 C  py        
 
 Vector   27  Occ=0.000000D+00  E= 1.975769D-01
              MO Center=  7.5D-01, -1.0D-01, -9.5D-01, r^2= 5.1D+00
   Bfn.  Coefficient  Atom+Function         Bfn.  Coefficient  Atom+Function  
  ----- ------------  ---------------      ----- ------------  ---------------
    67      3.042304   3 C  s                44     -2.620536   2 C  py        
    36     -2.007200   2 C  s               106      1.903518   4 C  py        
    43      0.992417   2 C  px              105      0.859915   4 C  px        
    74      0.796595   3 C  px               45     -0.753967   2 C  pz        
    75     -0.700267   3 C  py              157     -0.675261  10 H  s         
 
 Vector   28  Occ=0.000000D+00  E= 2.026022D-01
              MO Center=  1.0D+00, -4.0D-01, -6.8D-01, r^2= 6.7D+00
   Bfn.  Coefficient  Atom+Function         Bfn.  Coefficient  Atom+Function  
  ----- ------------  ---------------      ----- ------------  ---------------
    36      2.521562   2 C  s                75      1.690907   3 C  py        
   133     -1.297466   6 H  s               105     -1.260450   4 C  px        
   106      1.008251   4 C  py              107     -0.925580   4 C  pz        
   139     -0.753305   7 H  s                76      0.736698   3 C  pz        
   156     -0.718119  10 H  s                45      0.622376   2 C  pz        
 
 Vector   29  Occ=0.000000D+00  E= 2.371176D-01
              MO Center= -3.2D-01,  4.3D-01, -3.9D-02, r^2= 5.4D+00
   Bfn.  Coefficient  Atom+Function         Bfn.  Coefficient  Atom+Function  
  ----- ------------  ---------------      ----- ------------  ---------------
    67      4.865719   3 C  s                36     -3.415723   2 C  s         
   139     -1.462589   7 H  s                66     -1.423041   3 C  s         
    98      1.305578   4 C  s               133     -1.227859   6 H  s         
   107      0.934448   4 C  pz              106      0.795574   4 C  py        
    74     -0.760393   3 C  px                5     -0.718084   1 O  s         
 
 Vector   30  Occ=0.000000D+00  E= 2.482174D-01
              MO Center=  5.8D-01, -3.2D-02, -1.5D-01, r^2= 5.8D+00
   Bfn.  Coefficient  Atom+Function         Bfn.  Coefficient  Atom+Function  
  ----- ------------  ---------------      ----- ------------  ---------------
    67      5.733607   3 C  s                43      4.142166   2 C  px        
    75     -2.904498   3 C  py               44     -2.603942   2 C  py        
   107     -2.190267   4 C  pz              157     -1.879268  10 H  s         
    36     -1.662170   2 C  s                98     -1.537560   4 C  s         
    45     -1.486351   2 C  pz              105     -1.243501   4 C  px        
 
 Vector   31  Occ=0.000000D+00  E= 2.677070D-01
              MO Center=  2.8D-01, -1.4D-01,  2.7D-01, r^2= 5.7D+00
   Bfn.  Coefficient  Atom+Function         Bfn.  Coefficient  Atom+Function  
  ----- ------------  ---------------      ----- ------------  ---------------
    36      4.311440   2 C  s                 5     -2.241444   1 O  s         
    67      2.104358   3 C  s                43     -1.713759   2 C  px        
   105      1.505871   4 C  px               66     -1.211821   3 C  s         
    98     -1.012580   4 C  s               139     -0.998435   7 H  s         
   133     -0.935677   6 H  s               127     -0.843801   5 H  s         
 
 Vector   32  Occ=0.000000D+00  E= 2.774680D-01
              MO Center=  4.0D-01,  3.3D-01,  3.0D-01, r^2= 4.2D+00
   Bfn.  Coefficient  Atom+Function         Bfn.  Coefficient  Atom+Function  
  ----- ------------  ---------------      ----- ------------  ---------------
    36      2.518608   2 C  s                 5     -1.716332   1 O  s         
    67     -1.613995   3 C  s                43     -1.200975   2 C  px        
    98     -0.736213   4 C  s                74     -0.730492   3 C  px        
    45     -0.674872   2 C  pz              145      0.581256   8 H  s         
     4      0.492224   1 O  s                66      0.412293   3 C  s         
 
 Vector   33  Occ=0.000000D+00  E= 3.012640D-01
              MO Center=  4.2D-01,  3.6D-01, -3.9D-01, r^2= 5.0D+00
   Bfn.  Coefficient  Atom+Function         Bfn.  Coefficient  Atom+Function  
  ----- ------------  ---------------      ----- ------------  ---------------
    43      1.793818   2 C  px               98     -1.778299   4 C  s         
   106      1.759136   4 C  py              151      1.725988   9 H  s         
    76      1.423879   3 C  pz               44     -1.184117   2 C  py        
    36     -1.172520   2 C  s                66      1.024453   3 C  s         
   139      0.992342   7 H  s               107     -0.963176   4 C  pz        
 
 Vector   34  Occ=0.000000D+00  E= 3.372243D-01
              MO Center=  1.1D-01,  4.2D-01, -4.1D-01, r^2= 5.8D+00
   Bfn.  Coefficient  Atom+Function         Bfn.  Coefficient  Atom+Function  
  ----- ------------  ---------------      ----- ------------  ---------------
    67      4.454887   3 C  s                76     -3.918648   3 C  pz        
   139     -3.130100   7 H  s                36     -2.241371   2 C  s         
   133      2.003691   6 H  s               107     -1.814160   4 C  pz        
   157     -1.785499  10 H  s                98      1.618702   4 C  s         
    43      1.424325   2 C  px               44     -1.120803   2 C  py        
 
 Vector   35  Occ=0.000000D+00  E= 3.621989D-01
              MO Center=  7.7D-01, -5.6D-03, -3.4D-01, r^2= 6.8D+00
   Bfn.  Coefficient  Atom+Function         Bfn.  Coefficient  Atom+Function  
  ----- ------------  ---------------      ----- ------------  ---------------
    98      7.669651   4 C  s                76      3.310856   3 C  pz        
   145     -3.230423   8 H  s                97     -3.137638   4 C  s         
   133     -2.331221   6 H  s               151     -1.898185   9 H  s         
   139      1.684739   7 H  s                36      1.549537   2 C  s         
    67     -1.524939   3 C  s                44      1.513039   2 C  py        
 
 Vector   36  Occ=0.000000D+00  E= 3.719618D-01
              MO Center=  5.5D-01,  2.4D-01, -8.3D-02, r^2= 6.4D+00
   Bfn.  Coefficient  Atom+Function         Bfn.  Coefficient  Atom+Function  
  ----- ------------  ---------------      ----- ------------  ---------------
    36     12.845175   2 C  s                98     -8.857434   4 C  s         
    67     -8.434272   3 C  s               127     -3.135795   5 H  s         
    97      2.471056   4 C  s               157      2.383990  10 H  s         
    44      1.955591   2 C  py               35     -1.904354   2 C  s         
   151      1.686607   9 H  s                74     -1.592898   3 C  px        
 
 Vector   37  Occ=0.000000D+00  E= 3.846125D-01
              MO Center=  9.0D-01, -3.3D-01, -1.5D-01, r^2= 6.0D+00
   Bfn.  Coefficient  Atom+Function         Bfn.  Coefficient  Atom+Function  
  ----- ------------  ---------------      ----- ------------  ---------------
    36      6.201232   2 C  s               127     -3.998294   5 H  s         
    98      3.245112   4 C  s                45      2.482146   2 C  pz        
    35     -2.201732   2 C  s               151     -2.138905   9 H  s         
    67     -2.120112   3 C  s               145     -1.950304   8 H  s         
    76     -1.810330   3 C  pz               43      1.709347   2 C  px        
 
 Vector   38  Occ=0.000000D+00  E= 3.945182D-01
              MO Center=  1.6D-01,  1.5D-01, -1.3D-01, r^2= 6.6D+00
   Bfn.  Coefficient  Atom+Function         Bfn.  Coefficient  Atom+Function  
  ----- ------------  ---------------      ----- ------------  ---------------
    98     12.669112   4 C  s                67     -5.836721   3 C  s         
    45      5.751660   2 C  pz               76     -3.219053   3 C  pz        
   157     -2.766838  10 H  s               133      2.604830   6 H  s         
    44      2.223542   2 C  py               36     -1.945636   2 C  s         
    75      1.838875   3 C  py               97     -1.796479   4 C  s         
 
 Vector   39  Occ=0.000000D+00  E= 4.016542D-01
              MO Center= -1.7D-01,  2.5D-01,  2.4D-01, r^2= 6.5D+00
   Bfn.  Coefficient  Atom+Function         Bfn.  Coefficient  Atom+Function  
  ----- ------------  ---------------      ----- ------------  ---------------
    67    -12.361782   3 C  s                36     11.835591   2 C  s         
    45     -5.129484   2 C  pz               98     -4.888871   4 C  s         
    44      3.990680   2 C  py              127      3.033841   5 H  s         
    66      2.670073   3 C  s                43     -2.586983   2 C  px        
   105      2.432795   4 C  px              139      2.361789   7 H  s         
 
 Vector   40  Occ=0.000000D+00  E= 4.167015D-01
              MO Center=  6.7D-01, -3.2D-01, -7.6D-01, r^2= 6.0D+00
   Bfn.  Coefficient  Atom+Function         Bfn.  Coefficient  Atom+Function  
  ----- ------------  ---------------      ----- ------------  ---------------
    98      6.658942   4 C  s                45      2.763706   2 C  pz        
   105     -2.370740   4 C  px              151     -2.283477   9 H  s         
    36     -2.068913   2 C  s               157     -2.071690  10 H  s         
   145      1.617930   8 H  s                67     -1.293336   3 C  s         
    97     -1.218266   4 C  s               127     -0.947270   5 H  s         
 
 Vector   41  Occ=0.000000D+00  E= 4.264516D-01
              MO Center=  5.4D-01,  6.8D-02, -2.6D-01, r^2= 6.9D+00
   Bfn.  Coefficient  Atom+Function         Bfn.  Coefficient  Atom+Function  
  ----- ------------  ---------------      ----- ------------  ---------------
    36      9.228965   2 C  s                67     -4.537882   3 C  s         
    98     -4.345015   4 C  s               151      2.573268   9 H  s         
    44      2.463955   2 C  py               75      2.435704   3 C  py        
    43     -1.692238   2 C  px               45     -1.624021   2 C  pz        
   105      1.434124   4 C  px               74     -1.392833   3 C  px        
 
 Vector   42  Occ=0.000000D+00  E= 4.470165D-01
              MO Center=  1.3D-01, -5.0D-02, -1.4D-01, r^2= 6.2D+00
   Bfn.  Coefficient  Atom+Function         Bfn.  Coefficient  Atom+Function  
  ----- ------------  ---------------      ----- ------------  ---------------
    36      9.597132   2 C  s                98     -8.774882   4 C  s         
    45     -5.406568   2 C  pz               67     -3.039069   3 C  s         
   127      2.921747   5 H  s                76      2.552821   3 C  pz        
    44      2.399580   2 C  py              157      2.193559  10 H  s         
   133     -2.113505   6 H  s               106     -2.024364   4 C  py        
 
 Vector   43  Occ=0.000000D+00  E= 4.592681D-01
              MO Center=  9.6D-02,  7.5D-01, -5.5D-01, r^2= 5.2D+00
   Bfn.  Coefficient  Atom+Function         Bfn.  Coefficient  Atom+Function  
  ----- ------------  ---------------      ----- ------------  ---------------
   139      3.217509   7 H  s               157     -2.390749  10 H  s         
   107     -2.339973   4 C  pz               75     -2.154523   3 C  py        
    45     -1.808515   2 C  pz               43      1.652380   2 C  px        
    44     -1.590393   2 C  py              138     -1.403188   7 H  s         
    76      1.158795   3 C  pz               98     -0.975432   4 C  s         
 
 Vector   44  Occ=0.000000D+00  E= 4.681595D-01
              MO Center=  4.7D-01,  2.0D-01,  2.3D-02, r^2= 5.6D+00
   Bfn.  Coefficient  Atom+Function         Bfn.  Coefficient  Atom+Function  
  ----- ------------  ---------------      ----- ------------  ---------------
    98     -4.741144   4 C  s                36      4.691265   2 C  s         
    45     -2.083693   2 C  pz              145      1.689697   8 H  s         
    67     -1.637840   3 C  s               133      1.452841   6 H  s         
   107     -1.403194   4 C  pz               35     -1.276021   2 C  s         
   132     -1.133059   6 H  s               126      1.079200   5 H  s         
 
 Vector   45  Occ=0.000000D+00  E= 5.079465D-01
              MO Center=  7.7D-01, -3.2D-01, -8.7D-01, r^2= 5.0D+00
   Bfn.  Coefficient  Atom+Function         Bfn.  Coefficient  Atom+Function  
  ----- ------------  ---------------      ----- ------------  ---------------
    98     11.213605   4 C  s                36     -7.324584   2 C  s         
    45      4.552584   2 C  pz              107      3.009827   4 C  pz        
   106      1.381250   4 C  py              144     -1.270831   8 H  s         
   156     -1.229390  10 H  s                14     -1.167123   1 O  pz        
   127     -1.163873   5 H  s               105     -1.023246   4 C  px        
 
 Vector   46  Occ=0.000000D+00  E= 5.404376D-01
              MO Center=  2.0D-01, -4.3D-01, -5.7D-01, r^2= 4.4D+00
   Bfn.  Coefficient  Atom+Function         Bfn.  Coefficient  Atom+Function  
  ----- ------------  ---------------      ----- ------------  ---------------
    98     -8.500603   4 C  s                36      7.742094   2 C  s         
    45     -4.156483   2 C  pz               76      3.222065   3 C  pz        
   133     -1.717059   6 H  s               105      1.703681   4 C  px        
   107     -1.670035   4 C  pz              139      1.468585   7 H  s         
     5     -1.290797   1 O  s                67     -1.098385   3 C  s         
 
 Vector   47  Occ=0.000000D+00  E= 6.565779D-01
              MO Center= -3.4D-01,  2.4D-02, -2.7D-02, r^2= 4.3D+00
   Bfn.  Coefficient  Atom+Function         Bfn.  Coefficient  Atom+Function  
  ----- ------------  ---------------      ----- ------------  ---------------
    36     10.995240   2 C  s                67     -8.444031   3 C  s         
    98     -3.889148   4 C  s                43     -2.526529   2 C  px        
    75      2.261767   3 C  py               13      2.107181   1 O  py        
    76      2.041104   3 C  pz              105      1.604075   4 C  px        
   139      1.493151   7 H  s                44      1.392132   2 C  py        
 
 Vector   48  Occ=0.000000D+00  E= 6.741505D-01
              MO Center= -3.2D-01,  3.5D-01,  1.2D-01, r^2= 4.0D+00
   Bfn.  Coefficient  Atom+Function         Bfn.  Coefficient  Atom+Function  
  ----- ------------  ---------------      ----- ------------  ---------------
    36      8.812413   2 C  s                67     -8.392547   3 C  s         
     5      2.904213   1 O  s                75      2.719268   3 C  py        
    98     -2.389849   4 C  s                13      2.223575   1 O  py        
    43     -1.406185   2 C  px               45     -1.274415   2 C  pz        
     4     -1.082243   1 O  s                44      1.070310   2 C  py        
 
 Vector   49  Occ=0.000000D+00  E= 7.067522D-01
              MO Center=  1.5D-01, -3.1D-01, -2.6D-01, r^2= 4.5D+00
   Bfn.  Coefficient  Atom+Function         Bfn.  Coefficient  Atom+Function  
  ----- ------------  ---------------      ----- ------------  ---------------
    67      9.355298   3 C  s                36     -7.185922   2 C  s         
    43      3.567517   2 C  px               44     -3.415562   2 C  py        
    75     -2.698249   3 C  py               98     -2.587259   4 C  s         
     5      2.283490   1 O  s                12      1.702484   1 O  px        
   106      1.636676   4 C  py               13     -1.298899   1 O  py        
 
 Vector   50  Occ=0.000000D+00  E= 7.611322D-01
              MO Center=  6.3D-01, -5.0D-03, -3.3D-01, r^2= 4.1D+00
   Bfn.  Coefficient  Atom+Function         Bfn.  Coefficient  Atom+Function  
  ----- ------------  ---------------      ----- ------------  ---------------
    45      2.375343   2 C  pz              127     -1.692516   5 H  s         
   105     -1.617720   4 C  px                5     -1.540322   1 O  s         
    36      1.531564   2 C  s                43      1.444465   2 C  px        
   126     -1.334758   5 H  s               144      1.307645   8 H  s         
    76     -0.977988   3 C  pz               66      0.965240   3 C  s         
 
 Vector   51  Occ=0.000000D+00  E= 7.939354D-01
              MO Center=  2.7D-01,  5.2D-02, -1.8D-01, r^2= 4.4D+00
   Bfn.  Coefficient  Atom+Function         Bfn.  Coefficient  Atom+Function  
  ----- ------------  ---------------      ----- ------------  ---------------
     5      4.164639   1 O  s                36     -2.879605   2 C  s         
    76     -2.516499   3 C  pz                4     -1.608695   1 O  s         
    45      1.597340   2 C  pz               12      1.355297   1 O  px        
   133      1.328887   6 H  s                43      1.276844   2 C  px        
    35     -1.016541   2 C  s                66     -1.003517   3 C  s         
 
 Vector   52  Occ=0.000000D+00  E= 8.324841D-01
              MO Center=  3.4D-01,  1.6D-01, -1.8D-02, r^2= 4.5D+00
   Bfn.  Coefficient  Atom+Function         Bfn.  Coefficient  Atom+Function  
  ----- ------------  ---------------      ----- ------------  ---------------
    36      6.507099   2 C  s                98     -4.047433   4 C  s         
     5     -3.842004   1 O  s                43     -2.566075   2 C  px        
   105      1.944173   4 C  px               35     -1.852145   2 C  s         
    45     -1.694223   2 C  pz               44      1.464057   2 C  py        
    66     -1.189280   3 C  s                97      1.096539   4 C  s         
 
 Vector   53  Occ=0.000000D+00  E= 8.542549D-01
              MO Center=  6.1D-01,  1.2D-01, -3.9D-01, r^2= 4.2D+00
   Bfn.  Coefficient  Atom+Function         Bfn.  Coefficient  Atom+Function  
  ----- ------------  ---------------      ----- ------------  ---------------
    98     -4.797237   4 C  s                45     -4.624557   2 C  pz        
    36      4.588863   2 C  s                76      2.104918   3 C  pz        
   127      1.861448   5 H  s                44      1.561168   2 C  py        
   106     -1.562043   4 C  py              105      1.327083   4 C  px        
   150     -1.264233   9 H  s               139      1.101631   7 H  s         
 
 Vector   54  Occ=0.000000D+00  E= 8.707973D-01
              MO Center=  1.6D-01, -3.2D-02, -1.2D-01, r^2= 4.3D+00
   Bfn.  Coefficient  Atom+Function         Bfn.  Coefficient  Atom+Function  
  ----- ------------  ---------------      ----- ------------  ---------------
     5      4.699095   1 O  s                36     -2.132291   2 C  s         
     4     -1.607444   1 O  s               138      1.448583   7 H  s         
    12      1.207711   1 O  px               76      1.169718   3 C  pz        
    66     -1.144354   3 C  s                67     -1.118170   3 C  s         
    43      0.921753   2 C  px               97      0.870797   4 C  s         
 
 Vector   55  Occ=0.000000D+00  E= 9.202797D-01
              MO Center=  5.1D-01,  3.1D-01, -4.8D-01, r^2= 4.6D+00
   Bfn.  Coefficient  Atom+Function         Bfn.  Coefficient  Atom+Function  
  ----- ------------  ---------------      ----- ------------  ---------------
    35      4.984457   2 C  s                36     -1.817157   2 C  s         
    67      1.441814   3 C  s               132     -1.313332   6 H  s         
    72      1.285310   3 C  py               66     -1.263889   3 C  s         
   156     -1.178142  10 H  s                84      1.162506   3 C  d  0      
    41      1.140476   2 C  py              116     -1.088970   4 C  d  1      
 
 Vector   56  Occ=0.000000D+00  E= 9.620049D-01
              MO Center=  4.4D-01,  3.1D-01, -5.2D-01, r^2= 4.7D+00
   Bfn.  Coefficient  Atom+Function         Bfn.  Coefficient  Atom+Function  
  ----- ------------  ---------------      ----- ------------  ---------------
    35      4.217398   2 C  s                67      2.572488   3 C  s         
   138     -2.371485   7 H  s                76     -1.798647   3 C  pz        
    42     -1.745756   2 C  pz               83     -1.662479   3 C  d -1      
    36     -1.471960   2 C  s               115     -1.470072   4 C  d  0      
    98     -1.387518   4 C  s               132      1.374170   6 H  s         
 
 Vector   57  Occ=0.000000D+00  E= 9.922968D-01
              MO Center=  3.2D-01,  5.1D-01, -1.1D-01, r^2= 4.0D+00
   Bfn.  Coefficient  Atom+Function         Bfn.  Coefficient  Atom+Function  
  ----- ------------  ---------------      ----- ------------  ---------------
    36      7.257850   2 C  s                98     -4.772580   4 C  s         
    67     -3.794462   3 C  s                45     -3.693776   2 C  pz        
    43     -2.271685   2 C  px               44      2.067999   2 C  py        
    66     -1.541304   3 C  s               127      1.538248   5 H  s         
    75      1.404431   3 C  py               35     -1.369351   2 C  s         
 
 Vector   58  Occ=0.000000D+00  E= 1.011312D+00
              MO Center=  4.1D-01,  5.1D-01, -8.2D-02, r^2= 4.3D+00
   Bfn.  Coefficient  Atom+Function         Bfn.  Coefficient  Atom+Function  
  ----- ------------  ---------------      ----- ------------  ---------------
    36      5.418422   2 C  s                67     -4.472238   3 C  s         
    45     -2.126205   2 C  pz               44      1.856268   2 C  py        
    98     -1.637055   4 C  s               156     -1.490453  10 H  s         
   144      1.432629   8 H  s                43     -1.364378   2 C  px        
    82      1.320487   3 C  d -2             74     -1.295288   3 C  px        
 
 Vector   59  Occ=0.000000D+00  E= 1.041208D+00
              MO Center=  7.0D-01, -1.7D-01, -4.6D-01, r^2= 4.2D+00
   Bfn.  Coefficient  Atom+Function         Bfn.  Coefficient  Atom+Function  
  ----- ------------  ---------------      ----- ------------  ---------------
    36      3.077305   2 C  s                35      2.558476   2 C  s         
    66     -2.244756   3 C  s               150      1.979246   9 H  s         
     5     -1.904321   1 O  s               144     -1.839297   8 H  s         
   117      1.703944   4 C  d  2             67     -1.558548   3 C  s         
    41      1.491132   2 C  py               44      1.447258   2 C  py        
 
 Vector   60  Occ=0.000000D+00  E= 1.078980D+00
              MO Center=  6.7D-01,  1.6D-02, -7.0D-02, r^2= 4.1D+00
   Bfn.  Coefficient  Atom+Function         Bfn.  Coefficient  Atom+Function  
  ----- ------------  ---------------      ----- ------------  ---------------
    66     -4.045694   3 C  s                98      4.018678   4 C  s         
    97      3.742964   4 C  s                45      3.718095   2 C  pz        
    36     -3.190026   2 C  s                41      2.552680   2 C  py        
   104      2.548800   4 C  pz               42      2.380328   2 C  pz        
    72      2.325454   3 C  py               53     -2.222161   2 C  d  0      
 
 Vector   61  Occ=0.000000D+00  E= 1.105390D+00
              MO Center=  3.7D-01,  6.4D-02,  6.6D-02, r^2= 3.8D+00
   Bfn.  Coefficient  Atom+Function         Bfn.  Coefficient  Atom+Function  
  ----- ------------  ---------------      ----- ------------  ---------------
    36      7.573039   2 C  s                67     -5.269279   3 C  s         
    98     -2.989596   4 C  s                66      2.163363   3 C  s         
   126     -2.023324   5 H  s                45     -1.946295   2 C  pz        
   132      1.688222   6 H  s                72     -1.615804   3 C  py        
    41     -1.496508   2 C  py               53      1.482355   2 C  d  0      
 
 Vector   62  Occ=0.000000D+00  E= 1.147794D+00
              MO Center=  6.3D-01,  3.1D-03, -3.4D-02, r^2= 3.5D+00
   Bfn.  Coefficient  Atom+Function         Bfn.  Coefficient  Atom+Function  
  ----- ------------  ---------------      ----- ------------  ---------------
    67      5.128519   3 C  s                36     -3.927500   2 C  s         
    44     -2.392381   2 C  py               97     -1.798277   4 C  s         
   126      1.806516   5 H  s                43      1.564760   2 C  px        
    54      1.553231   2 C  d  1             55      1.489494   2 C  d  2      
    75     -1.423666   3 C  py               42     -1.416023   2 C  pz        
 
 Vector   63  Occ=0.000000D+00  E= 1.214812D+00
              MO Center=  5.6D-01,  2.1D-01, -1.5D-01, r^2= 3.8D+00
   Bfn.  Coefficient  Atom+Function         Bfn.  Coefficient  Atom+Function  
  ----- ------------  ---------------      ----- ------------  ---------------
    36      6.798973   2 C  s                66     -5.027212   3 C  s         
    97     -3.399824   4 C  s                67     -3.278747   3 C  s         
    35      3.134866   2 C  s                72      1.909635   3 C  py        
    51     -1.761509   2 C  d -2             52      1.686319   2 C  d -1      
   138      1.677880   7 H  s                41      1.489844   2 C  py        
 
 Vector   64  Occ=0.000000D+00  E= 1.349346D+00
              MO Center=  3.4D-01,  5.6D-01,  2.3D-01, r^2= 3.6D+00
   Bfn.  Coefficient  Atom+Function         Bfn.  Coefficient  Atom+Function  
  ----- ------------  ---------------      ----- ------------  ---------------
    66      4.747579   3 C  s                35      3.785139   2 C  s         
    67     -3.253322   3 C  s                36     -2.552847   2 C  s         
    65     -2.438552   3 C  s               132     -2.077249   6 H  s         
   133      1.450340   6 H  s                34     -1.387994   2 C  s         
    72      1.375285   3 C  py              139      1.102282   7 H  s         
 
 Vector   65  Occ=0.000000D+00  E= 1.415597D+00
              MO Center=  1.6D-01,  5.1D-01, -4.5D-02, r^2= 3.4D+00
   Bfn.  Coefficient  Atom+Function         Bfn.  Coefficient  Atom+Function  
  ----- ------------  ---------------      ----- ------------  ---------------
    36      4.270856   2 C  s                35     -3.717591   2 C  s         
    66      3.688942   3 C  s                67     -3.667027   3 C  s         
    73     -2.347124   3 C  pz              138     -2.245049   7 H  s         
   139      2.181819   7 H  s               126      1.780611   5 H  s         
    76      1.671192   3 C  pz               34      1.525983   2 C  s         
 
 Vector   66  Occ=0.000000D+00  E= 1.432147D+00
              MO Center=  1.1D+00, -4.6D-01, -1.1D+00, r^2= 3.5D+00
   Bfn.  Coefficient  Atom+Function         Bfn.  Coefficient  Atom+Function  
  ----- ------------  ---------------      ----- ------------  ---------------
    98     10.083907   4 C  s                97     -7.645235   4 C  s         
    96      3.094279   4 C  s               145     -2.436347   8 H  s         
   151     -2.307928   9 H  s                36     -2.229182   2 C  s         
   157     -2.084337  10 H  s               144      1.785884   8 H  s         
   150      1.647727   9 H  s               104      1.406099   4 C  pz        
 
 Vector   67  Occ=0.000000D+00  E= 1.442284D+00
              MO Center=  4.4D-01, -2.8D-02, -2.6D-01, r^2= 4.2D+00
   Bfn.  Coefficient  Atom+Function         Bfn.  Coefficient  Atom+Function  
  ----- ------------  ---------------      ----- ------------  ---------------
    66      4.062263   3 C  s                35     -3.076110   2 C  s         
    67     -2.969780   3 C  s                98      2.683289   4 C  s         
    36      2.323386   2 C  s               133      1.814094   6 H  s         
    45      1.744577   2 C  pz               76     -1.642186   3 C  pz        
   127     -1.537825   5 H  s                65     -1.451422   3 C  s         
 
 Vector   68  Occ=0.000000D+00  E= 1.447448D+00
              MO Center=  2.3D-01, -1.4D-03, -2.6D-03, r^2= 2.9D+00
   Bfn.  Coefficient  Atom+Function         Bfn.  Coefficient  Atom+Function  
  ----- ------------  ---------------      ----- ------------  ---------------
    98      5.117638   4 C  s                97     -2.782627   4 C  s         
    36     -2.380989   2 C  s                45      2.166686   2 C  pz        
     5      2.019476   1 O  s                35     -1.831479   2 C  s         
   127     -1.486141   5 H  s                96      1.177308   4 C  s         
    42     -1.139778   2 C  pz              126      1.125068   5 H  s         
 
 Vector   69  Occ=0.000000D+00  E= 1.474627D+00
              MO Center=  9.2D-01, -3.5D-01, -1.0D+00, r^2= 3.5D+00
   Bfn.  Coefficient  Atom+Function         Bfn.  Coefficient  Atom+Function  
  ----- ------------  ---------------      ----- ------------  ---------------
    36      2.827058   2 C  s               156     -2.709280  10 H  s         
   157      2.173633  10 H  s                66     -2.127088   3 C  s         
   102     -1.976206   4 C  px              104     -1.889036   4 C  pz        
   126      1.673219   5 H  s               103      1.521782   4 C  py        
    98     -1.342435   4 C  s                35     -1.276365   2 C  s         
 
 Vector   70  Occ=0.000000D+00  E= 1.478045D+00
              MO Center=  9.5D-01, -2.7D-01, -9.7D-01, r^2= 3.5D+00
   Bfn.  Coefficient  Atom+Function         Bfn.  Coefficient  Atom+Function  
  ----- ------------  ---------------      ----- ------------  ---------------
    66      2.394896   3 C  s                36      1.611782   2 C  s         
    67     -1.545792   3 C  s                 5     -1.149863   1 O  s         
   103      1.035442   4 C  py              133      1.003077   6 H  s         
    65     -0.978942   3 C  s               132     -0.913197   6 H  s         
   150      0.885622   9 H  s                35     -0.859136   2 C  s         
 
 Vector   71  Occ=0.000000D+00  E= 1.512514D+00
              MO Center=  3.2D-01,  1.9D-01, -2.8D-01, r^2= 4.0D+00
   Bfn.  Coefficient  Atom+Function         Bfn.  Coefficient  Atom+Function  
  ----- ------------  ---------------      ----- ------------  ---------------
    98      2.914257   4 C  s               144      1.915181   8 H  s         
   102     -1.600410   4 C  px               97     -1.462729   4 C  s         
   145     -1.446560   8 H  s                45      1.325921   2 C  pz        
   103     -1.295956   4 C  py               36     -1.104988   2 C  s         
   150     -0.875726   9 H  s               106      0.744540   4 C  py        
 
 Vector   72  Occ=0.000000D+00  E= 1.542599D+00
              MO Center=  4.2D-01,  3.8D-01, -2.8D-01, r^2= 4.7D+00
   Bfn.  Coefficient  Atom+Function         Bfn.  Coefficient  Atom+Function  
  ----- ------------  ---------------      ----- ------------  ---------------
    36      4.225802   2 C  s                35     -3.663073   2 C  s         
    98     -3.492336   4 C  s                97      3.056206   4 C  s         
    67     -2.418884   3 C  s                73      2.108379   3 C  pz        
   132     -1.692136   6 H  s               102     -1.493577   4 C  px        
   133      1.412815   6 H  s               150     -1.388682   9 H  s         
 
 Vector   73  Occ=0.000000D+00  E= 1.576140D+00
              MO Center=  4.9D-01, -1.8D-02, -6.6D-02, r^2= 3.2D+00
   Bfn.  Coefficient  Atom+Function         Bfn.  Coefficient  Atom+Function  
  ----- ------------  ---------------      ----- ------------  ---------------
    35      3.485952   2 C  s                36     -2.796794   2 C  s         
    40     -2.082544   2 C  px               97     -1.979536   4 C  s         
    67      1.807232   3 C  s               126      1.809425   5 H  s         
    72      1.592393   3 C  py               42     -1.470310   2 C  pz        
    34     -1.457394   2 C  s                98      1.378448   4 C  s         
 
 Vector   74  Occ=0.000000D+00  E= 1.599654D+00
              MO Center=  3.4D-01,  3.8D-01, -1.6D-01, r^2= 3.4D+00
   Bfn.  Coefficient  Atom+Function         Bfn.  Coefficient  Atom+Function  
  ----- ------------  ---------------      ----- ------------  ---------------
    66     -5.290096   3 C  s                36     -5.257434   2 C  s         
    35      5.092602   2 C  s                67      3.944929   3 C  s         
    41      3.727277   2 C  py               71     -2.566064   3 C  px        
    72      2.377475   3 C  py               40     -2.064186   2 C  px        
    98      1.827956   4 C  s                82      1.681031   3 C  d -2      
 
 Vector   75  Occ=0.000000D+00  E= 1.641832D+00
              MO Center=  4.5D-01,  2.0D-01, -2.3D-02, r^2= 3.7D+00
   Bfn.  Coefficient  Atom+Function         Bfn.  Coefficient  Atom+Function  
  ----- ------------  ---------------      ----- ------------  ---------------
    66      2.707455   3 C  s                35      2.111419   2 C  s         
    98      2.026386   4 C  s                 5     -1.706400   1 O  s         
    97     -1.579525   4 C  s                67     -1.338287   3 C  s         
   144      1.107394   8 H  s               104     -1.094692   4 C  pz        
   103     -1.080016   4 C  py              150     -1.080786   9 H  s         
 
 Vector   76  Occ=0.000000D+00  E= 1.694048D+00
              MO Center=  5.9D-01,  5.2D-02, -4.3D-01, r^2= 3.6D+00
   Bfn.  Coefficient  Atom+Function         Bfn.  Coefficient  Atom+Function  
  ----- ------------  ---------------      ----- ------------  ---------------
    97     -5.360384   4 C  s                35      5.148364   2 C  s         
    42     -2.660831   2 C  pz              104     -2.673740   4 C  pz        
   102      1.891879   4 C  px               66     -1.752474   3 C  s         
    40      1.563138   2 C  px               34     -1.489973   2 C  s         
    96      1.479232   4 C  s                54      1.090020   2 C  d  1      
 
 Vector   77  Occ=0.000000D+00  E= 1.702186D+00
              MO Center= -8.7D-02,  3.5D-01, -5.8D-02, r^2= 3.7D+00
   Bfn.  Coefficient  Atom+Function         Bfn.  Coefficient  Atom+Function  
  ----- ------------  ---------------      ----- ------------  ---------------
     5      3.975800   1 O  s                72      3.443610   3 C  py        
    97      2.499553   4 C  s                36     -2.453753   2 C  s         
   138     -2.004816   7 H  s                66     -1.928926   3 C  s         
    42      1.832891   2 C  pz              104      1.644621   4 C  pz        
    41      1.545259   2 C  py               12      1.526338   1 O  px        
 
 Vector   78  Occ=0.000000D+00  E= 1.787913D+00
              MO Center=  3.9D-01,  2.7D-01,  1.1D-02, r^2= 3.5D+00
   Bfn.  Coefficient  Atom+Function         Bfn.  Coefficient  Atom+Function  
  ----- ------------  ---------------      ----- ------------  ---------------
    35      2.961112   2 C  s                97     -2.720820   4 C  s         
    36      1.838221   2 C  s                45     -1.312554   2 C  pz        
    67     -1.160125   3 C  s               104     -1.090744   4 C  pz        
    42     -1.033133   2 C  pz               72      0.962839   3 C  py        
   102      0.956436   4 C  px                5     -0.889677   1 O  s         
 
 Vector   79  Occ=0.000000D+00  E= 1.816225D+00
              MO Center= -6.3D-01,  1.8D-01,  1.9D-01, r^2= 2.5D+00
   Bfn.  Coefficient  Atom+Function         Bfn.  Coefficient  Atom+Function  
  ----- ------------  ---------------      ----- ------------  ---------------
    35      4.031047   2 C  s                 5     -3.281896   1 O  s         
    40     -2.438173   2 C  px               41      2.122413   2 C  py        
    72      1.980752   3 C  py               66     -1.771948   3 C  s         
    71     -1.666380   3 C  px               12     -1.375257   1 O  px        
   132     -1.059085   6 H  s               138     -1.037622   7 H  s         
 
 Vector   80  Occ=0.000000D+00  E= 1.843395D+00
              MO Center=  2.8D-02,  3.2D-01, -3.4D-02, r^2= 3.6D+00
   Bfn.  Coefficient  Atom+Function         Bfn.  Coefficient  Atom+Function  
  ----- ------------  ---------------      ----- ------------  ---------------
    36      1.330031   2 C  s                35     -1.121332   2 C  s         
    66     -1.110418   3 C  s               156      0.921915  10 H  s         
    41      0.903311   2 C  py               67     -0.738627   3 C  s         
   104      0.730978   4 C  pz                5      0.630240   1 O  s         
   157     -0.626504  10 H  s               126      0.608620   5 H  s         
 
 Vector   81  Occ=0.000000D+00  E= 1.869527D+00
              MO Center=  5.7D-01,  1.3D-01, -5.0D-01, r^2= 4.0D+00
   Bfn.  Coefficient  Atom+Function         Bfn.  Coefficient  Atom+Function  
  ----- ------------  ---------------      ----- ------------  ---------------
    35      6.834529   2 C  s                66     -4.204507   3 C  s         
    97     -3.459927   4 C  s                72      3.415463   3 C  py        
   104     -2.038687   4 C  pz               36      1.988396   2 C  s         
    34     -1.680561   2 C  s                67     -1.558840   3 C  s         
    41      1.395481   2 C  py               45     -1.338542   2 C  pz        
 
 Vector   82  Occ=0.000000D+00  E= 1.921134D+00
              MO Center=  3.1D-01, -1.5D-01, -3.1D-01, r^2= 3.2D+00
   Bfn.  Coefficient  Atom+Function         Bfn.  Coefficient  Atom+Function  
  ----- ------------  ---------------      ----- ------------  ---------------
    36      1.520225   2 C  s                98     -1.398237   4 C  s         
    45     -1.293213   2 C  pz               97     -1.290911   4 C  s         
   103     -1.225426   4 C  py               35      1.154995   2 C  s         
    66     -0.887467   3 C  s                42     -0.842117   2 C  pz        
    41      0.752601   2 C  py              150     -0.753582   9 H  s         
 
 Vector   83  Occ=0.000000D+00  E= 1.989411D+00
              MO Center=  7.5D-01, -1.9D-01, -8.9D-01, r^2= 3.4D+00
   Bfn.  Coefficient  Atom+Function         Bfn.  Coefficient  Atom+Function  
  ----- ------------  ---------------      ----- ------------  ---------------
    36      4.783557   2 C  s                98     -4.686232   4 C  s         
    35     -2.818265   2 C  s                45     -2.093181   2 C  pz        
    67     -1.385064   3 C  s               107     -1.226912   4 C  pz        
   156      1.209955  10 H  s                66      1.156058   3 C  s         
   104      1.117826   4 C  pz               34      1.024204   2 C  s         
 
 Vector   84  Occ=0.000000D+00  E= 1.991316D+00
              MO Center=  7.1D-01, -1.4D-01, -2.0D-01, r^2= 3.3D+00
   Bfn.  Coefficient  Atom+Function         Bfn.  Coefficient  Atom+Function  
  ----- ------------  ---------------      ----- ------------  ---------------
    35      2.621759   2 C  s                98      2.573765   4 C  s         
    66     -2.410054   3 C  s                40     -2.322983   2 C  px        
    72      1.768281   3 C  py               41      1.619413   2 C  py        
    67     -1.513232   3 C  s                43     -1.486758   2 C  px        
    71     -1.376307   3 C  px              126      1.237579   5 H  s         
 
 Vector   85  Occ=0.000000D+00  E= 2.090663D+00
              MO Center= -7.3D-02,  1.8D-01,  5.0D-03, r^2= 3.5D+00
   Bfn.  Coefficient  Atom+Function         Bfn.  Coefficient  Atom+Function  
  ----- ------------  ---------------      ----- ------------  ---------------
    36      3.376617   2 C  s                98     -2.492838   4 C  s         
    67     -1.417234   3 C  s                35     -0.916351   2 C  s         
   138     -0.743557   7 H  s               156      0.704712  10 H  s         
    45     -0.668738   2 C  pz               13      0.618494   1 O  py        
   144      0.589956   8 H  s               105      0.564565   4 C  px        
 
 Vector   86  Occ=0.000000D+00  E= 2.097657D+00
              MO Center= -3.5D-01,  6.3D-02,  3.7D-02, r^2= 3.0D+00
   Bfn.  Coefficient  Atom+Function         Bfn.  Coefficient  Atom+Function  
  ----- ------------  ---------------      ----- ------------  ---------------
    67     -5.361289   3 C  s                36      5.210866   2 C  s         
    66      3.246212   3 C  s                35     -3.134580   2 C  s         
    41     -3.055146   2 C  py               71      2.704336   3 C  px        
    13      1.784948   1 O  py               82     -1.433219   3 C  d -2      
    55      1.319016   2 C  d  2             75      1.296825   3 C  py        
 
 Vector   87  Occ=0.000000D+00  E= 2.165141D+00
              MO Center=  5.3D-01, -2.9D-02, -4.9D-01, r^2= 3.2D+00
   Bfn.  Coefficient  Atom+Function         Bfn.  Coefficient  Atom+Function  
  ----- ------------  ---------------      ----- ------------  ---------------
    98      2.274116   4 C  s                67     -2.026810   3 C  s         
    35     -1.527578   2 C  s                73      0.988093   3 C  pz        
    36      0.937414   2 C  s               156     -0.878888  10 H  s         
    40      0.859506   2 C  px               43     -0.840813   2 C  px        
    44      0.843868   2 C  py               45      0.805731   2 C  pz        
 
 Vector   88  Occ=0.000000D+00  E= 2.199738D+00
              MO Center=  4.2D-01,  1.9D-01, -2.8D-01, r^2= 3.6D+00
   Bfn.  Coefficient  Atom+Function         Bfn.  Coefficient  Atom+Function  
  ----- ------------  ---------------      ----- ------------  ---------------
    98      2.277813   4 C  s                36     -1.457978   2 C  s         
    45      1.104486   2 C  pz               76     -0.931278   3 C  pz        
   132      0.806101   6 H  s                42     -0.709954   2 C  pz        
   117     -0.670008   4 C  d  2            103     -0.666500   4 C  py        
    97     -0.648396   4 C  s               138     -0.596471   7 H  s         
 
 Vector   89  Occ=0.000000D+00  E= 2.224230D+00
              MO Center=  7.9D-01, -1.0D-01, -2.9D-01, r^2= 3.6D+00
   Bfn.  Coefficient  Atom+Function         Bfn.  Coefficient  Atom+Function  
  ----- ------------  ---------------      ----- ------------  ---------------
    36      2.985644   2 C  s                67     -1.608150   3 C  s         
    98     -1.179053   4 C  s                 5     -1.009792   1 O  s         
    42     -0.960658   2 C  pz               43     -0.761254   2 C  px        
   150      0.755090   9 H  s                45     -0.747640   2 C  pz        
   102      0.677233   4 C  px               44      0.642235   2 C  py        
 
 Vector   90  Occ=0.000000D+00  E= 2.243504D+00
              MO Center=  6.7D-01, -8.8D-02, -5.7D-01, r^2= 3.8D+00
   Bfn.  Coefficient  Atom+Function         Bfn.  Coefficient  Atom+Function  
  ----- ------------  ---------------      ----- ------------  ---------------
    66      1.852999   3 C  s                72     -1.271515   3 C  py        
   150     -1.076439   9 H  s                41     -0.859252   2 C  py        
   117     -0.775050   4 C  d  2             35     -0.762052   2 C  s         
   126     -0.760652   5 H  s                 5     -0.687188   1 O  s         
    83     -0.671513   3 C  d -1            156      0.623910  10 H  s         
 
 Vector   91  Occ=0.000000D+00  E= 2.270889D+00
              MO Center=  1.0D+00, -4.3D-01, -1.2D+00, r^2= 2.8D+00
   Bfn.  Coefficient  Atom+Function         Bfn.  Coefficient  Atom+Function  
  ----- ------------  ---------------      ----- ------------  ---------------
    66      2.157191   3 C  s                36      1.936235   2 C  s         
    35     -1.497197   2 C  s                67     -1.480870   3 C  s         
    41     -1.363631   2 C  py              144     -1.030619   8 H  s         
    98     -1.003301   4 C  s                71      0.944771   3 C  px        
    72     -0.939501   3 C  py              156      0.805321  10 H  s         
 
 Vector   92  Occ=0.000000D+00  E= 2.281201D+00
              MO Center=  4.0D-01,  2.3D-01, -1.8D-01, r^2= 3.5D+00
   Bfn.  Coefficient  Atom+Function         Bfn.  Coefficient  Atom+Function  
  ----- ------------  ---------------      ----- ------------  ---------------
    98      3.622425   4 C  s                36     -2.477525   2 C  s         
[...]
    21     -0.871918   1 O  d -1             42     -0.808156   2 C  pz        
    97     -0.720926   4 C  s                45     -0.701857   2 C  pz        
    98     -0.519639   4 C  s                 5     -0.515970   1 O  s         
    67     -0.502894   3 C  s                83     -0.492215   3 C  d -1      
 
 Vector  154  Occ=0.000000D+00  E= 6.675997D+00
              MO Center= -8.7D-01, -1.8D-01,  2.0D-01, r^2= 5.7D-01
   Bfn.  Coefficient  Atom+Function         Bfn.  Coefficient  Atom+Function  
  ----- ------------  ---------------      ----- ------------  ---------------
    18      1.062904   1 O  d  1             23     -1.035993   1 O  d  1      
    97     -0.850521   4 C  s                42     -0.784738   2 C  pz        
    35      0.759935   2 C  s               102      0.642901   4 C  px        
    54     -0.545989   2 C  d  1             14      0.404978   1 O  pz        
    16     -0.391978   1 O  d -1             11      0.387536   1 O  pz        
 
 Vector  155  Occ=0.000000D+00  E= 6.841934D+00
              MO Center= -8.8D-01, -1.9D-01,  2.0D-01, r^2= 5.9D-01
   Bfn.  Coefficient  Atom+Function         Bfn.  Coefficient  Atom+Function  
  ----- ------------  ---------------      ----- ------------  ---------------
     5      2.114976   1 O  s                40      1.766596   2 C  px        
     9      1.361195   1 O  px               97     -1.294615   4 C  s         
     4      1.204514   1 O  s                20      1.048533   1 O  d -2      
    42     -0.975747   2 C  pz               12      0.847624   1 O  px        
    15     -0.834091   1 O  d -2             22     -0.832172   1 O  d  0      
 
 Vector  156  Occ=0.000000D+00  E= 7.055901D+00
              MO Center= -8.9D-01, -1.9D-01,  2.0D-01, r^2= 6.4D-01
   Bfn.  Coefficient  Atom+Function         Bfn.  Coefficient  Atom+Function  
  ----- ------------  ---------------      ----- ------------  ---------------
    66     -3.177348   3 C  s                35      3.028212   2 C  s         
    40     -2.730444   2 C  px               72      2.696542   3 C  py        
    24     -1.579547   1 O  d  2             36      1.437865   2 C  s         
    10      1.283320   1 O  py               67     -1.279159   3 C  s         
    19      1.017227   1 O  d  2             13      0.864689   1 O  py        
 
 Vector  157  Occ=0.000000D+00  E= 2.194009D+01
              MO Center=  6.7D-02,  7.9D-01,  6.3D-02, r^2= 1.2D+00
   Bfn.  Coefficient  Atom+Function         Bfn.  Coefficient  Atom+Function  
  ----- ------------  ---------------      ----- ------------  ---------------
    64      1.590435   3 C  s                65     -1.359802   3 C  s         
    67     -1.269411   3 C  s                63     -1.253493   3 C  s         
    98      1.053521   4 C  s                95     -0.742199   4 C  s         
    96      0.604591   4 C  s                94      0.587175   4 C  s         
    40     -0.471045   2 C  px               35      0.437773   2 C  s         
 
 Vector  158  Occ=0.000000D+00  E= 2.198072D+01
              MO Center=  9.0D-01, -2.6D-01, -7.2D-01, r^2= 1.1D+00
   Bfn.  Coefficient  Atom+Function         Bfn.  Coefficient  Atom+Function  
  ----- ------------  ---------------      ----- ------------  ---------------
    95      1.429311   4 C  s                96     -1.319413   4 C  s         
    98     -1.152056   4 C  s                94     -1.124545   4 C  s         
    34     -0.967733   2 C  s                36     -0.918360   2 C  s         
    33      0.882778   2 C  s                32     -0.689835   2 C  s         
    65     -0.623859   3 C  s                67      0.588127   3 C  s         
 
 Vector  159  Occ=0.000000D+00  E= 2.209963D+01
              MO Center=  6.2D-01, -1.2D-01, -8.2D-02, r^2= 7.1D-01
   Bfn.  Coefficient  Atom+Function         Bfn.  Coefficient  Atom+Function  
  ----- ------------  ---------------      ----- ------------  ---------------
    36      2.179050   2 C  s                33     -1.535926   2 C  s         
    34      1.522680   2 C  s                35     -1.349139   2 C  s         
    98     -1.303719   4 C  s                32      1.202938   2 C  s         
    67     -1.144610   3 C  s                95      0.730884   4 C  s         
    97      0.686687   4 C  s                96     -0.656761   4 C  s         
 
 Vector  160  Occ=0.000000D+00  E= 4.341274D+01
              MO Center= -8.8D-01, -1.8D-01,  2.0D-01, r^2= 1.2D-01
   Bfn.  Coefficient  Atom+Function         Bfn.  Coefficient  Atom+Function  
  ----- ------------  ---------------      ----- ------------  ---------------
     4      2.501849   1 O  s                 3     -1.873180   1 O  s         
     2      1.731426   1 O  s                 1     -1.395824   1 O  s         
     5     -0.878633   1 O  s                36      0.841964   2 C  s         
     9      0.559259   1 O  px               66     -0.514122   3 C  s         
    40      0.461062   2 C  px               72      0.456538   3 C  py        
 

 center of mass
 --------------
 x =   0.30619305 y =   0.09486548 z =  -0.27792476

 moments of inertia (a.u.)
 ------------------
         200.144270149596          45.496444862732          83.717424130995
          45.496444862732         248.035410715848         -52.705570943530
          83.717424130995         -52.705570943530         238.913872929970
 
     Multipole analysis of the density
     ---------------------------------
 
     L   x y z        total         alpha         beta         nuclear
     -   - - -        -----         -----         ----         -------
     0   0 0 0     -0.000000    -16.000000    -16.000000     32.000000
 
     1   1 0 0      0.687503     -6.215037     -6.215037     13.117578
     1   0 1 0      0.326601     -1.623605     -1.623605      3.573810
     1   0 0 1     -0.060617      5.325337      5.325337    -10.711290
 
     2   2 0 0    -20.049762    -54.302540    -54.302540     88.555318
     2   1 1 0     -1.061871     13.831978     13.831978    -28.725826
     2   1 0 1      0.163702     26.460626     26.460626    -52.757550
     2   0 2 0    -17.846507    -40.494861    -40.494861     63.143215
     2   0 1 1      0.269595    -15.431223    -15.431223     31.132042
     2   0 0 2    -18.169187    -45.797057    -45.797057     73.424928
 
 *** CALLING NEW AORESP DRIVER FOR CLOSED AND OPEN SHELLS ***
 Entering AOResponse driver routine


--------------------------------------------------------------------------------

          ****************
          *** RESPONSE ***
          ****************

 Response module for NWChem and dynamic CPKS solver
 developed by J. Autschbach and coworkers, SUNY Buffalo
 The methodology used in this program is described in 
 ChemPhysChem 12 (2011), 3224-3235 (main reference)
 J. Chem. Phys. 123 (2005), 114103
 J. Chem. Phys. 122 (2005), 224115
 J. Chem. Phys. 122 (2005), 074105
 Comp. Lett. 3 (2007), 131-150 (contact JA for a copy)
 Please cite this work in publications based on results
 obtained with this code. Thank you!

 For extension of response module to open shell
 calculations please acknowledge:
 F. Aquino, Northwestern University, Schatz Rsrch Group
 The update to the methodology is described in
 J. Phys. Chem. A 118 (2014) 517-525



          -----------------------------------------------
          Solving response equations for perturbing field
          -----------------------------------------------

 number of frequencies:     1
 frequency in a.u.:  0.9319600E-01
 Perturbing field: electric
 Using GIAO formalism for OptRot
 Adding quadrupole terms to OptRot
 to create an origin in dependent tensor.
 Using El. Dipole Length Gauge
 
 Applying DAMPING constant of  0.003700 a.u.
 
 Setting up CPKS
 with frequency omega =      0.09319600 a.u.
 and a damping of            0.00370000 a.u.

 
                            NWChem Dynamic CPHF Module
                            --------------------------
 
 
    scftype = RHF 
    nclosed =   16
      nopen =    0
  variables =     9216
  num. vecs =        3
  tolerance =   1.0D-07
  max. iter =  100

 SCF residual:   4.312458318920763E-006


Iterative solution of linear equations
  No. of variables     4608
  No. of equations        3
  Maximum subspace       99
       Convergence  1.0D-07
        Start time     95.9


   iter   nsub   residual    time 
   ----  ------  --------  --------- 
 dft_CPHF2_read: failed to open
 ./methyloxirane_blyp-def2-tzvp_488.9_41.inp.aoresp_fiao_f1
     1      3    3.99D+00     147.4
     2      6    2.54D+00     197.3
     3      9    2.43D-01     247.2
     4     12    4.74D-02     297.3
     5     15    1.03D-02     347.2
     6     18    1.28D-03     397.5
     7     21    1.38D-04     447.4
     8     24    1.23D-05     497.2
     9     27    1.28D-06     547.2
    10     30    4.55D-07     597.2
    11     33    1.39D-08     647.2

 Calculating some arrays needed for GIAO optical rotation

    0 giaofock schwarz done =      93.11%
    0 giaofock schwarz done =      93.67%
 aor_r1_tensor_giao: roadata output requested
 dip-quad polarizability Re:

              1        2        3        4        5        6      
    1   76.8005  -5.9002 -27.3134  -4.5949   0.9598   8.8615
    2  -11.3874  25.2869   3.2295  23.7984 -21.6329   3.9005
    3   -6.2669   1.0685  39.1467  -0.1876  13.9400 -41.3862
 traceless dip-quad polarizability:

              1        2        3      
    1   74.6672  -8.8503 -40.9700
    2   -8.8503 -47.4259   1.4397
    3  -40.9700   1.4397 -27.2413

              1        2        3      
    1  -25.2368  37.9304   4.8442
    2   37.9304  27.5418 -32.4493
    3    4.8442 -32.4493  -2.3050

              1        2        3      
    1   14.5200   1.6027  58.7201
    2    1.6027  23.6390  20.9100
    3   58.7201  20.9100 -38.1590

 roa begin

 alpha real:
 XX       0.4092197854663E+02
 XY      -0.5109026734713E+01
 XZ      -0.2967704947858E+01
 YX      -0.5109026741034E+01
 YY       0.4406701150517E+02
 YZ       0.3227366822732E+01
 ZX      -0.2967704954297E+01
 ZY       0.3227366825302E+01
 ZZ       0.4156239719416E+02

 alpha im:
 XX       0.1104601940300E+00
 XY      -0.2983867313292E-01
 XZ      -0.1081829968151E-01
 YX      -0.2983866817857E-01
 YY       0.1295788125984E+00
 YZ       0.1864877204200E-01
 ZX      -0.1081829636654E-01
 ZY       0.1864877334214E-01
 ZZ       0.1231577145321E+00

 beta real:
 XX      -0.1480518782925E+00
 XY       0.9393494233437E+00
 XZ       0.1977899155439E+00
 YX      -0.8810938893474E+00
 YY       0.1586446444367E+00
 YZ      -0.1548345329144E+01
 ZX      -0.4826609093066E+00
 ZY       0.1890584288164E+01
 ZZ      -0.1476484579746E-01

 G-prime = -omega beta(real):
 XX      -0.1480518782925E+00
 XY       0.9393494233437E+00
 XZ       0.1977899155439E+00
 YX      -0.8810938893474E+00
 YY       0.1586446444367E+00
 YZ      -0.1548345329144E+01
 ZX      -0.4826609093066E+00
 ZY       0.1890584288164E+01
 ZZ      -0.1476484579746E-01

 beta im:
 XX      -0.6311872488246E-02
 XY       0.1336319367704E-01
 XZ       0.2626829397672E-02
 YX      -0.7362782481991E-02
 YY       0.5238245473192E-02
 YZ      -0.2369714291069E-01
 ZX      -0.1356341771198E-01
 ZY       0.4077254488428E-01
 ZZ       0.2456872495630E-03

 G-prime = -omega beta(imag):
 XX      -0.6311872488246E-02
 XY       0.1336319367704E-01
 XZ       0.2626829397672E-02
 YX      -0.7362782481991E-02
 YY       0.5238245473192E-02
 YZ      -0.2369714291069E-01
 ZX      -0.1356341771198E-01
 ZY       0.4077254488428E-01
 ZZ       0.2456872495630E-03

 dipole-quadrupole real (Cartesian):
 XXX      0.7680050423248E+02
 XXY     -0.5900176407073E+01
 XXZ     -0.2731336453546E+02
 XYY     -0.4594921928556E+01
 XYZ      0.9597676521526E+00
 XZZ      0.8861512187184E+01
 YXX     -0.1138736623946E+02
 YXY      0.2528690283666E+02
 YXZ      0.3229480912741E+01
 YYY      0.2379840913403E+02
 YYZ     -0.2163286030709E+02
 YZZ      0.3900516469373E+01
 ZXX     -0.6266910233084E+01
 ZXY      0.1068459805960E+01
 ZXZ      0.3914674579612E+02
 ZYY     -0.1876048450776E+00
 ZYZ      0.1393998937323E+02
 ZZZ     -0.4138622942216E+02

 dipole-quadrupole imag (Cartesian):
 XXX      0.2671680660732E+00
 XXY     -0.3361270284284E-01
 XXZ     -0.7490081446831E-01
 XYY     -0.2860082762883E-01
 XYZ      0.2039464197359E-02
 XZZ      0.5945041869980E-01
 YXX     -0.5616089177987E-01
 YXY      0.6090522743357E-01
 YXZ      0.1930675902321E-01
 YYY      0.9432427631346E-01
 YYZ     -0.6159990011893E-01
 YZZ      0.9505409652652E-02
 ZXX     -0.3179616041395E-01
 ZXY     -0.4416518814093E-03
 ZXZ      0.1443035252331E+00
 ZYY      0.5306896655960E-02
 ZYZ      0.6718540651413E-01
 ZZZ     -0.9667125126760E-01

 dipole-quadrupole (traceless):
 XXX      0.7466720910316E+02
 XXY     -0.8850264610609E+01
 XXZ     -0.4097004680318E+02
 XYY     -0.4742593013839E+02
 XYZ      0.1439651478229E+01
 XZZ     -0.2724127896478E+02
 YXX     -0.2523682904116E+02
 YXY      0.3793035425500E+02
 YXZ      0.4844221369111E+01
 YYY      0.2754183401907E+02
 YYZ     -0.3244929046063E+02
 YZZ     -0.2305004977911E+01
 ZXX      0.1452000690053E+02
 ZXY      0.1602689708939E+01
 ZXZ      0.5872011869418E+02
 ZYY      0.2363896498254E+02
 ZYZ      0.2090998405985E+02
 ZZZ     -0.3815897188308E+02

 roa end


 Electric Dipole Response Matrix (nonzero elements):

              1        2        3      
    1   40.9220  -5.1090  -2.9677
    2   -5.1090  44.0670   3.2274
    3   -2.9677   3.2274  41.5624
 
 Imaginary part:

              1        2        3      
    1    0.1105  -0.0298  -0.0108
    2   -0.0298   0.1296   0.0186
    3   -0.0108   0.0186   0.1232

 ------------------------------------------
 average:        42.18380 + I       0.12107


 DFT Linear Response polarizability / au 
 Frequency  =       0.0931960 / au
 Wavelength =     488.8981609 / nm
              X              Y              Z
 -----------------------------------------------
 X      40.9219785     -5.1090267     -2.9677049
 Y      -5.1090267     44.0670115      3.2273668
 Z      -2.9677050      3.2273668     41.5623972
 -----------------------------------------------
 Eigenvalues =      37.0680319     50.0764179     39.4069374
 Isotropic   =      42.1837957
 Anisotropic =       9.8069092
 -----------------------------------------------
 *************************

 DFT Linear Response IMAG polarizability / au 
 Frequency  =       0.0931960 / au
 Wavelength =     488.8981609 / nm
              X              Y              Z
 -----------------------------------------------
 X       0.1104602     -0.0298387     -0.0108183
 Y      -0.0298387      0.1295788      0.0186488
 Z      -0.0108183      0.0186488      0.1231577
 -----------------------------------------------
 Eigenvalues =       0.0885013      0.1629308      0.1117646
 Isotropic   =       0.1210656
 Anisotropic =       0.0538483
 -----------------------------------------------
 *************************

 Magnetic Dipole Response Matrix (nonzero elements):
 Optical rotation tensor Beta
 (Buckingham-Dunn version including dipole-quadrupole terms)

              1        2        3      
    1    2.6691  -0.4122   0.3903
    2   -0.4122  -1.6479  -1.7353
    3    0.3903  -1.7353  -0.9764
 
 Imaginary part:

              1        2        3      
    1    0.0677  -0.1434  -0.0282
    2    0.0790  -0.0562   0.2543
    3    0.1455  -0.4375  -0.0026

 ------------------------------------------
 average:         0.01492 + I       0.00296

 Principal components and PAS (Real part)
                 -3.08049
                  2.80503
                  0.32023
 ------------------------
 average:         0.01492

              1        2        3      
    1    0.0123   0.9724  -0.2331
    2    0.7725  -0.1572  -0.6152
    3    0.6349   0.1725   0.7531

 Chiral response tensor (Real part):

              1        2        3      
    1   -1.3122   0.2061  -0.1951
    2    0.2061   0.8463   0.8676
    3   -0.1951   0.8676   0.5106
 
 Principal components and PAS (Real part)
                  1.56263
                 -1.38013
                 -0.13773
 ------------------------
 average:         0.01492

              1        2        3      
    1    0.0123   0.9724  -0.2331
    2    0.7725  -0.1572  -0.6152
    3    0.6349   0.1725   0.7531
 Exiting AOResponse driver routine

 Task  times  cpu:      623.8s     wall:      639.7s
 
 
                                NWChem Input Module
                                -------------------
 
 
 Summary of allocated global arrays
-----------------------------------
  No active global arrays



                         GA Statistics for process    0
                         ------------------------------

       create   destroy   get      put      acc     scatter   gather  read&inc
calls: 3294     3294     7.60e+06 3.14e+06 7.34e+05 2694        0     1318     
number of processes/call 1.01e+00 1.03e+00 1.42e+00 0.00e+00 0.00e+00
bytes total:             1.69e+09 1.26e+08 1.74e+09 1.84e+02 0.00e+00 1.05e+04
bytes remote:            6.97e+08 3.29e+07 9.79e+08 0.00e+00 0.00e+00 0.00e+00
Max memory consumed for GA by this process: 11242192 bytes
 
MA_summarize_allocated_blocks: starting scan ...
MA_summarize_allocated_blocks: scan completed: 0 heap blocks, 0 stack blocks
MA usage statistics:

	allocation statistics:
					      heap	     stack
					      ----	     -----
	current number of blocks	         0	         0
	maximum number of blocks	        24	        52
	current total bytes		         0	         0
	maximum total bytes		   7519840	  48565112
	maximum total K-bytes		      7520	     48566
	maximum total M-bytes		         8	        49
 
 
                                     CITATION
                                     --------
                Please cite the following reference when publishing
                           results obtained with NWChem:
 
                 M. Valiev, E.J. Bylaska, N. Govind, K. Kowalski,
              T.P. Straatsma, H.J.J. van Dam, D. Wang, J. Nieplocha,
                        E. Apra, T.L. Windus, W.A. de Jong
                 "NWChem: a comprehensive and scalable open-source
                  solution for large scale molecular simulations"
                      Comput. Phys. Commun. 181, 1477 (2010)
                           doi:10.1016/j.cpc.2010.04.018
 
                                      AUTHORS
                                      -------
          E. Apra, E. J. Bylaska, W. A. de Jong, N. Govind, K. Kowalski,
       T. P. Straatsma, M. Valiev, H. J. J. van Dam, D. Wang, T. L. Windus,
        J. Hammond, J. Autschbach, K. Bhaskaran-Nair, J. Brabec, K. Lopata,
    S. A. Fischer, S. Krishnamoorthy, M. Jacquelin, W. Ma, M. Klemm, O. Villa,
      Y. Chen, V. Anisimov, F. Aquino, S. Hirata, M. T. Hackler, V. Konjkov,
            D. Mejia-Rodriguez, T. Risthaus, M. Malagoli, A. Marenich,
   A. Otero-de-la-Roza, J. Mullin, P. Nichols, R. Peverati, J. Pittner, Y. Zhao,
        P.-D. Fan, A. Fonari, M. J. Williamson, R. J. Harrison, J. R. Rehr,
      M. Dupuis, D. Silverstein, D. M. A. Smith, J. Nieplocha, V. Tipparaju,
    M. Krishnan, B. E. Van Kuiken, A. Vazquez-Mayagoitia, L. Jensen, M. Swart,
      Q. Wu, T. Van Voorhis, A. A. Auer, M. Nooijen, L. D. Crosby, E. Brown,
      G. Cisneros, G. I. Fann, H. Fruchtl, J. Garza, K. Hirao, R. A. Kendall,
      J. A. Nichols, K. Tsemekhman, K. Wolinski, J. Anchell, D. E. Bernholdt,
      P. Borowski, T. Clark, D. Clerc, H. Dachsel, M. J. O. Deegan, K. Dyall,
    D. Elwood, E. Glendening, M. Gutowski, A. C. Hess, J. Jaffe, B. G. Johnson,
     J. Ju, R. Kobayashi, R. Kutteh, Z. Lin, R. Littlefield, X. Long, B. Meng,
      T. Nakajima, S. Niu, L. Pollack, M. Rosing, K. Glaesemann, G. Sandrone,
      M. Stave, H. Taylor, G. Thomas, J. H. van Lenthe, A. T. Wong, Z. Zhang.

 Total times  cpu:      697.3s     wall:      715.1s
