 argument  1 = methyloxirane_blyp-def2-tzvp_488.9_33.inp
 


============================== echo of input deck ==============================
echo
start methyloxirane_blyp-def2-tzvp_488.9_33.inp
title "methyloxirane roa calculations at 488.9 nm, input generated in va  with delta_type=2"
charge 0



geometry units angstrom nocenter noautoz noautosym nucleus point;symmetry c1
 O -0.877811 -0.179242  0.207437
 C  0.571343 -0.160309  0.121898
 C -0.186303  1.087627  0.336336
 C  1.187660 -0.517623 -1.210755
 H  1.060590 -0.597737  0.999213
 H -0.235270  1.518589  1.339579
 H -0.314689  1.796653 -0.486686
 H  2.245815 -0.222835 -1.256119
 H  1.133654 -1.604513 -1.364987
 H  0.647064 -0.032518 -2.033061
end

basis spherical
* library def2-TZVP
end

 set prop:newaoresp 1
 set aor:roadata T
 set cphf:maxsub 100
 set cphf:acc 1.0d-10
 set cphf:maxiter 100

property
    response 1   0.093196
    bdtensor
    convergence 1e-7
    damping 0.0037
    giao
end

dft
 direct
 mult 1
 xc becke88 lyp
 iterations 250
 tolerances tight
 grid xfine
 convergence nolevelshifting
 convergence energy 1e-8
 convergence gradient 1e-7


end

task dft gradient
task dft property
================================================================================


                                         
                                         
 
 
              Northwest Computational Chemistry Package (NWChem) 6.8
              ------------------------------------------------------
 
 
                    Environmental Molecular Sciences Laboratory
                       Pacific Northwest National Laboratory
                                Richland, WA 99352
 
                              Copyright (c) 1994-2017
                       Pacific Northwest National Laboratory
                            Battelle Memorial Institute
 
             NWChem is an open-source computational chemistry package
                        distributed under the terms of the
                      Educational Community License (ECL) 2.0
             A copy of the license is included with this distribution
                              in the LICENSE.TXT file
 
                                  ACKNOWLEDGMENT
                                  --------------

            This software and its documentation were developed at the
            EMSL at Pacific Northwest National Laboratory, a multiprogram
            national laboratory, operated for the U.S. Department of Energy
            by Battelle under Contract Number DE-AC05-76RL01830. Support
            for this work was provided by the Department of Energy Office
            of Biological and Environmental Research, Office of Basic
            Energy Sciences, and the Office of Advanced Scientific Computing.


           Job information
           ---------------

    hostname        = cpn-f15-33.cbls.ccr.buffalo.edu
    program         = /util/academic/nwchem/nwchem-6.8/bin/LINUX64/nwchem
    date            = Fri Mar  1 10:30:29 2019

    compiled        = Tue_Nov_06_14:59:08_2018
    source          = /util/academic/nwchem/nwchem-6.8
    nwchem branch   = 6.8
    nwchem revision = v6.8-47-gdf6c956
    ga revision     = ga-5.6.3
    use scalapack   = F
    input           = methyloxirane_blyp-def2-tzvp_488.9_33.inp
    prefix          = methyloxirane_blyp-def2-tzvp_488.9_33.inp.
    data base       = ./methyloxirane_blyp-def2-tzvp_488.9_33.inp.db
    status          = startup
    nproc           =        7
    time left       =     -1s



           Memory information
           ------------------

    heap     =   13107196 doubles =    100.0 Mbytes
    stack    =   13107201 doubles =    100.0 Mbytes
    global   =   26214400 doubles =    200.0 Mbytes (distinct from heap & stack)
    total    =   52428797 doubles =    400.0 Mbytes
    verify   = yes
    hardfail = no 


           Directory information
           ---------------------
 
  0 permanent = .
  0 scratch   = .
 
 
 
 
                                NWChem Input Module
                                -------------------
 
 
                    methyloxirane roa calculations at 488.9 nm, input generated in va  with delta_type=2
                    ------------------------------------------

 Scaling coordinates for geometry "geometry" by  1.889725989
 (inverse scale =  0.529177249)

 
 
                             Geometry "geometry" -> ""
                             -------------------------
 
 Output coordinates in angstroms (scale by  1.889725989 to convert to a.u.)
 
  No.       Tag          Charge          X              Y              Z
 ---- ---------------- ---------- -------------- -------------- --------------
    1 O                    8.0000    -0.87781100    -0.17924200     0.20743700
    2 C                    6.0000     0.57134300    -0.16030900     0.12189800
    3 C                    6.0000    -0.18630300     1.08762700     0.33633600
    4 C                    6.0000     1.18766000    -0.51762300    -1.21075500
    5 H                    1.0000     1.06059000    -0.59773700     0.99921300
    6 H                    1.0000    -0.23527000     1.51858900     1.33957900
    7 H                    1.0000    -0.31468900     1.79665300    -0.48668600
    8 H                    1.0000     2.24581500    -0.22283500    -1.25611900
    9 H                    1.0000     1.13365400    -1.60451300    -1.36498700
   10 H                    1.0000     0.64706400    -0.03251800    -2.03306100
 
      Atomic Mass 
      ----------- 
 
      O                 15.994910
      C                 12.000000
      H                  1.007825
 

 Effective nuclear repulsion energy (a.u.)     123.6361651809

            Nuclear Dipole moment (a.u.) 
            ----------------------------
        X                 Y               Z
 ---------------- ---------------- ----------------
    13.1352510206     3.5562243153   -10.6914857181
 
 
            XYZ format geometry
            -------------------
    10
 geometry
 O                    -0.87781100    -0.17924200     0.20743700
 C                     0.57134300    -0.16030900     0.12189800
 C                    -0.18630300     1.08762700     0.33633600
 C                     1.18766000    -0.51762300    -1.21075500
 H                     1.06059000    -0.59773700     0.99921300
 H                    -0.23527000     1.51858900     1.33957900
 H                    -0.31468900     1.79665300    -0.48668600
 H                     2.24581500    -0.22283500    -1.25611900
 H                     1.13365400    -1.60451300    -1.36498700
 H                     0.64706400    -0.03251800    -2.03306100
 
 ==============================================================================
                                internuclear distances
 ------------------------------------------------------------------------------
       center one      |      center two      | atomic units |  angstroms
 ------------------------------------------------------------------------------
    2 C                |   1 O                |     2.74350  |     1.45180
    3 C                |   1 O                |     2.73831  |     1.44905
    3 C                |   2 C                |     2.78845  |     1.47559
    4 C                |   2 C                |     2.85560  |     1.51112
    5 H                |   2 C                |     2.07043  |     1.09562
    6 H                |   3 C                |     2.06545  |     1.09299
    7 H                |   3 C                |     2.06713  |     1.09388
    8 H                |   4 C                |     2.07754  |     1.09939
    9 H                |   4 C                |     2.07701  |     1.09911
   10 H                |   4 C                |     2.07333  |     1.09716
 ------------------------------------------------------------------------------
                         number of included internuclear distances:         10
 ==============================================================================



 ==============================================================================
                                 internuclear angles
 ------------------------------------------------------------------------------
        center 1       |       center 2       |       center 3       |  degrees
 ------------------------------------------------------------------------------
    2 C                |   1 O                |   3 C                |    61.15
    2 C                |   1 O                |   3 C                |    61.15
    1 O                |   2 C                |   4 C                |   117.13
    1 O                |   2 C                |   5 H                |   113.16
    3 C                |   2 C                |   4 C                |   122.52
    3 C                |   2 C                |   5 H                |   116.78
    4 C                |   2 C                |   5 H                |   115.44
    3 C                |   1 O                |   2 C                |    61.15
    1 O                |   3 C                |   6 H                |   113.89
    1 O                |   3 C                |   7 H                |   116.34
    2 C                |   3 C                |   6 H                |   119.33
    2 C                |   3 C                |   7 H                |   119.94
    6 H                |   3 C                |   7 H                |   115.45
    2 C                |   4 C                |   8 H                |   111.44
    2 C                |   4 C                |   9 H                |   109.73
    2 C                |   4 C                |  10 H                |   110.82
    8 H                |   4 C                |   9 H                |   107.86
    8 H                |   4 C                |  10 H                |   108.95
    9 H                |   4 C                |  10 H                |   107.93
 ------------------------------------------------------------------------------
                            number of included internuclear angles:         19
 ==============================================================================



  warning:::::::::::::: from_environment
  NWCHEM_BASIS_LIBRARY set to: <
 /util/academic/nwchem/nwchem-6.8/src/basis/libraries>
  but file does not exist !
  using .nwchemrc or compiled library


 Summary of "ao basis" -> "" (spherical)
 ------------------------------------------------------------------------------
       Tag                 Description            Shells   Functions and Types
 ---------------- ------------------------------  ------  ---------------------
 *                         def2-TZVP                  on all atoms 


 
                                 NWChem DFT Module
                                 -----------------
 
 
                    methyloxirane roa calculations at 488.9 nm, input generated in va  with delta_type=2
 
 
                      Basis "ao basis" -> "ao basis" (spherical)
                      -----
  O (Oxygen)
  ----------
            Exponent  Coefficients 
       -------------- ---------------------------------------------------------
  1 S  2.70323826E+04  0.000217
  1 S  4.05238714E+03  0.001684
  1 S  9.22327227E+02  0.008740
  1 S  2.61240710E+02  0.035240
  1 S  8.53546414E+01  0.111535
  1 S  3.10350352E+01  0.255890
 
  2 S  1.22608607E+01  0.397687
  2 S  4.99870760E+00  0.246278
 
  3 S  1.17031082E+00  1.000000
 
  4 S  4.64747410E-01  1.000000
 
  5 S  1.85045364E-01  1.000000
 
  6 P  6.32749548E+01  0.006069
  6 P  1.46270494E+01  0.041913
  6 P  4.45012235E+00  0.161538
  6 P  1.52757996E+00  0.357070
 
  7 P  5.29351179E-01  1.000000
 
  8 P  1.74784213E-01  1.000000
 
  9 D  2.31400000E+00  1.000000
 
 10 D  6.45000000E-01  1.000000
 
 11 F  1.42800000E+00  1.000000
 
  C (Carbon)
  ----------
            Exponent  Coefficients 
       -------------- ---------------------------------------------------------
  1 S  1.35753497E+04  0.000222
  1 S  2.03523337E+03  0.001723
  1 S  4.63225624E+02  0.008926
  1 S  1.31200196E+02  0.035728
  1 S  4.28530159E+01  0.110763
  1 S  1.55841858E+01  0.242956
 
  2 S  6.20671385E+00  0.414403
  2 S  2.57648965E+00  0.237450
 
  3 S  5.76963394E-01  1.000000
 
  4 S  2.29728314E-01  1.000000
 
  5 S  9.51644400E-02  1.000000
 
  6 P  3.46972322E+01  0.005333
  6 P  7.95826228E+00  0.035864
  6 P  2.37808269E+00  0.142159
  6 P  8.14332082E-01  0.342705
 
  7 P  2.88875473E-01  1.000000
 
  8 P  1.00568237E-01  1.000000
 
  9 D  1.09700000E+00  1.000000
 
 10 D  3.18000000E-01  1.000000
 
 11 F  7.61000000E-01  1.000000
 
  H (Hydrogen)
  ------------
            Exponent  Coefficients 
       -------------- ---------------------------------------------------------
  1 S  3.40613410E+01  0.006025
  1 S  5.12357460E+00  0.045021
  1 S  1.16466260E+00  0.201897
 
  2 S  3.27230410E-01  1.000000
 
  3 S  1.03072410E-01  1.000000
 
  4 P  8.00000000E-01  1.000000
 


 Summary of "ao basis" -> "ao basis" (spherical)
 ------------------------------------------------------------------------------
       Tag                 Description            Shells   Functions and Types
 ---------------- ------------------------------  ------  ---------------------
 O                         def2-TZVP                11       31   5s3p2d1f
 C                         def2-TZVP                11       31   5s3p2d1f
 H                         def2-TZVP                 4        6   3s1p




 Summary of "ao basis" -> "ao basis" (spherical)
 ------------------------------------------------------------------------------
       Tag                 Description            Shells   Functions and Types
 ---------------- ------------------------------  ------  ---------------------
 O                         def2-TZVP                11       31   5s3p2d1f
 C                         def2-TZVP                11       31   5s3p2d1f
 H                         def2-TZVP                 4        6   3s1p


  Caching 1-el integrals 
  itol2e modified to match energy
  convergence criterion.
  tol_rho modified to match energy
  convergence criterion.
 
            General Information
            -------------------
          SCF calculation type: DFT
          Wavefunction type:  closed shell.
          No. of atoms     :    10
          No. of electrons :    32
           Alpha electrons :    16
            Beta electrons :    16
          Charge           :     0
          Spin multiplicity:     1
          Use of symmetry is: off; symmetry adaption is: off
          Maximum number of iterations: 250
          This is a Direct SCF calculation.
          AO basis - number of functions:   160
                     number of shells:    68
          Convergence on energy requested:  1.00D-08
          Convergence on density requested:  1.00D-05
          Convergence on gradient requested:  1.00D-07
 
              XC Information
              --------------
                    Becke 1988 Exchange Functional  1.000          
              Lee-Yang-Parr Correlation Functional  1.000          
 
             Grid Information
             ----------------
          Grid used for XC integration:  xfine     
          Radial quadrature: Mura-Knowles        
          Angular quadrature: Lebedev. 
          Tag              B.-S. Rad. Rad. Pts. Rad. Cut. Ang. Pts.
          ---              ---------- --------- --------- ---------
          O                   0.60      100          11.0      1454
          C                   0.70      100          11.0      1454
          H                   0.35      100          12.0      1202
          Grid pruning is: on 
          Number of quadrature shells:  1000
          Spatial weights used:  Erf1
 
          Convergence Information
          -----------------------
          Convergence aids based upon iterative change in 
          total energy or number of iterations. 
          Levelshifting, if invoked, occurs when the 
          HOMO/LUMO gap drops below (HL_TOL):  1.00D-02
          DIIS, if invoked, will attempt to extrapolate 
          using up to (NFOCK): 10 stored Fock matrices.

                    Damping( 0%)  Levelshifting(0.0)       DIIS
                  --------------- ------------------- ---------------
          dE  on:    start             N/A                start   
          dE off:    2 iters           N/A              250 iters 

 
      Screening Tolerance Information
      -------------------------------
          Density screening/tol_rho:  1.00D-11
          AO Gaussian exp screening on grid/accAOfunc:  18
          CD Gaussian exp screening on grid/accCDfunc:  20
          XC Gaussian exp screening on grid/accXCfunc:  20
          Schwarz screening/accCoul:  1.00D-09

 
      Superposition of Atomic Density Guess
      -------------------------------------
 
 Sum of atomic energies:        -190.79714706
 
      Non-variational initial energy
      ------------------------------

 Total energy =    -193.173803
 1-e energy   =    -502.226606
 2-e energy   =     185.416637
 HOMO         =      -0.350219
 LUMO         =       0.091400
 
   Time after variat. SCF:      0.4
   Time prior to 1st pass:      0.4

 Grid_pts file          = ./methyloxirane_blyp-def2-tzvp_488.9_33.inp.gridpts.0
 Record size in doubles =  12289        No. of grid_pts per rec  =   3070
 Max. records in memory =     76        Max. recs in file   =   1218515


           Memory utilization after 1st SCF pass: 
           Heap Space remaining (MW):       12.17            12167540
          Stack Space remaining (MW):       13.11            13106124

   convergence    iter        energy       DeltaE   RMS-Dens  Diis-err    time
 ---------------- ----- ----------------- --------- --------- ---------  ------
 d= 0,ls=0.0,diis     1   -193.0209776734 -3.17D+02  8.99D-03  1.05D+00     4.6
 d= 0,ls=0.0,diis     2   -192.8691067017  1.52D-01  7.43D-03  2.45D+00     8.5
 d= 0,ls=0.0,diis     3   -193.0765229715 -2.07D-01  1.82D-03  3.93D-01    12.5
 d= 0,ls=0.0,diis     4   -193.1071931468 -3.07D-02  6.72D-04  1.79D-02    16.4
 d= 0,ls=0.0,diis     5   -193.1088285697 -1.64D-03  2.89D-04  2.66D-03    20.3
 d= 0,ls=0.0,diis     6   -193.1091592757 -3.31D-04  2.98D-05  3.40D-05    24.2
 d= 0,ls=0.0,diis     7   -193.1091632996 -4.02D-06  8.18D-06  4.10D-06    28.1
 d= 0,ls=0.0,diis     8   -193.1091637477 -4.48D-07  2.19D-06  3.18D-07    32.0
 d= 0,ls=0.0,diis     9   -193.1091637818 -3.41D-08  7.11D-07  2.07D-08    35.9
 d= 0,ls=0.0,diis    10   -193.1091637841 -2.31D-09  2.10D-07  2.94D-09    39.9


         Total DFT energy =     -193.109163784081
      One electron energy =     -505.880081758087
           Coulomb energy =      216.157936994128
    Exchange-Corr. energy =      -27.023184201033
 Nuclear repulsion energy =      123.636165180911

 Numeric. integr. density =       31.999999966176

     Total iterative time =     39.4s


 
                       DFT Final Molecular Orbital Analysis
                       ------------------------------------
 
 Vector    1  Occ=2.000000D+00  E=-1.878037D+01
              MO Center= -8.8D-01, -1.8D-01,  2.1D-01, r^2= 1.5D-02
   Bfn.  Coefficient  Atom+Function         Bfn.  Coefficient  Atom+Function  
  ----- ------------  ---------------      ----- ------------  ---------------
     2      0.638473   1 O  s                 1      0.435422   1 O  s         
     3      0.039935   1 O  s                 4     -0.033414   1 O  s         
 
 Vector    2  Occ=2.000000D+00  E=-9.963031D+00
              MO Center=  5.7D-01, -1.6D-01,  1.2D-01, r^2= 2.8D-02
   Bfn.  Coefficient  Atom+Function         Bfn.  Coefficient  Atom+Function  
  ----- ------------  ---------------      ----- ------------  ---------------
    33      0.606913   2 C  s                32      0.467265   2 C  s         
    34      0.042446   2 C  s                36      0.037091   2 C  s         
    35     -0.026948   2 C  s         
 
 Vector    3  Occ=2.000000D+00  E=-9.955098D+00
              MO Center= -1.9D-01,  1.1D+00,  3.4D-01, r^2= 2.8D-02
   Bfn.  Coefficient  Atom+Function         Bfn.  Coefficient  Atom+Function  
  ----- ------------  ---------------      ----- ------------  ---------------
    64      0.607027   3 C  s                63      0.467225   3 C  s         
    65      0.039680   3 C  s         
 
 Vector    4  Occ=2.000000D+00  E=-9.907888D+00
              MO Center=  1.2D+00, -5.2D-01, -1.2D+00, r^2= 2.8D-02
   Bfn.  Coefficient  Atom+Function         Bfn.  Coefficient  Atom+Function  
  ----- ------------  ---------------      ----- ------------  ---------------
    95      0.606961   4 C  s                94      0.467215   4 C  s         
    96      0.040595   4 C  s                98      0.035708   4 C  s         
 
 Vector    5  Occ=2.000000D+00  E=-9.647055D-01
              MO Center= -4.7D-01,  5.6D-02,  2.1D-01, r^2= 6.4D-01
   Bfn.  Coefficient  Atom+Function         Bfn.  Coefficient  Atom+Function  
  ----- ------------  ---------------      ----- ------------  ---------------
     4      0.375268   1 O  s                 3      0.277444   1 O  s         
     2     -0.192834   1 O  s                34      0.139850   2 C  s         
    65      0.139037   3 C  s                 5      0.122550   1 O  s         
    35      0.104818   2 C  s                 6      0.093852   1 O  px        
    66      0.093064   3 C  s                69     -0.091748   3 C  py        
 
 Vector    6  Occ=2.000000D+00  E=-6.698148D-01
              MO Center=  9.4D-01, -3.9D-01, -7.7D-01, r^2= 1.5D+00
   Bfn.  Coefficient  Atom+Function         Bfn.  Coefficient  Atom+Function  
  ----- ------------  ---------------      ----- ------------  ---------------
    97      0.285556   4 C  s                96      0.276455   4 C  s         
    35      0.185195   2 C  s                34      0.174315   2 C  s         
    95     -0.174097   4 C  s                 4     -0.146947   1 O  s         
    33     -0.108944   2 C  s                 3     -0.102555   1 O  s         
    94     -0.083418   4 C  s                 5     -0.072745   1 O  s         
 
 Vector    7  Occ=2.000000D+00  E=-5.894603D-01
              MO Center= -1.3D-01,  7.2D-01,  2.2D-01, r^2= 2.0D+00
   Bfn.  Coefficient  Atom+Function         Bfn.  Coefficient  Atom+Function  
  ----- ------------  ---------------      ----- ------------  ---------------
    66      0.326008   3 C  s                65      0.278161   3 C  s         
     4     -0.238296   1 O  s                64     -0.171945   3 C  s         
     3     -0.168106   1 O  s                 5     -0.148129   1 O  s         
     2      0.111003   1 O  s                38      0.105029   2 C  py        
   132      0.102473   6 H  s                97     -0.098198   4 C  s         
 
 Vector    8  Occ=2.000000D+00  E=-5.299315D-01
              MO Center=  4.1D-01,  1.4D-02, -9.7D-02, r^2= 2.7D+00
   Bfn.  Coefficient  Atom+Function         Bfn.  Coefficient  Atom+Function  
  ----- ------------  ---------------      ----- ------------  ---------------
    35      0.303336   2 C  s                34      0.225061   2 C  s         
    97     -0.155271   4 C  s                66     -0.152990   3 C  s         
    33     -0.138462   2 C  s               126      0.132419   5 H  s         
    96     -0.128709   4 C  s                 6      0.108053   1 O  px        
   125      0.105981   5 H  s                65     -0.099041   3 C  s         
 
 Vector    9  Occ=2.000000D+00  E=-4.480573D-01
              MO Center=  1.2D-01,  2.7D-01,  2.4D-01, r^2= 2.5D+00
   Bfn.  Coefficient  Atom+Function         Bfn.  Coefficient  Atom+Function  
  ----- ------------  ---------------      ----- ------------  ---------------
    70      0.209669   3 C  pz               39      0.156857   2 C  pz        
   132      0.143612   6 H  s                73      0.131931   3 C  pz        
     8      0.129973   1 O  pz              126      0.115999   5 H  s         
     6     -0.110750   1 O  px              131      0.106647   6 H  s         
    11      0.105332   1 O  pz               37      0.104840   2 C  px        
 
 Vector   10  Occ=2.000000D+00  E=-4.143868D-01
              MO Center=  4.3D-02,  2.9D-01, -2.3D-01, r^2= 2.6D+00
   Bfn.  Coefficient  Atom+Function         Bfn.  Coefficient  Atom+Function  
  ----- ------------  ---------------      ----- ------------  ---------------
    69      0.217337   3 C  py              138      0.154937   7 H  s         
   101      0.152328   4 C  pz                6     -0.144193   1 O  px        
    38     -0.140486   2 C  py               37      0.127686   2 C  px        
     7     -0.125239   1 O  py               72      0.122392   3 C  py        
     9     -0.115102   1 O  px               70     -0.114739   3 C  pz        
 
 Vector   11  Occ=2.000000D+00  E=-3.769237D-01
              MO Center=  9.0D-01, -3.1D-01, -7.3D-01, r^2= 2.7D+00
   Bfn.  Coefficient  Atom+Function         Bfn.  Coefficient  Atom+Function  
  ----- ------------  ---------------      ----- ------------  ---------------
    99      0.210352   4 C  px              144      0.183861   8 H  s         
   100      0.162381   4 C  py              150     -0.139467   9 H  s         
   102      0.134458   4 C  px               37      0.128599   2 C  px        
   143      0.128635   8 H  s                 6     -0.118267   1 O  px        
     7      0.115000   1 O  py              103      0.107579   4 C  py        
 
 Vector   12  Occ=2.000000D+00  E=-3.552488D-01
              MO Center=  6.0D-01, -3.6D-01, -9.0D-01, r^2= 2.8D+00
   Bfn.  Coefficient  Atom+Function         Bfn.  Coefficient  Atom+Function  
  ----- ------------  ---------------      ----- ------------  ---------------
   100      0.257203   4 C  py              150     -0.187147   9 H  s         
   156      0.178142  10 H  s                 7     -0.170238   1 O  py        
   103      0.166853   4 C  py               10     -0.136188   1 O  py        
   149     -0.130248   9 H  s               155      0.126044  10 H  s         
    70      0.109573   3 C  pz              106      0.103897   4 C  py        
 
 Vector   13  Occ=2.000000D+00  E=-3.309585D-01
              MO Center=  3.0D-01,  2.2D-01, -2.5D-01, r^2= 2.8D+00
   Bfn.  Coefficient  Atom+Function         Bfn.  Coefficient  Atom+Function  
  ----- ------------  ---------------      ----- ------------  ---------------
    39     -0.194765   2 C  pz                7      0.191063   1 O  py        
   101      0.171930   4 C  pz               70      0.157852   3 C  pz        
   138     -0.158235   7 H  s                10      0.154643   1 O  py        
    99     -0.154936   4 C  px               42     -0.132164   2 C  pz        
   104      0.121452   4 C  pz                6     -0.114625   1 O  px        
 
 Vector   14  Occ=2.000000D+00  E=-3.211101D-01
              MO Center=  4.4D-01, -1.8D-02, -1.9D-01, r^2= 3.0D+00
   Bfn.  Coefficient  Atom+Function         Bfn.  Coefficient  Atom+Function  
  ----- ------------  ---------------      ----- ------------  ---------------
     7      0.178855   1 O  py              126      0.175405   5 H  s         
    39      0.163334   2 C  pz              156      0.155966  10 H  s         
   101     -0.148048   4 C  pz               10      0.147114   1 O  py        
    99     -0.135031   4 C  px                6     -0.131806   1 O  px        
   132     -0.124386   6 H  s               125      0.119498   5 H  s         
 
 Vector   15  Occ=2.000000D+00  E=-2.623528D-01
              MO Center=  2.1D-02,  1.5D-01,  3.3D-02, r^2= 2.3D+00
   Bfn.  Coefficient  Atom+Function         Bfn.  Coefficient  Atom+Function  
  ----- ------------  ---------------      ----- ------------  ---------------
    68      0.266168   3 C  px               38      0.257383   2 C  py        
     6     -0.234223   1 O  px               41      0.200255   2 C  py        
    71      0.198161   3 C  px                9     -0.183058   1 O  px        
    12     -0.156174   1 O  px              150      0.115833   9 H  s         
   100     -0.112274   4 C  py                7     -0.105921   1 O  py        
 
 Vector   16  Occ=2.000000D+00  E=-2.203434D-01
              MO Center= -5.7D-01, -2.2D-02,  2.0D-01, r^2= 1.6D+00
   Bfn.  Coefficient  Atom+Function         Bfn.  Coefficient  Atom+Function  
  ----- ------------  ---------------      ----- ------------  ---------------
     8      0.449235   1 O  pz               11      0.357930   1 O  pz        
    14      0.295917   1 O  pz              133     -0.127902   6 H  s         
   139      0.118042   7 H  s               132     -0.105421   6 H  s         
   138      0.103727   7 H  s               145     -0.102765   8 H  s         
   126     -0.096727   5 H  s                98      0.095422   4 C  s         
 
 Vector   17  Occ=0.000000D+00  E= 2.584273D-02
              MO Center=  1.2D+00, -1.2D-01, -6.1D-01, r^2= 7.3D+00
   Bfn.  Coefficient  Atom+Function         Bfn.  Coefficient  Atom+Function  
  ----- ------------  ---------------      ----- ------------  ---------------
    98      4.491571   4 C  s               151     -1.523722   9 H  s         
   145     -1.514999   8 H  s               157     -1.349834  10 H  s         
   127     -1.249062   5 H  s                45      1.131668   2 C  pz        
   139     -0.884082   7 H  s                67      0.705709   3 C  s         
   133     -0.617064   6 H  s                75      0.346359   3 C  py        
 
 Vector   18  Occ=0.000000D+00  E= 4.325858D-02
              MO Center= -1.2D-01,  6.8D-01,  1.1D-01, r^2= 4.5D+00
   Bfn.  Coefficient  Atom+Function         Bfn.  Coefficient  Atom+Function  
  ----- ------------  ---------------      ----- ------------  ---------------
    98     -2.028438   4 C  s                36      1.865932   2 C  s         
     5     -1.304289   1 O  s                74     -0.930742   3 C  px        
   151      0.795018   9 H  s                45     -0.486227   2 C  pz        
    13     -0.441953   1 O  py               44      0.387013   2 C  py        
    66      0.362433   3 C  s                75     -0.355502   3 C  py        
 
 Vector   19  Occ=0.000000D+00  E= 5.029312D-02
              MO Center=  4.3D-01,  3.6D-01, -1.3D-01, r^2= 6.7D+00
   Bfn.  Coefficient  Atom+Function         Bfn.  Coefficient  Atom+Function  
  ----- ------------  ---------------      ----- ------------  ---------------
    36      2.928555   2 C  s                67     -2.136390   3 C  s         
   127     -1.960946   5 H  s               139      1.560776   7 H  s         
    98     -1.319765   4 C  s               157      1.100743  10 H  s         
    76      0.634121   3 C  pz               43      0.531047   2 C  px        
    45      0.406752   2 C  pz               74     -0.390003   3 C  px        
 
 Vector   20  Occ=0.000000D+00  E= 5.073122D-02
              MO Center=  5.2D-01,  7.0D-01,  3.8D-01, r^2= 7.4D+00
   Bfn.  Coefficient  Atom+Function         Bfn.  Coefficient  Atom+Function  
  ----- ------------  ---------------      ----- ------------  ---------------
    98     -3.201920   4 C  s                67      3.180367   3 C  s         
   133     -1.842254   6 H  s               145      1.250217   8 H  s         
    44     -1.146857   2 C  py              157      0.872603  10 H  s         
   127     -0.800217   5 H  s               151      0.700342   9 H  s         
   139     -0.649054   7 H  s                43      0.570712   2 C  px        
 
 Vector   21  Occ=0.000000D+00  E= 6.568328D-02
              MO Center=  2.8D-01,  7.9D-02, -1.3D-01, r^2= 4.8D+00
   Bfn.  Coefficient  Atom+Function         Bfn.  Coefficient  Atom+Function  
  ----- ------------  ---------------      ----- ------------  ---------------
    98      1.202890   4 C  s               139      1.187039   7 H  s         
   151     -0.968596   9 H  s                67     -0.925641   3 C  s         
     5     -0.909883   1 O  s                43     -0.818674   2 C  px        
   133      0.614416   6 H  s                75     -0.578036   3 C  py        
    12     -0.492691   1 O  px              127     -0.444634   5 H  s         
 
 Vector   22  Occ=0.000000D+00  E= 8.624189D-02
              MO Center=  1.3D+00,  1.7D-01, -5.6D-01, r^2= 7.0D+00
   Bfn.  Coefficient  Atom+Function         Bfn.  Coefficient  Atom+Function  
  ----- ------------  ---------------      ----- ------------  ---------------
    36      2.819780   2 C  s               145      2.090100   8 H  s         
    67     -1.461429   3 C  s               157     -1.323146  10 H  s         
   127     -1.235498   5 H  s               133      1.118785   6 H  s         
   107     -1.092541   4 C  pz              105     -1.080199   4 C  px        
    98     -0.931165   4 C  s                75      0.809227   3 C  py        
 
 Vector   23  Occ=0.000000D+00  E= 9.218918D-02
              MO Center=  1.1D+00, -6.8D-01, -5.4D-01, r^2= 6.6D+00
   Bfn.  Coefficient  Atom+Function         Bfn.  Coefficient  Atom+Function  
  ----- ------------  ---------------      ----- ------------  ---------------
    36      2.615217   2 C  s               151      2.128624   9 H  s         
   145     -1.445622   8 H  s                98     -1.250038   4 C  s         
   106      1.212124   4 C  py               67     -0.998711   3 C  s         
   105      0.990583   4 C  px              133      0.933327   6 H  s         
   127     -0.908389   5 H  s               107     -0.760494   4 C  pz        
 
 Vector   24  Occ=0.000000D+00  E= 1.021864D-01
              MO Center=  4.0D-01,  5.2D-01, -1.0D+00, r^2= 6.9D+00
   Bfn.  Coefficient  Atom+Function         Bfn.  Coefficient  Atom+Function  
  ----- ------------  ---------------      ----- ------------  ---------------
   157      1.999113  10 H  s               133      1.678018   6 H  s         
   139     -1.539860   7 H  s                98     -1.515013   4 C  s         
    36      1.493554   2 C  s               106     -1.366342   4 C  py        
   151     -1.247207   9 H  s                76     -1.196122   3 C  pz        
   105      1.052517   4 C  px               45     -0.509775   2 C  pz        
 
 Vector   25  Occ=0.000000D+00  E= 1.389204D-01
              MO Center=  8.3D-01,  1.8D-01, -4.5D-01, r^2= 7.8D+00
   Bfn.  Coefficient  Atom+Function         Bfn.  Coefficient  Atom+Function  
  ----- ------------  ---------------      ----- ------------  ---------------
    36      4.621252   2 C  s                98     -3.596051   4 C  s         
    45     -3.433527   2 C  pz              127      2.739567   5 H  s         
    67     -2.689971   3 C  s               105      2.140991   4 C  px        
    76      2.130256   3 C  pz              133     -1.754989   6 H  s         
   139      1.665769   7 H  s               107     -1.575547   4 C  pz        
 
 Vector   26  Occ=0.000000D+00  E= 1.705066D-01
              MO Center=  4.4D-01,  5.6D-01, -1.6D-01, r^2= 7.3D+00
   Bfn.  Coefficient  Atom+Function         Bfn.  Coefficient  Atom+Function  
  ----- ------------  ---------------      ----- ------------  ---------------
    75      2.349561   3 C  py              107      1.628844   4 C  pz        
    36      1.586010   2 C  s                67     -1.569248   3 C  s         
   139     -1.213165   7 H  s               157      1.075470  10 H  s         
    74     -0.975659   3 C  px               44      0.764255   2 C  py        
    43     -0.630813   2 C  px              106     -0.601963   4 C  py        
 
 Vector   27  Occ=0.000000D+00  E= 1.969185D-01
              MO Center=  8.5D-01, -8.3D-02, -9.5D-01, r^2= 5.2D+00
   Bfn.  Coefficient  Atom+Function         Bfn.  Coefficient  Atom+Function  
  ----- ------------  ---------------      ----- ------------  ---------------
    67      3.069772   3 C  s                44     -2.604822   2 C  py        
   106      1.973143   4 C  py               36     -1.540764   2 C  s         
    43      1.066857   2 C  px               45     -0.707537   2 C  pz        
    74      0.676178   3 C  px              157     -0.661030  10 H  s         
   105      0.640617   4 C  px              150      0.642487   9 H  s         
 
 Vector   28  Occ=0.000000D+00  E= 2.024088D-01
              MO Center=  9.3D-01, -4.5D-01, -6.9D-01, r^2= 6.6D+00
   Bfn.  Coefficient  Atom+Function         Bfn.  Coefficient  Atom+Function  
  ----- ------------  ---------------      ----- ------------  ---------------
    36      2.684107   2 C  s                75      1.714067   3 C  py        
   105     -1.474272   4 C  px              133     -1.219564   6 H  s         
   107     -0.834842   4 C  pz               45      0.827863   2 C  pz        
   139     -0.770197   7 H  s               106      0.728415   4 C  py        
   156     -0.717828  10 H  s                76      0.673346   3 C  pz        
 
 Vector   29  Occ=0.000000D+00  E= 2.367568D-01
              MO Center= -3.3D-01,  4.0D-01, -3.8D-02, r^2= 5.4D+00
   Bfn.  Coefficient  Atom+Function         Bfn.  Coefficient  Atom+Function  
  ----- ------------  ---------------      ----- ------------  ---------------
    67      4.831644   3 C  s                36     -3.285792   2 C  s         
    66     -1.464776   3 C  s               139     -1.470888   7 H  s         
   133     -1.263531   6 H  s                98      1.223422   4 C  s         
   107      0.862379   4 C  pz               74     -0.751614   3 C  px        
   106      0.752194   4 C  py                5     -0.734438   1 O  s         
 
 Vector   30  Occ=0.000000D+00  E= 2.480497D-01
              MO Center=  5.8D-01, -2.1D-02, -1.3D-01, r^2= 5.8D+00
   Bfn.  Coefficient  Atom+Function         Bfn.  Coefficient  Atom+Function  
  ----- ------------  ---------------      ----- ------------  ---------------
    67      5.715763   3 C  s                43      4.199550   2 C  px        
    75     -2.982617   3 C  py               44     -2.541448   2 C  py        
    36     -2.066657   2 C  s               107     -2.060753   4 C  pz        
   157     -1.858428  10 H  s                45     -1.466887   2 C  pz        
    98     -1.330937   4 C  s               105     -1.304846   4 C  px        
 
 Vector   31  Occ=0.000000D+00  E= 2.693439D-01
              MO Center=  2.5D-01, -2.0D-01,  2.4D-01, r^2= 5.6D+00
   Bfn.  Coefficient  Atom+Function         Bfn.  Coefficient  Atom+Function  
  ----- ------------  ---------------      ----- ------------  ---------------
    36      4.451646   2 C  s                 5     -2.353534   1 O  s         
    67      2.259040   3 C  s                43     -1.565019   2 C  px        
   105      1.522074   4 C  px               98     -1.189175   4 C  s         
    66     -1.164224   3 C  s               139     -0.902262   7 H  s         
   133     -0.894314   6 H  s               127     -0.878839   5 H  s         
 
 Vector   32  Occ=0.000000D+00  E= 2.796801D-01
              MO Center=  4.3D-01,  4.2D-01,  3.0D-01, r^2= 4.1D+00
   Bfn.  Coefficient  Atom+Function         Bfn.  Coefficient  Atom+Function  
  ----- ------------  ---------------      ----- ------------  ---------------
    36      2.129677   2 C  s                67     -1.573677   3 C  s         
     5     -1.556487   1 O  s                43     -0.975579   2 C  px        
    74     -0.781784   3 C  px               98     -0.741186   4 C  s         
    45     -0.635452   2 C  pz              145      0.592669   8 H  s         
    66      0.502099   3 C  s                 4      0.493076   1 O  s         
 
 Vector   33  Occ=0.000000D+00  E= 3.010433D-01
              MO Center=  4.4D-01,  3.3D-01, -3.8D-01, r^2= 4.9D+00
   Bfn.  Coefficient  Atom+Function         Bfn.  Coefficient  Atom+Function  
  ----- ------------  ---------------      ----- ------------  ---------------
    43      1.943617   2 C  px               98     -1.775978   4 C  s         
   106      1.642800   4 C  py              151      1.648228   9 H  s         
    76      1.331431   3 C  pz               36     -1.236608   2 C  s         
    44     -1.193829   2 C  py               66      1.025071   3 C  s         
   107     -1.006522   4 C  pz              139      0.938475   7 H  s         
 
 Vector   34  Occ=0.000000D+00  E= 3.371015D-01
              MO Center=  1.0D-01,  4.2D-01, -3.9D-01, r^2= 5.8D+00
   Bfn.  Coefficient  Atom+Function         Bfn.  Coefficient  Atom+Function  
  ----- ------------  ---------------      ----- ------------  ---------------
    67      4.300771   3 C  s                76     -3.959731   3 C  pz        
   139     -3.118112   7 H  s                36     -2.125119   2 C  s         
   133      2.043021   6 H  s               107     -1.802195   4 C  pz        
   157     -1.742999  10 H  s                43      1.409074   2 C  px        
    98      1.288676   4 C  s                44     -1.117438   2 C  py        
 
 Vector   35  Occ=0.000000D+00  E= 3.630077D-01
              MO Center=  7.8D-01, -1.9D-02, -3.6D-01, r^2= 6.7D+00
   Bfn.  Coefficient  Atom+Function         Bfn.  Coefficient  Atom+Function  
  ----- ------------  ---------------      ----- ------------  ---------------
    98      7.502790   4 C  s                76      3.206852   3 C  pz        
   145     -3.221739   8 H  s                97     -3.091788   4 C  s         
   133     -2.239379   6 H  s                36      1.989653   2 C  s         
   151     -1.901677   9 H  s                67     -1.769085   3 C  s         
   139      1.680370   7 H  s                44      1.582289   2 C  py        
 
 Vector   36  Occ=0.000000D+00  E= 3.718826D-01
              MO Center=  5.1D-01,  2.5D-01, -1.4D-01, r^2= 6.5D+00
   Bfn.  Coefficient  Atom+Function         Bfn.  Coefficient  Atom+Function  
  ----- ------------  ---------------      ----- ------------  ---------------
    36     11.959527   2 C  s                98     -8.794947   4 C  s         
    67     -8.019255   3 C  s               127     -3.031772   5 H  s         
    97      2.614886   4 C  s               157      2.292165  10 H  s         
    44      1.906406   2 C  py              151      1.871808   9 H  s         
    35     -1.751433   2 C  s                74     -1.558901   3 C  px        
 
 Vector   37  Occ=0.000000D+00  E= 3.849569D-01
              MO Center=  8.6D-01, -3.6D-01, -5.1D-02, r^2= 6.1D+00
   Bfn.  Coefficient  Atom+Function         Bfn.  Coefficient  Atom+Function  
  ----- ------------  ---------------      ----- ------------  ---------------
    36      6.398802   2 C  s               127     -4.312109   5 H  s         
    98      3.820724   4 C  s                45      3.135458   2 C  pz        
    67     -2.775887   3 C  s                35     -2.295062   2 C  s         
   151     -2.238767   9 H  s                76     -2.206932   3 C  pz        
   145     -1.818403   8 H  s               133      1.801318   6 H  s         
 
 Vector   38  Occ=0.000000D+00  E= 3.936861D-01
              MO Center=  1.1D-01,  6.0D-02, -2.2D-01, r^2= 6.4D+00
   Bfn.  Coefficient  Atom+Function         Bfn.  Coefficient  Atom+Function  
  ----- ------------  ---------------      ----- ------------  ---------------
    98     12.914582   4 C  s                45      5.752143   2 C  pz        
    67     -4.310371   3 C  s                36     -3.647615   2 C  s         
    76     -3.135196   3 C  pz              157     -2.829492  10 H  s         
   133      2.213724   6 H  s                44      1.905762   2 C  py        
   107      1.783310   4 C  pz               75      1.753126   3 C  py        
 
 Vector   39  Occ=0.000000D+00  E= 4.001898D-01
              MO Center= -1.2D-01,  3.1D-01,  3.0D-01, r^2= 6.6D+00
   Bfn.  Coefficient  Atom+Function         Bfn.  Coefficient  Atom+Function  
  ----- ------------  ---------------      ----- ------------  ---------------
    67    -13.269192   3 C  s                36     12.084033   2 C  s         
    44      4.258009   2 C  py               45     -4.263443   2 C  pz        
    98     -3.643356   4 C  s                66      2.791063   3 C  s         
    43     -2.731111   2 C  px              127      2.644262   5 H  s         
   133      2.346946   6 H  s               105      2.201758   4 C  px        
 
 Vector   40  Occ=0.000000D+00  E= 4.155519D-01
              MO Center=  8.7D-01, -3.7D-01, -8.5D-01, r^2= 5.8D+00
   Bfn.  Coefficient  Atom+Function         Bfn.  Coefficient  Atom+Function  
  ----- ------------  ---------------      ----- ------------  ---------------
    98      6.757767   4 C  s                36     -3.274735   2 C  s         
    45      3.039755   2 C  pz              105     -2.666885   4 C  px        
   151     -2.361638   9 H  s               145      1.966944   8 H  s         
   157     -1.962487  10 H  s                97     -1.038495   4 C  s         
   144     -1.009936   8 H  s               127     -0.957352   5 H  s         
 
 Vector   41  Occ=0.000000D+00  E= 4.273832D-01
              MO Center=  4.4D-01,  2.1D-01, -1.6D-01, r^2= 6.8D+00
   Bfn.  Coefficient  Atom+Function         Bfn.  Coefficient  Atom+Function  
  ----- ------------  ---------------      ----- ------------  ---------------
    36      9.486153   2 C  s                67     -4.701489   3 C  s         
    98     -4.348490   4 C  s                75      2.635935   3 C  py        
    44      2.583542   2 C  py              151      2.453159   9 H  s         
    43     -1.723500   2 C  px               74     -1.468670   3 C  px        
    45     -1.421289   2 C  pz              132      1.288836   6 H  s         
 
 Vector   42  Occ=0.000000D+00  E= 4.473785D-01
              MO Center=  1.1D-01, -1.0D-01, -9.0D-02, r^2= 6.1D+00
   Bfn.  Coefficient  Atom+Function         Bfn.  Coefficient  Atom+Function  
  ----- ------------  ---------------      ----- ------------  ---------------
    36      9.333196   2 C  s                98     -8.973662   4 C  s         
    45     -5.707224   2 C  pz              127      3.061452   5 H  s         
    67     -2.779881   3 C  s                76      2.784529   3 C  pz        
   133     -2.203618   6 H  s                44      2.177898   2 C  py        
   157      2.137980  10 H  s               106     -1.927358   4 C  py        
 
 Vector   43  Occ=0.000000D+00  E= 4.594223D-01
              MO Center=  1.3D-01,  7.5D-01, -6.0D-01, r^2= 5.2D+00
   Bfn.  Coefficient  Atom+Function         Bfn.  Coefficient  Atom+Function  
  ----- ------------  ---------------      ----- ------------  ---------------
   139      3.160662   7 H  s               157     -2.534590  10 H  s         
   107     -2.309023   4 C  pz               75     -2.215163   3 C  py        
    43      1.698616   2 C  px               44     -1.661861   2 C  py        
    45     -1.544925   2 C  pz              138     -1.384063   7 H  s         
    76      0.941564   3 C  pz               74      0.798481   3 C  px        
 
 Vector   44  Occ=0.000000D+00  E= 4.694660D-01
              MO Center=  4.2D-01,  2.0D-01,  2.9D-02, r^2= 5.7D+00
   Bfn.  Coefficient  Atom+Function         Bfn.  Coefficient  Atom+Function  
  ----- ------------  ---------------      ----- ------------  ---------------
    98     -5.369430   4 C  s                36      4.887291   2 C  s         
    45     -2.340196   2 C  pz              145      1.765999   8 H  s         
   107     -1.535906   4 C  pz              133      1.402404   6 H  s         
    67     -1.340395   3 C  s                35     -1.329908   2 C  s         
   132     -1.163703   6 H  s               126      1.066391   5 H  s         
 
 Vector   45  Occ=0.000000D+00  E= 5.083882D-01
              MO Center=  9.5D-01, -4.0D-01, -9.7D-01, r^2= 4.7D+00
   Bfn.  Coefficient  Atom+Function         Bfn.  Coefficient  Atom+Function  
  ----- ------------  ---------------      ----- ------------  ---------------
    98     11.884142   4 C  s                36     -8.107498   2 C  s         
    45      4.805233   2 C  pz              107      3.140741   4 C  pz        
   106      1.317817   4 C  py              144     -1.315227   8 H  s         
   156     -1.271255  10 H  s               127     -1.212148   5 H  s         
   105     -1.150604   4 C  px              150     -1.141677   9 H  s         
 
 Vector   46  Occ=0.000000D+00  E= 5.352011D-01
              MO Center=  4.5D-02, -3.8D-01, -4.7D-01, r^2= 4.3D+00
   Bfn.  Coefficient  Atom+Function         Bfn.  Coefficient  Atom+Function  
  ----- ------------  ---------------      ----- ------------  ---------------
    36      6.232173   2 C  s                98     -6.234646   4 C  s         
    45     -3.223888   2 C  pz               76      3.169385   3 C  pz        
   133     -1.777572   6 H  s               105      1.465289   4 C  px        
   139      1.462461   7 H  s               107     -1.255207   4 C  pz        
    14     -1.219474   1 O  pz                5     -1.107030   1 O  s         
 
 Vector   47  Occ=0.000000D+00  E= 6.566482D-01
              MO Center= -4.1D-01,  4.9D-02, -1.2D-02, r^2= 4.3D+00
   Bfn.  Coefficient  Atom+Function         Bfn.  Coefficient  Atom+Function  
  ----- ------------  ---------------      ----- ------------  ---------------
    36     11.773333   2 C  s                67     -9.205560   3 C  s         
    98     -4.108950   4 C  s                43     -2.633897   2 C  px        
    75      2.482731   3 C  py               13      2.288307   1 O  py        
    76      1.927636   3 C  pz              105      1.615684   4 C  px        
    44      1.529064   2 C  py              139      1.463921   7 H  s         
 
 Vector   48  Occ=0.000000D+00  E= 6.746071D-01
              MO Center= -2.7D-01,  3.6D-01,  1.3D-01, r^2= 3.9D+00
   Bfn.  Coefficient  Atom+Function         Bfn.  Coefficient  Atom+Function  
  ----- ------------  ---------------      ----- ------------  ---------------
    36      7.901760   2 C  s                67     -7.640081   3 C  s         
     5      2.987501   1 O  s                75      2.513958   3 C  py        
    98     -2.174939   4 C  s                13      2.055062   1 O  py        
    45     -1.230548   2 C  pz               43     -1.177372   2 C  px        
     4     -1.100489   1 O  s                44      0.942479   2 C  py        
 
 Vector   49  Occ=0.000000D+00  E= 7.107846D-01
              MO Center=  1.7D-01, -3.3D-01, -2.8D-01, r^2= 4.5D+00
   Bfn.  Coefficient  Atom+Function         Bfn.  Coefficient  Atom+Function  
  ----- ------------  ---------------      ----- ------------  ---------------
    67      9.390097   3 C  s                36     -7.248514   2 C  s         
    43      3.629401   2 C  px               44     -3.422202   2 C  py        
    75     -2.797093   3 C  py               98     -2.712880   4 C  s         
     5      2.297137   1 O  s                12      1.697523   1 O  px        
   106      1.607307   4 C  py               13     -1.306678   1 O  py        
 
 Vector   50  Occ=0.000000D+00  E= 7.601843D-01
              MO Center=  6.5D-01, -3.5D-02, -3.5D-01, r^2= 4.0D+00
   Bfn.  Coefficient  Atom+Function         Bfn.  Coefficient  Atom+Function  
  ----- ------------  ---------------      ----- ------------  ---------------
    45      2.401878   2 C  pz              105     -1.711524   4 C  px        
   127     -1.701609   5 H  s                43      1.516610   2 C  px        
    36      1.409189   2 C  s                 5     -1.354092   1 O  s         
   126     -1.350319   5 H  s               144      1.271686   8 H  s         
    66      1.032555   3 C  s               156     -0.844771  10 H  s         
 
 Vector   51  Occ=0.000000D+00  E= 7.953484D-01
              MO Center=  2.9D-01,  6.2D-02, -1.9D-01, r^2= 4.4D+00
   Bfn.  Coefficient  Atom+Function         Bfn.  Coefficient  Atom+Function  
  ----- ------------  ---------------      ----- ------------  ---------------
     5      4.122219   1 O  s                76     -2.563153   3 C  pz        
    36     -2.531717   2 C  s                45      1.613535   2 C  pz        
     4     -1.593707   1 O  s               133      1.352111   6 H  s         
    12      1.329113   1 O  px               43      1.208101   2 C  px        
    35     -1.055135   2 C  s                66     -1.030397   3 C  s         
 
 Vector   52  Occ=0.000000D+00  E= 8.319630D-01
              MO Center=  3.1D-01,  1.6D-01,  4.1D-03, r^2= 4.4D+00
   Bfn.  Coefficient  Atom+Function         Bfn.  Coefficient  Atom+Function  
  ----- ------------  ---------------      ----- ------------  ---------------
    36      6.538965   2 C  s                98     -4.067171   4 C  s         
     5     -4.017469   1 O  s                43     -2.542554   2 C  px        
   105      1.964936   4 C  px               35     -1.769080   2 C  s         
    45     -1.718690   2 C  pz               44      1.416985   2 C  py        
    66     -1.168076   3 C  s                97      1.093620   4 C  s         
 
 Vector   53  Occ=0.000000D+00  E= 8.555098D-01
              MO Center=  6.0D-01,  1.2D-01, -4.1D-01, r^2= 4.2D+00
   Bfn.  Coefficient  Atom+Function         Bfn.  Coefficient  Atom+Function  
  ----- ------------  ---------------      ----- ------------  ---------------
    36      4.830610   2 C  s                98     -4.724856   4 C  s         
    45     -4.619343   2 C  pz               76      2.052378   3 C  pz        
   127      1.770818   5 H  s               106     -1.526481   4 C  py        
    44      1.448382   2 C  py              105      1.425880   4 C  px        
     5     -1.314852   1 O  s               150     -1.214850   9 H  s         
 
 Vector   54  Occ=0.000000D+00  E= 8.722002D-01
              MO Center=  1.7D-01, -2.4D-02, -1.1D-01, r^2= 4.2D+00
   Bfn.  Coefficient  Atom+Function         Bfn.  Coefficient  Atom+Function  
  ----- ------------  ---------------      ----- ------------  ---------------
     5      4.550091   1 O  s                36     -1.624850   2 C  s         
     4     -1.540266   1 O  s               138      1.411208   7 H  s         
    76      1.346111   3 C  pz               12      1.195076   1 O  px        
    67     -1.185344   3 C  s                66     -1.161943   3 C  s         
    98     -1.161231   4 C  s                43      0.862456   2 C  px        
 
 Vector   55  Occ=0.000000D+00  E= 9.210172D-01
              MO Center=  5.1D-01,  3.1D-01, -4.9D-01, r^2= 4.5D+00
   Bfn.  Coefficient  Atom+Function         Bfn.  Coefficient  Atom+Function  
  ----- ------------  ---------------      ----- ------------  ---------------
    35      4.935063   2 C  s                36     -1.631846   2 C  s         
    67      1.406892   3 C  s               132     -1.382205   6 H  s         
    72      1.298798   3 C  py               66     -1.274516   3 C  s         
   156     -1.200238  10 H  s                84      1.185971   3 C  d  0      
    41      1.172667   2 C  py               98     -1.138417   4 C  s         
 
 Vector   56  Occ=0.000000D+00  E= 9.614569D-01
              MO Center=  4.4D-01,  3.3D-01, -5.0D-01, r^2= 4.7D+00
   Bfn.  Coefficient  Atom+Function         Bfn.  Coefficient  Atom+Function  
  ----- ------------  ---------------      ----- ------------  ---------------
    35      4.177270   2 C  s               138     -2.408478   7 H  s         
    67      2.292526   3 C  s                42     -1.760090   2 C  pz        
    76     -1.751546   3 C  pz               83     -1.686079   3 C  d -1      
    98     -1.519727   4 C  s               115     -1.433857   4 C  d  0      
   132      1.386950   6 H  s               107     -1.299396   4 C  pz        
 
 Vector   57  Occ=0.000000D+00  E= 9.916584D-01
              MO Center=  3.5D-01,  4.6D-01, -1.6D-01, r^2= 4.1D+00
   Bfn.  Coefficient  Atom+Function         Bfn.  Coefficient  Atom+Function  
  ----- ------------  ---------------      ----- ------------  ---------------
    36      7.472906   2 C  s                98     -4.762908   4 C  s         
    67     -4.015851   3 C  s                45     -3.765863   2 C  pz        
    43     -2.392628   2 C  px               44      2.143618   2 C  py        
    66     -1.585395   3 C  s               127      1.584186   5 H  s         
    35     -1.512328   2 C  s                75      1.469085   3 C  py        
 
 Vector   58  Occ=0.000000D+00  E= 1.013504D+00
              MO Center=  3.7D-01,  5.4D-01, -5.2D-02, r^2= 4.3D+00
   Bfn.  Coefficient  Atom+Function         Bfn.  Coefficient  Atom+Function  
  ----- ------------  ---------------      ----- ------------  ---------------
    36      5.509881   2 C  s                67     -4.509966   3 C  s         
    45     -2.155395   2 C  pz               44      1.879289   2 C  py        
    98     -1.711599   4 C  s               156     -1.444302  10 H  s         
    43     -1.355829   2 C  px               82      1.344586   3 C  d -2      
   144      1.342792   8 H  s                74     -1.333486   3 C  px        
 
 Vector   59  Occ=0.000000D+00  E= 1.041641D+00
              MO Center=  7.1D-01, -1.8D-01, -4.7D-01, r^2= 4.2D+00
   Bfn.  Coefficient  Atom+Function         Bfn.  Coefficient  Atom+Function  
  ----- ------------  ---------------      ----- ------------  ---------------
    36      2.849556   2 C  s                35      2.751220   2 C  s         
    66     -2.256626   3 C  s                 5     -1.965062   1 O  s         
   150      1.948146   9 H  s               144     -1.934387   8 H  s         
   117      1.725099   4 C  d  2             41      1.455612   2 C  py        
    44      1.392967   2 C  py               67     -1.390057   3 C  s         
 
 Vector   60  Occ=0.000000D+00  E= 1.078396D+00
              MO Center=  6.6D-01,  3.0D-02, -6.5D-02, r^2= 4.1D+00
   Bfn.  Coefficient  Atom+Function         Bfn.  Coefficient  Atom+Function  
  ----- ------------  ---------------      ----- ------------  ---------------
    98      3.993202   4 C  s                66     -3.965440   3 C  s         
    45      3.685744   2 C  pz               97      3.698309   4 C  s         
    36     -3.107554   2 C  s                41      2.525690   2 C  py        
   104      2.515081   4 C  pz               42      2.372450   2 C  pz        
    72      2.291681   3 C  py               40     -2.167005   2 C  px        
 
 Vector   61  Occ=0.000000D+00  E= 1.104483D+00
              MO Center=  3.7D-01,  7.5D-02,  7.4D-02, r^2= 3.8D+00
   Bfn.  Coefficient  Atom+Function         Bfn.  Coefficient  Atom+Function  
  ----- ------------  ---------------      ----- ------------  ---------------
    36      7.843708   2 C  s                67     -5.420247   3 C  s         
    98     -3.161223   4 C  s                66      2.379298   3 C  s         
    45     -2.105413   2 C  pz              126     -2.054634   5 H  s         
    72     -1.730457   3 C  py              132      1.718603   6 H  s         
    41     -1.603037   2 C  py               53      1.590969   2 C  d  0      
 
 Vector   62  Occ=0.000000D+00  E= 1.147692D+00
              MO Center=  6.4D-01, -1.5D-02, -4.4D-02, r^2= 3.5D+00
   Bfn.  Coefficient  Atom+Function         Bfn.  Coefficient  Atom+Function  
  ----- ------------  ---------------      ----- ------------  ---------------
    67      5.072653   3 C  s                36     -3.924250   2 C  s         
    44     -2.378498   2 C  py              126      1.727258   5 H  s         
    97     -1.677865   4 C  s                54      1.551770   2 C  d  1      
    43      1.540525   2 C  px               55      1.529760   2 C  d  2      
    75     -1.463386   3 C  py               42     -1.402761   2 C  pz        
 
 Vector   63  Occ=0.000000D+00  E= 1.215283D+00
              MO Center=  5.5D-01,  2.1D-01, -1.5D-01, r^2= 3.8D+00
   Bfn.  Coefficient  Atom+Function         Bfn.  Coefficient  Atom+Function  
  ----- ------------  ---------------      ----- ------------  ---------------
    36      6.758029   2 C  s                66     -5.042706   3 C  s         
    97     -3.415212   4 C  s                67     -3.246124   3 C  s         
    35      3.110704   2 C  s                72      1.919218   3 C  py        
    51     -1.757044   2 C  d -2             52      1.688763   2 C  d -1      
   138      1.687810   7 H  s                41      1.508187   2 C  py        
 
 Vector   64  Occ=0.000000D+00  E= 1.348603D+00
              MO Center=  3.4D-01,  5.4D-01,  2.1D-01, r^2= 3.6D+00
   Bfn.  Coefficient  Atom+Function         Bfn.  Coefficient  Atom+Function  
  ----- ------------  ---------------      ----- ------------  ---------------
    66      4.656924   3 C  s                35      3.912539   2 C  s         
    67     -3.131025   3 C  s                36     -2.690688   2 C  s         
    65     -2.410932   3 C  s               132     -2.003808   6 H  s         
    34     -1.438133   2 C  s               133      1.425854   6 H  s         
    72      1.399886   3 C  py              139      1.088657   7 H  s         
 
 Vector   65  Occ=0.000000D+00  E= 1.413869D+00
              MO Center=  1.7D-01,  5.0D-01, -5.1D-02, r^2= 3.4D+00
   Bfn.  Coefficient  Atom+Function         Bfn.  Coefficient  Atom+Function  
  ----- ------------  ---------------      ----- ------------  ---------------
    36     -4.048725   2 C  s                35      3.890912   2 C  s         
    66     -3.908329   3 C  s                67      3.705741   3 C  s         
    73      2.275308   3 C  pz              138      2.210746   7 H  s         
   139     -2.137845   7 H  s               126     -1.756153   5 H  s         
    76     -1.610011   3 C  pz               34     -1.574231   2 C  s         
 
 Vector   66  Occ=0.000000D+00  E= 1.432613D+00
              MO Center=  1.0D+00, -4.7D-01, -1.1D+00, r^2= 3.6D+00
   Bfn.  Coefficient  Atom+Function         Bfn.  Coefficient  Atom+Function  
  ----- ------------  ---------------      ----- ------------  ---------------
    98      9.880646   4 C  s                97     -7.420090   4 C  s         
    96      3.001053   4 C  s                36     -2.534721   2 C  s         
   145     -2.341197   8 H  s               151     -2.309323   9 H  s         
   157     -2.037955  10 H  s               144      1.688094   8 H  s         
   150      1.664818   9 H  s               104      1.462312   4 C  pz        
 
 Vector   67  Occ=0.000000D+00  E= 1.442670D+00
              MO Center=  3.9D-01,  2.5D-02, -1.9D-01, r^2= 4.2D+00
   Bfn.  Coefficient  Atom+Function         Bfn.  Coefficient  Atom+Function  
  ----- ------------  ---------------      ----- ------------  ---------------
    66      4.241397   3 C  s                67     -3.039380   3 C  s         
    35     -2.959900   2 C  s                98      2.357616   4 C  s         
    36      2.281872   2 C  s               133      1.897026   6 H  s         
    45      1.745261   2 C  pz               76     -1.706026   3 C  pz        
   127     -1.526308   5 H  s                65     -1.515953   3 C  s         
 
 Vector   68  Occ=0.000000D+00  E= 1.448427D+00
              MO Center=  2.8D-01, -1.4D-02, -1.0D-01, r^2= 3.1D+00
   Bfn.  Coefficient  Atom+Function         Bfn.  Coefficient  Atom+Function  
  ----- ------------  ---------------      ----- ------------  ---------------
    98      5.837320   4 C  s                97     -3.287208   4 C  s         
    36     -2.849074   2 C  s                45      2.138283   2 C  pz        
     5      2.022835   1 O  s                35     -1.596785   2 C  s         
    96      1.381732   4 C  s               127     -1.292622   5 H  s         
    76     -1.038503   3 C  pz               40      1.026375   2 C  px        
 
 Vector   69  Occ=0.000000D+00  E= 1.474146D+00
              MO Center=  8.7D-01, -3.0D-01, -9.4D-01, r^2= 3.7D+00
   Bfn.  Coefficient  Atom+Function         Bfn.  Coefficient  Atom+Function  
  ----- ------------  ---------------      ----- ------------  ---------------
    66      2.804973   3 C  s                67     -1.190735   3 C  s         
    65     -1.155193   3 C  s               102      1.156829   4 C  px        
   133      1.160737   6 H  s               144     -1.098508   8 H  s         
     5     -1.066276   1 O  s               132     -0.932144   6 H  s         
    71     -0.918274   3 C  px              104      0.841791   4 C  pz        
 
 Vector   70  Occ=0.000000D+00  E= 1.477811D+00
              MO Center=  1.1D+00, -3.5D-01, -1.0D+00, r^2= 3.1D+00
   Bfn.  Coefficient  Atom+Function         Bfn.  Coefficient  Atom+Function  
  ----- ------------  ---------------      ----- ------------  ---------------
    36      3.148629   2 C  s               156     -2.656949  10 H  s         
   157      1.998022  10 H  s               103      1.881421   4 C  py        
   102     -1.796189   4 C  px              126      1.802385   5 H  s         
   104     -1.598799   4 C  pz               35     -1.584717   2 C  s         
   127     -1.481987   5 H  s               150      1.260954   9 H  s         
 
 Vector   71  Occ=0.000000D+00  E= 1.513301D+00
              MO Center=  3.4D-01,  1.4D-01, -3.2D-01, r^2= 4.0D+00
   Bfn.  Coefficient  Atom+Function         Bfn.  Coefficient  Atom+Function  
  ----- ------------  ---------------      ----- ------------  ---------------
    98      2.709590   4 C  s               144      1.866984   8 H  s         
   102     -1.516051   4 C  px              103     -1.421961   4 C  py        
   145     -1.411407   8 H  s                97     -1.361561   4 C  s         
    45      1.244839   2 C  pz              150     -1.008543   9 H  s         
    36     -0.827697   2 C  s                66      0.806625   3 C  s         
 
 Vector   72  Occ=0.000000D+00  E= 1.542301D+00
              MO Center=  3.6D-01,  4.5D-01, -2.3D-01, r^2= 4.6D+00
   Bfn.  Coefficient  Atom+Function         Bfn.  Coefficient  Atom+Function  
  ----- ------------  ---------------      ----- ------------  ---------------
    36      4.272443   2 C  s                35     -3.723405   2 C  s         
    98     -3.436900   4 C  s                97      2.986770   4 C  s         
    67     -2.407517   3 C  s                73      2.166757   3 C  pz        
   132     -1.749383   6 H  s               133      1.441663   6 H  s         
   138      1.419414   7 H  s               102     -1.383103   4 C  px        
 
 Vector   73  Occ=0.000000D+00  E= 1.579880D+00
              MO Center=  4.6D-01,  1.2D-02, -3.1D-02, r^2= 3.3D+00
   Bfn.  Coefficient  Atom+Function         Bfn.  Coefficient  Atom+Function  
  ----- ------------  ---------------      ----- ------------  ---------------
    35      3.263930   2 C  s                36     -2.446823   2 C  s         
    40     -2.080656   2 C  px               97     -1.933780   4 C  s         
   126      1.887667   5 H  s                67      1.716761   3 C  s         
    42     -1.534267   2 C  pz               72      1.500400   3 C  py        
    34     -1.375694   2 C  s               127     -1.334394   5 H  s         
 
 Vector   74  Occ=0.000000D+00  E= 1.597238D+00
              MO Center=  3.6D-01,  3.5D-01, -1.7D-01, r^2= 3.4D+00
   Bfn.  Coefficient  Atom+Function         Bfn.  Coefficient  Atom+Function  
  ----- ------------  ---------------      ----- ------------  ---------------
    66     -5.406462   3 C  s                36     -5.368830   2 C  s         
    35      5.048611   2 C  s                67      4.001863   3 C  s         
    41      3.767509   2 C  py               71     -2.526564   3 C  px        
    72      2.457217   3 C  py               40     -2.092386   2 C  px        
    98      1.864498   4 C  s                82      1.658572   3 C  d -2      
 
 Vector   75  Occ=0.000000D+00  E= 1.640471D+00
              MO Center=  4.5D-01,  1.9D-01, -2.2D-02, r^2= 3.7D+00
   Bfn.  Coefficient  Atom+Function         Bfn.  Coefficient  Atom+Function  
  ----- ------------  ---------------      ----- ------------  ---------------
    66      2.576242   3 C  s                35      2.423883   2 C  s         
    98      2.030869   4 C  s                 5     -1.795240   1 O  s         
    97     -1.731291   4 C  s                67     -1.315891   3 C  s         
   144      1.135984   8 H  s               104     -1.102140   4 C  pz        
   103     -1.048036   4 C  py              150     -1.025520   9 H  s         
 
 Vector   76  Occ=0.000000D+00  E= 1.694203D+00
              MO Center=  4.2D-01,  3.2D-01, -3.7D-01, r^2= 4.0D+00
   Bfn.  Coefficient  Atom+Function         Bfn.  Coefficient  Atom+Function  
  ----- ------------  ---------------      ----- ------------  ---------------
    97     -5.898872   4 C  s                35      5.368136   2 C  s         
   104     -3.145307   4 C  pz               42     -3.110985   2 C  pz        
    72     -2.117506   3 C  py                5     -1.854558   1 O  s         
   102      1.791365   4 C  px               34     -1.629686   2 C  s         
    40      1.592216   2 C  px               96      1.570170   4 C  s         
 
 Vector   77  Occ=0.000000D+00  E= 1.698794D+00
              MO Center=  8.8D-02,  8.0D-02, -1.1D-01, r^2= 3.6D+00
   Bfn.  Coefficient  Atom+Function         Bfn.  Coefficient  Atom+Function  
  ----- ------------  ---------------      ----- ------------  ---------------
     5      3.611080   1 O  s                72      2.761701   3 C  py        
    66     -2.278632   3 C  s                36     -2.193258   2 C  s         
   138     -1.507879   7 H  s                12      1.406360   1 O  px        
    41      1.228134   2 C  py               43      1.102686   2 C  px        
    67      0.963100   3 C  s                44     -0.915864   2 C  py        
 
 Vector   78  Occ=0.000000D+00  E= 1.792476D+00
              MO Center=  3.8D-01,  2.9D-01,  1.0D-02, r^2= 3.5D+00
   Bfn.  Coefficient  Atom+Function         Bfn.  Coefficient  Atom+Function  
  ----- ------------  ---------------      ----- ------------  ---------------
    35      3.115396   2 C  s                97     -2.600007   4 C  s         
    36      1.699181   2 C  s                45     -1.293912   2 C  pz        
    72      1.125552   3 C  py              104     -1.046782   4 C  pz        
    42     -0.987484   2 C  pz               67     -0.972092   3 C  s         
   102      0.962138   4 C  px                5     -0.914002   1 O  s         
 
 Vector   79  Occ=0.000000D+00  E= 1.815514D+00
              MO Center= -6.2D-01,  2.0D-01,  1.9D-01, r^2= 2.6D+00
   Bfn.  Coefficient  Atom+Function         Bfn.  Coefficient  Atom+Function  
  ----- ------------  ---------------      ----- ------------  ---------------
    35      4.022005   2 C  s                 5     -3.241642   1 O  s         
    40     -2.455691   2 C  px               41      2.167306   2 C  py        
    72      2.010223   3 C  py               66     -1.837961   3 C  s         
    71     -1.704134   3 C  px               12     -1.353884   1 O  px        
   138     -1.059337   7 H  s               132     -1.031950   6 H  s         
 
 Vector   80  Occ=0.000000D+00  E= 1.843285D+00
              MO Center=  1.6D-01,  1.7D-01, -1.3D-01, r^2= 3.8D+00
   Bfn.  Coefficient  Atom+Function         Bfn.  Coefficient  Atom+Function  
  ----- ------------  ---------------      ----- ------------  ---------------
    35      2.225535   2 C  s                97     -1.015891   4 C  s         
   104     -1.011763   4 C  pz              156     -0.977270  10 H  s         
    36     -0.833393   2 C  s               150      0.741058   9 H  s         
    71     -0.730800   3 C  px              157      0.697468  10 H  s         
   126     -0.690868   5 H  s                41     -0.679632   2 C  py        
 
 Vector   81  Occ=0.000000D+00  E= 1.867303D+00
              MO Center=  4.7D-01,  2.0D-01, -4.1D-01, r^2= 4.0D+00
   Bfn.  Coefficient  Atom+Function         Bfn.  Coefficient  Atom+Function  
  ----- ------------  ---------------      ----- ------------  ---------------
    35      6.368263   2 C  s                66     -4.332138   3 C  s         
    72      3.428547   3 C  py               97     -3.257806   4 C  s         
    36      2.290501   2 C  s               104     -1.812182   4 C  pz        
    67     -1.665154   3 C  s                34     -1.593606   2 C  s         
    41      1.532294   2 C  py               45     -1.381718   2 C  pz        
 
 Vector   82  Occ=0.000000D+00  E= 1.921701D+00
              MO Center=  3.1D-01, -1.4D-01, -3.0D-01, r^2= 3.2D+00
   Bfn.  Coefficient  Atom+Function         Bfn.  Coefficient  Atom+Function  
  ----- ------------  ---------------      ----- ------------  ---------------
    36      1.565918   2 C  s                98     -1.506453   4 C  s         
    35      1.386727   2 C  s                45     -1.341683   2 C  pz        
    97     -1.331885   4 C  s               103     -1.171499   4 C  py        
    66     -1.063377   3 C  s                41      0.830162   2 C  py        
    42     -0.821160   2 C  pz              104     -0.708838   4 C  pz        
 
 Vector   83  Occ=0.000000D+00  E= 1.991958D+00
              MO Center=  9.5D-01, -3.0D-01, -5.6D-01, r^2= 3.4D+00
   Bfn.  Coefficient  Atom+Function         Bfn.  Coefficient  Atom+Function  
  ----- ------------  ---------------      ----- ------------  ---------------
    98      4.422277   4 C  s                35      3.814486   2 C  s         
    66     -2.775022   3 C  s                36     -2.714197   2 C  s         
    40     -2.041141   2 C  px               72      1.922139   3 C  py        
    41      1.782639   2 C  py               43     -1.392147   2 C  px        
   107      1.388249   4 C  pz               71     -1.273963   3 C  px        
 
 Vector   84  Occ=0.000000D+00  E= 1.998731D+00
              MO Center=  4.9D-01, -2.3D-02, -5.1D-01, r^2= 3.4D+00
   Bfn.  Coefficient  Atom+Function         Bfn.  Coefficient  Atom+Function  
  ----- ------------  ---------------      ----- ------------  ---------------
    36      3.924147   2 C  s                98     -2.914478   4 C  s         
    45     -1.945339   2 C  pz               67     -1.901200   3 C  s         
    35     -1.167649   2 C  s                 5     -1.084580   1 O  s         
    40     -1.068298   2 C  px              156      0.945879  10 H  s         
   104      0.933478   4 C  pz               44      0.788884   2 C  py        
 
 Vector   85  Occ=0.000000D+00  E= 2.088133D+00
              MO Center= -1.1D-01,  1.6D-01,  2.7D-02, r^2= 3.4D+00
   Bfn.  Coefficient  Atom+Function         Bfn.  Coefficient  Atom+Function  
  ----- ------------  ---------------      ----- ------------  ---------------
    36      3.740801   2 C  s                98     -2.243923   4 C  s         
    67     -2.027317   3 C  s                35     -1.437787   2 C  s         
    66      0.971732   3 C  s                71      0.896125   3 C  px        
    13      0.831749   1 O  py              138     -0.698556   7 H  s         
   156      0.630418  10 H  s               144      0.607302   8 H  s         
 
 Vector   86  Occ=0.000000D+00  E= 2.096664D+00
              MO Center= -2.9D-01,  4.9D-02, -1.2D-02, r^2= 3.1D+00
   Bfn.  Coefficient  Atom+Function         Bfn.  Coefficient  Atom+Function  
  ----- ------------  ---------------      ----- ------------  ---------------
    67     -5.177379   3 C  s                36      4.787748   2 C  s         
    66      3.070840   3 C  s                35     -2.966798   2 C  s         
    41     -2.951975   2 C  py               71      2.580810   3 C  px        
    13      1.700998   1 O  py               82     -1.373574   3 C  d -2      
    55      1.279834   2 C  d  2             75      1.283362   3 C  py        
 
 Vector   87  Occ=0.000000D+00  E= 2.165288D+00
              MO Center=  5.2D-01,  2.6D-03, -4.8D-01, r^2= 3.2D+00
   Bfn.  Coefficient  Atom+Function         Bfn.  Coefficient  Atom+Function  
  ----- ------------  ---------------      ----- ------------  ---------------
    98     -2.050888   4 C  s                67      1.979831   3 C  s         
    35      1.341017   2 C  s                36     -1.043389   2 C  s         
    73     -1.023770   3 C  pz              156      0.889489  10 H  s         
    44     -0.868143   2 C  py               43      0.863633   2 C  px        
    40     -0.851221   2 C  px               42      0.792110   2 C  pz        
 
 Vector   88  Occ=0.000000D+00  E= 2.196640D+00
              MO Center=  4.2D-01,  2.3D-01, -2.7D-01, r^2= 3.7D+00
   Bfn.  Coefficient  Atom+Function         Bfn.  Coefficient  Atom+Function  
  ----- ------------  ---------------      ----- ------------  ---------------
    98      2.122182   4 C  s                36     -1.406691   2 C  s         
    45      1.035240   2 C  pz               76     -0.931008   3 C  pz        
   132      0.783434   6 H  s               117     -0.634643   4 C  d  2      
   103     -0.615627   4 C  py               42     -0.611631   2 C  pz        
    97     -0.606733   4 C  s               138     -0.569295   7 H  s         
 
 Vector   89  Occ=0.000000D+00  E= 2.232725D+00
              MO Center=  8.3D-01, -1.2D-01, -3.3D-01, r^2= 3.6D+00
   Bfn.  Coefficient  Atom+Function         Bfn.  Coefficient  Atom+Function  
  ----- ------------  ---------------      ----- ------------  ---------------
    36      3.117753   2 C  s                67     -1.732182   3 C  s         
    98     -1.152774   4 C  s                42     -1.043544   2 C  pz        
     5     -1.000917   1 O  s               150      0.875719   9 H  s         
    43     -0.758745   2 C  px               72     -0.732740   3 C  py        
    45     -0.664819   2 C  pz              102      0.666446   4 C  px        
 
 Vector   90  Occ=0.000000D+00  E= 2.248001D+00
              MO Center=  6.0D-01, -1.8D-01, -5.9D-01, r^2= 3.7D+00
   Bfn.  Coefficient  Atom+Function         Bfn.  Coefficient  Atom+Function  
  ----- ------------  ---------------      ----- ------------  ---------------
   150      1.179273   9 H  s                66     -0.968427   3 C  s         
    72      0.952165   3 C  py              144     -0.840060   8 H  s         
   117      0.773397   4 C  d  2             98     -0.719637   4 C  s         
    83      0.639971   3 C  d -1              5      0.629414   1 O  s         
    42      0.581543   2 C  pz               36      0.510647   2 C  s         
 
 Vector   91  Occ=0.000000D+00  E= 2.267355D+00
              MO Center=  8.6D-01, -2.0D-01, -1.0D+00, r^2= 3.1D+00
   Bfn.  Coefficient  Atom+Function         Bfn.  Coefficient  Atom+Function  
  ----- ------------  ---------------      ----- ------------  ---------------
    36      2.337921   2 C  s                66      2.077410   3 C  s         
    98     -1.644822   4 C  s                67     -1.440303   3 C  s         
    41     -1.404392   2 C  py               35     -1.042712   2 C  s         
    72     -0.916766   3 C  py              156      0.891827  10 H  s         
    76      0.850308   3 C  pz               71      0.806901   3 C  px        
 
 Vector   92  Occ=0.000000D+00  E= 2.282982D+00
              MO Center=  5.9D-01,  5.6D-02, -2.7D-01, r^2= 3.7D+00
   Bfn.  Coefficient  Atom+Function         Bfn.  Coefficient  Atom+Function  
  ----- ------------  ---------------      ----- ------------  ---------------
    98      3.560765   4 C  s                66      2.614649   3 C  s         
[...]
    36      0.845328   2 C  s                42     -0.779412   2 C  pz        
    45     -0.685859   2 C  pz               97     -0.670660   4 C  s         
    98     -0.528472   4 C  s                83     -0.513578   3 C  d -1      
     5     -0.492158   1 O  s               102      0.485670   4 C  px        
 
 Vector  154  Occ=0.000000D+00  E= 6.679141D+00
              MO Center= -8.7D-01, -1.8D-01,  2.0D-01, r^2= 5.7D-01
   Bfn.  Coefficient  Atom+Function         Bfn.  Coefficient  Atom+Function  
  ----- ------------  ---------------      ----- ------------  ---------------
    18      1.062722   1 O  d  1             23     -1.042193   1 O  d  1      
    97     -0.880671   4 C  s                42     -0.806629   2 C  pz        
    35      0.749290   2 C  s               102      0.659234   4 C  px        
    54     -0.547144   2 C  d  1             14      0.409626   1 O  pz        
    11      0.394835   1 O  pz               16     -0.391492   1 O  d -1      
 
 Vector  155  Occ=0.000000D+00  E= 6.842386D+00
              MO Center= -8.8D-01, -1.9D-01,  2.1D-01, r^2= 5.9D-01
   Bfn.  Coefficient  Atom+Function         Bfn.  Coefficient  Atom+Function  
  ----- ------------  ---------------      ----- ------------  ---------------
     5      2.086038   1 O  s                40      1.760002   2 C  px        
     9      1.357383   1 O  px               97     -1.282447   4 C  s         
     4      1.207339   1 O  s                20      1.051187   1 O  d -2      
    42     -0.980299   2 C  pz               12      0.840450   1 O  px        
    15     -0.834459   1 O  d -2             22     -0.827231   1 O  d  0      
 
 Vector  156  Occ=0.000000D+00  E= 7.054758D+00
              MO Center= -8.9D-01, -1.8D-01,  2.1D-01, r^2= 6.3D-01
   Bfn.  Coefficient  Atom+Function         Bfn.  Coefficient  Atom+Function  
  ----- ------------  ---------------      ----- ------------  ---------------
    66     -3.163773   3 C  s                35      3.011161   2 C  s         
    40     -2.721256   2 C  px               72      2.689035   3 C  py        
    24     -1.578446   1 O  d  2             36      1.467863   2 C  s         
    67     -1.307787   3 C  s                10      1.289286   1 O  py        
    19      1.015532   1 O  d  2             13      0.871500   1 O  py        
 
 Vector  157  Occ=0.000000D+00  E= 2.194416D+01
              MO Center=  8.0D-02,  7.8D-01,  4.5D-02, r^2= 1.2D+00
   Bfn.  Coefficient  Atom+Function         Bfn.  Coefficient  Atom+Function  
  ----- ------------  ---------------      ----- ------------  ---------------
    64      1.580251   3 C  s                65     -1.344343   3 C  s         
    67     -1.259235   3 C  s                63     -1.245262   3 C  s         
    98      1.063637   4 C  s                95     -0.761070   4 C  s         
    96      0.623563   4 C  s                94      0.601978   4 C  s         
    35      0.489203   2 C  s                40     -0.480111   2 C  px        
 
 Vector  158  Occ=0.000000D+00  E= 2.198219D+01
              MO Center=  9.0D-01, -2.6D-01, -7.4D-01, r^2= 1.1D+00
   Bfn.  Coefficient  Atom+Function         Bfn.  Coefficient  Atom+Function  
  ----- ------------  ---------------      ----- ------------  ---------------
    95      1.444108   4 C  s                96     -1.333145   4 C  s         
    98     -1.176102   4 C  s                94     -1.136211   4 C  s         
    34     -0.925341   2 C  s                36     -0.849308   2 C  s         
    33      0.840412   2 C  s                32     -0.656413   2 C  s         
    65     -0.642902   3 C  s                64      0.598918   3 C  s         
 
 Vector  159  Occ=0.000000D+00  E= 2.210621D+01
              MO Center=  6.0D-01, -1.1D-01, -5.2D-02, r^2= 6.7D-01
   Bfn.  Coefficient  Atom+Function         Bfn.  Coefficient  Atom+Function  
  ----- ------------  ---------------      ----- ------------  ---------------
    36      2.194513   2 C  s                33     -1.558641   2 C  s         
    34      1.538542   2 C  s                35     -1.314673   2 C  s         
    98     -1.263214   4 C  s                32      1.220315   2 C  s         
    67     -1.168305   3 C  s                97      0.687454   4 C  s         
    95      0.680562   4 C  s                96     -0.613258   4 C  s         
 
 Vector  160  Occ=0.000000D+00  E= 4.341918D+01
              MO Center= -8.8D-01, -1.8D-01,  2.1D-01, r^2= 1.2D-01
   Bfn.  Coefficient  Atom+Function         Bfn.  Coefficient  Atom+Function  
  ----- ------------  ---------------      ----- ------------  ---------------
     4      2.522943   1 O  s                 3     -1.878630   1 O  s         
     2      1.731869   1 O  s                 1     -1.395896   1 O  s         
     5     -0.879759   1 O  s                36      0.843714   2 C  s         
     9      0.569036   1 O  px               66     -0.517158   3 C  s         
    40      0.482007   2 C  px               72      0.457512   3 C  py        
 

 center of mass
 --------------
 x =   0.30619350 y =   0.09486519 z =  -0.27792482

 moments of inertia (a.u.)
 ------------------
         199.681028042069          45.676717371553          84.008569894983
          45.676717371553         247.823404649494         -52.253930646386
          84.008569894983         -52.253930646386         238.619876747040
 
     Multipole analysis of the density
     ---------------------------------
 
     L   x y z        total         alpha         beta         nuclear
     -   - - -        -----         -----         ----         -------
     0   0 0 0     -0.000000    -16.000000    -16.000000     32.000000
 
     1   1 0 0      0.685855     -6.224698     -6.224698     13.135251
     1   0 1 0      0.322562     -1.616831     -1.616831      3.556224
     1   0 0 1     -0.059756      5.315865      5.315865    -10.691486
 
     2   2 0 0    -20.003434    -54.320884    -54.320884     88.638334
     2   1 1 0     -1.094622     13.901613     13.901613    -28.897848
     2   1 0 1      0.136390     26.545515     26.545515    -52.954640
     2   0 2 0    -17.862875    -40.415638    -40.415638     62.968401
     2   0 1 1      0.213345    -15.318883    -15.318883     30.851111
     2   0 0 2    -18.208436    -45.728726    -45.728726     73.249015
 
 *** CALLING NEW AORESP DRIVER FOR CLOSED AND OPEN SHELLS ***
 Entering AOResponse driver routine


--------------------------------------------------------------------------------

          ****************
          *** RESPONSE ***
          ****************

 Response module for NWChem and dynamic CPKS solver
 developed by J. Autschbach and coworkers, SUNY Buffalo
 The methodology used in this program is described in 
 ChemPhysChem 12 (2011), 3224-3235 (main reference)
 J. Chem. Phys. 123 (2005), 114103
 J. Chem. Phys. 122 (2005), 224115
 J. Chem. Phys. 122 (2005), 074105
 Comp. Lett. 3 (2007), 131-150 (contact JA for a copy)
 Please cite this work in publications based on results
 obtained with this code. Thank you!

 For extension of response module to open shell
 calculations please acknowledge:
 F. Aquino, Northwestern University, Schatz Rsrch Group
 The update to the methodology is described in
 J. Phys. Chem. A 118 (2014) 517-525



          -----------------------------------------------
          Solving response equations for perturbing field
          -----------------------------------------------

 number of frequencies:     1
 frequency in a.u.:  0.9319600E-01
 Perturbing field: electric
 Using GIAO formalism for OptRot
 Adding quadrupole terms to OptRot
 to create an origin in dependent tensor.
 Using El. Dipole Length Gauge
 
 Applying DAMPING constant of  0.003700 a.u.
 
 Setting up CPKS
 with frequency omega =      0.09319600 a.u.
 and a damping of            0.00370000 a.u.

 
                            NWChem Dynamic CPHF Module
                            --------------------------
 
 
    scftype = RHF 
    nclosed =   16
      nopen =    0
  variables =     9216
  num. vecs =        3
  tolerance =   1.0D-07
  max. iter =  100

 SCF residual:   4.988439134891945E-006


Iterative solution of linear equations
  No. of variables     4608
  No. of equations        3
  Maximum subspace       99
       Convergence  1.0D-07
        Start time     61.7


   iter   nsub   residual    time 
   ----  ------  --------  --------- 
 dft_CPHF2_read: failed to open
 ./methyloxirane_blyp-def2-tzvp_488.9_33.inp.aoresp_fiao_f1
     1      3    3.70D+00      91.1
     2      6    2.74D+00     120.6
     3      9    2.43D-01     150.1
     4     12    5.34D-02     179.5
     5     15    1.01D-02     209.2
     6     18    1.28D-03     238.8
     7     21    1.45D-04     268.2
     8     24    1.42D-05     297.6
     9     27    1.30D-06     327.2
    10     30    4.97D-07     356.7
    11     33    1.92D-08     386.2

 Calculating some arrays needed for GIAO optical rotation

    0 giaofock schwarz done =      95.31%
    0 giaofock schwarz done =      92.96%
 aor_r1_tensor_giao: roadata output requested
 dip-quad polarizability Re:

              1        2        3        4        5        6      
    1   77.3994  -6.3551 -27.7185  -4.5479   1.0197   9.1717
    2  -11.8103  25.4892   3.2833  23.5494 -22.0062   4.0516
    3   -6.7307   0.9211  39.3083  -0.6125  13.9485 -40.6936
 traceless dip-quad polarizability:

              1        2        3      
    1   75.0875  -9.5326 -41.5777
    2   -9.5326 -47.8334   1.5295
    3  -41.5777   1.5295 -27.2541

              1        2        3      
    1  -25.6108  38.2338   4.9249
    2   38.2338  27.4288 -33.0093
    3    4.9249 -33.0093  -1.8180

              1        2        3      
    1   13.9223   1.3817  58.9624
    2    1.3817  23.0997  20.9228
    3   58.9624  20.9228 -37.0220

 roa begin

 alpha real:
 XX       0.4093427109997E+02
 XY      -0.5211495670517E+01
 XZ      -0.3091064799976E+01
 YX      -0.5211495687210E+01
 YY       0.4402737906907E+02
 YZ       0.3112152689706E+01
 ZX      -0.3091064812894E+01
 ZY       0.3112152686609E+01
 ZZ       0.4149086218788E+02

 alpha im:
 XX       0.1103724040200E+00
 XY      -0.3018330877338E-01
 XZ      -0.1128795038244E-01
 YX      -0.3018330166922E-01
 YY       0.1295308204956E+00
 YZ       0.1822499083993E-01
 ZX      -0.1128794558709E-01
 ZY       0.1822498966972E-01
 ZZ       0.1230554261309E+00

 beta real:
 XX      -0.1365308304194E+00
 XY       0.9446364301832E+00
 XZ       0.1971454352943E+00
 YX      -0.8860497725372E+00
 YY       0.1505322071006E+00
 YZ      -0.1547436439202E+01
 ZX      -0.4839822926250E+00
 ZY       0.1873552453879E+01
 ZZ      -0.1386382732871E-01

 G-prime = -omega beta(real):
 XX      -0.1365308304194E+00
 XY       0.9446364301832E+00
 XZ       0.1971454352943E+00
 YX      -0.8860497725372E+00
 YY       0.1505322071006E+00
 YZ      -0.1547436439202E+01
 ZX      -0.4839822926250E+00
 ZY       0.1873552453879E+01
 ZZ      -0.1386382732871E-01

 beta im:
 XX      -0.5844326289244E-02
 XY       0.1357079576749E-01
 XZ       0.2803847172635E-02
 YX      -0.7618491525487E-02
 YY       0.4986845512770E-02
 YZ      -0.2352828328629E-01
 ZX      -0.1365636104731E-01
 ZY       0.4028380241048E-01
 ZZ       0.3776766885972E-03

 G-prime = -omega beta(imag):
 XX      -0.5844326289244E-02
 XY       0.1357079576749E-01
 XZ       0.2803847172635E-02
 YX      -0.7618491525487E-02
 YY       0.4986845512770E-02
 YZ      -0.2352828328629E-01
 ZX      -0.1365636104731E-01
 ZY       0.4028380241048E-01
 ZZ       0.3776766885972E-03

 dipole-quadrupole real (Cartesian):
 XXX      0.7739938086884E+02
 XXY     -0.6355089460340E+01
 XXZ     -0.2771847159724E+02
 XYY     -0.4547869673297E+01
 XYZ      0.1019680635373E+01
 XZZ      0.9171658608475E+01
 YXX     -0.1181032660845E+02
 YXY      0.2548918423434E+02
 YXZ      0.3283282214542E+01
 YYY      0.2354944592912E+02
 YYZ     -0.2200621795597E+02
 YZZ      0.4051561977757E+01
 ZXX     -0.6730745515287E+01
 ZXY      0.9211093501971E+00
 ZXZ      0.3930826410303E+02
 ZYY     -0.6124599437982E+00
 ZYZ      0.1394850818444E+02
 ZZZ     -0.4069358437754E+02

 dipole-quadrupole imag (Cartesian):
 XXX      0.2691427447822E+00
 XXY     -0.3516802963913E-01
 XXZ     -0.7675441140822E-01
 XYY     -0.2915384766116E-01
 XYZ      0.1752102607363E-02
 XZZ      0.6091267491344E-01
 YXX     -0.5707596059229E-01
 YXY      0.6192722101450E-01
 YXZ      0.1928416412084E-01
 YYY      0.9259273312814E-01
 YYZ     -0.6353999708147E-01
 YZZ      0.9302288755596E-02
 ZXX     -0.3420510730111E-01
 ZXY     -0.7258143134359E-03
 ZXZ      0.1458374826135E+00
 ZYY      0.2326170699305E-02
 ZYZ      0.6641092020331E-01
 ZZZ     -0.9363651312172E-01

 dipole-quadrupole (traceless):
 XXX      0.7508748640125E+02
 XXY     -0.9532634190511E+01
 XXZ     -0.4157770739587E+02
 XYY     -0.4783338941195E+02
 XYZ      0.1529520953060E+01
 XZZ     -0.2725409698930E+02
 YXX     -0.2561083056189E+02
 YXY      0.3823377635151E+02
 YXZ      0.4924923321813E+01
 YYY      0.2742882824447E+02
 YYZ     -0.3300932693396E+02
 YZZ     -0.1817997682578E+01
 ZXX      0.1392227664538E+02
 ZXY      0.1381664025296E+01
 ZXZ      0.5896239615454E+02
 ZYY      0.2309970500262E+02
 ZYZ      0.2092276227666E+02
 ZZZ     -0.3702198164800E+02

 roa end


 Electric Dipole Response Matrix (nonzero elements):

              1        2        3      
    1   40.9343  -5.2115  -3.0911
    2   -5.2115  44.0274   3.1122
    3   -3.0911   3.1122  41.4909
 
 Imaginary part:

              1        2        3      
    1    0.1104  -0.0302  -0.0113
    2   -0.0302   0.1295   0.0182
    3   -0.0113   0.0182   0.1231

 ------------------------------------------
 average:        42.15084 + I       0.12099


 DFT Linear Response polarizability / au 
 Frequency  =       0.0931960 / au
 Wavelength =     488.8981609 / nm
              X              Y              Z
 -----------------------------------------------
 X      40.9342711     -5.2114957     -3.0910648
 Y      -5.2114957     44.0273791      3.1121527
 Z      -3.0910648      3.1121527     41.4908622
 -----------------------------------------------
 Eigenvalues =      36.9123435     50.1120881     39.4280808
 Isotropic   =      42.1508375
 Anisotropic =       9.9114447
 -----------------------------------------------
 *************************

 DFT Linear Response IMAG polarizability / au 
 Frequency  =       0.0931960 / au
 Wavelength =     488.8981609 / nm
              X              Y              Z
 -----------------------------------------------
 X       0.1103724     -0.0301833     -0.0112880
 Y      -0.0301833      0.1295308      0.0182250
 Z      -0.0112879      0.0182250      0.1230554
 -----------------------------------------------
 Eigenvalues =       0.0881859      0.1630511      0.1117217
 Isotropic   =       0.1209862
 Anisotropic =       0.0541401
 -----------------------------------------------
 *************************

 Magnetic Dipole Response Matrix (nonzero elements):
 Optical rotation tensor Beta
 (Buckingham-Dunn version including dipole-quadrupole terms)

              1        2        3      
    1    2.6461  -0.4158   0.4285
    2   -0.4158  -1.6645  -1.7247
    3    0.4285  -1.7247  -0.9830
 
 Imaginary part:

              1        2        3      
    1    0.0627  -0.1456  -0.0301
    2    0.0817  -0.0535   0.2525
    3    0.1465  -0.4322  -0.0041

 ------------------------------------------
 average:        -0.00049 + I       0.00172

 Principal components and PAS (Real part)
                 -3.08228
                  2.79638
                  0.28442
 ------------------------
 average:        -0.00049

              1        2        3      
    1    0.0087   0.9697  -0.2443
    2    0.7735  -0.1614  -0.6129
    3    0.6337   0.1836   0.7515

 Chiral response tensor (Real part):

              1        2        3      
    1   -1.3238   0.2079  -0.2142
    2    0.2079   0.8315   0.8624
    3   -0.2142   0.8624   0.4908
 
 Principal components and PAS (Real part)
                  1.54040
                 -1.39893
                 -0.14295
 ------------------------
 average:        -0.00049

              1        2        3      
    1    0.0087   0.9697  -0.2443
    2    0.7735  -0.1614  -0.6129
    3    0.6337   0.1836   0.7515
 Exiting AOResponse driver routine

 Task  times  cpu:      375.6s     wall:      386.5s
 
 
                                NWChem Input Module
                                -------------------
 
 
 Summary of allocated global arrays
-----------------------------------
  No active global arrays



                         GA Statistics for process    0
                         ------------------------------

       create   destroy   get      put      acc     scatter   gather  read&inc
calls: 3294     3294     8.37e+06 3.14e+06 8.29e+05 2694        0     1166     
number of processes/call 1.01e+00 1.03e+00 1.45e+00 0.00e+00 0.00e+00
bytes total:             1.95e+09 1.26e+08 1.97e+09 1.84e+02 0.00e+00 9.33e+03
bytes remote:            8.66e+08 3.29e+07 1.20e+09 0.00e+00 0.00e+00 0.00e+00
Max memory consumed for GA by this process: 11242192 bytes
 
MA_summarize_allocated_blocks: starting scan ...
MA_summarize_allocated_blocks: scan completed: 0 heap blocks, 0 stack blocks
MA usage statistics:

	allocation statistics:
					      heap	     stack
					      ----	     -----
	current number of blocks	         0	         0
	maximum number of blocks	        24	        52
	current total bytes		         0	         0
	maximum total bytes		   7519856	  48940584
	maximum total K-bytes		      7520	     48941
	maximum total M-bytes		         8	        49
 
 
                                     CITATION
                                     --------
                Please cite the following reference when publishing
                           results obtained with NWChem:
 
                 M. Valiev, E.J. Bylaska, N. Govind, K. Kowalski,
              T.P. Straatsma, H.J.J. van Dam, D. Wang, J. Nieplocha,
                        E. Apra, T.L. Windus, W.A. de Jong
                 "NWChem: a comprehensive and scalable open-source
                  solution for large scale molecular simulations"
                      Comput. Phys. Commun. 181, 1477 (2010)
                           doi:10.1016/j.cpc.2010.04.018
 
                                      AUTHORS
                                      -------
          E. Apra, E. J. Bylaska, W. A. de Jong, N. Govind, K. Kowalski,
       T. P. Straatsma, M. Valiev, H. J. J. van Dam, D. Wang, T. L. Windus,
        J. Hammond, J. Autschbach, K. Bhaskaran-Nair, J. Brabec, K. Lopata,
    S. A. Fischer, S. Krishnamoorthy, M. Jacquelin, W. Ma, M. Klemm, O. Villa,
      Y. Chen, V. Anisimov, F. Aquino, S. Hirata, M. T. Hackler, V. Konjkov,
            D. Mejia-Rodriguez, T. Risthaus, M. Malagoli, A. Marenich,
   A. Otero-de-la-Roza, J. Mullin, P. Nichols, R. Peverati, J. Pittner, Y. Zhao,
        P.-D. Fan, A. Fonari, M. J. Williamson, R. J. Harrison, J. R. Rehr,
      M. Dupuis, D. Silverstein, D. M. A. Smith, J. Nieplocha, V. Tipparaju,
    M. Krishnan, B. E. Van Kuiken, A. Vazquez-Mayagoitia, L. Jensen, M. Swart,
      Q. Wu, T. Van Voorhis, A. A. Auer, M. Nooijen, L. D. Crosby, E. Brown,
      G. Cisneros, G. I. Fann, H. Fruchtl, J. Garza, K. Hirao, R. A. Kendall,
      J. A. Nichols, K. Tsemekhman, K. Wolinski, J. Anchell, D. E. Bernholdt,
      P. Borowski, T. Clark, D. Clerc, H. Dachsel, M. J. O. Deegan, K. Dyall,
    D. Elwood, E. Glendening, M. Gutowski, A. C. Hess, J. Jaffe, B. G. Johnson,
     J. Ju, R. Kobayashi, R. Kutteh, Z. Lin, R. Littlefield, X. Long, B. Meng,
      T. Nakajima, S. Niu, L. Pollack, M. Rosing, K. Glaesemann, G. Sandrone,
      M. Stave, H. Taylor, G. Thomas, J. H. van Lenthe, A. T. Wong, Z. Zhang.

 Total times  cpu:      423.7s     wall:      435.6s
