 argument  1 = methyloxirane_blyp-def2-tzvp_488.9_47.inp
 


============================== echo of input deck ==============================
echo
start methyloxirane_blyp-def2-tzvp_488.9_47.inp
title "methyloxirane roa calculations at 488.9 nm, input generated in va  with delta_type=2"
charge 0



geometry units angstrom nocenter noautoz noautosym nucleus point;symmetry c1
 O -0.879112 -0.180299  0.205244
 C  0.574558 -0.158004  0.123244
 C -0.185533  1.088408  0.339911
 C  1.186784 -0.521739 -1.210259
 H  1.054647 -0.600067  0.990557
 H -0.228067  1.538693  1.336901
 H -0.325253  1.781611 -0.492054
 H  2.234802 -0.218464 -1.245279
 H  1.143191 -1.597346 -1.372707
 H  0.641479 -0.017733 -2.049164
end

basis spherical
* library def2-TZVP
end

 set prop:newaoresp 1
 set aor:roadata T
 set cphf:maxsub 100
 set cphf:acc 1.0d-10
 set cphf:maxiter 100

property
    response 1   0.093196
    bdtensor
    convergence 1e-7
    damping 0.0037
    giao
end

dft
 direct
 mult 1
 xc becke88 lyp
 iterations 250
 tolerances tight
 grid xfine
 convergence nolevelshifting
 convergence energy 1e-8
 convergence gradient 1e-7


end

task dft gradient
task dft property
================================================================================


                                         
                                         
 
 
              Northwest Computational Chemistry Package (NWChem) 6.8
              ------------------------------------------------------
 
 
                    Environmental Molecular Sciences Laboratory
                       Pacific Northwest National Laboratory
                                Richland, WA 99352
 
                              Copyright (c) 1994-2017
                       Pacific Northwest National Laboratory
                            Battelle Memorial Institute
 
             NWChem is an open-source computational chemistry package
                        distributed under the terms of the
                      Educational Community License (ECL) 2.0
             A copy of the license is included with this distribution
                              in the LICENSE.TXT file
 
                                  ACKNOWLEDGMENT
                                  --------------

            This software and its documentation were developed at the
            EMSL at Pacific Northwest National Laboratory, a multiprogram
            national laboratory, operated for the U.S. Department of Energy
            by Battelle under Contract Number DE-AC05-76RL01830. Support
            for this work was provided by the Department of Energy Office
            of Biological and Environmental Research, Office of Basic
            Energy Sciences, and the Office of Advanced Scientific Computing.


           Job information
           ---------------

    hostname        = cpn-d12-02.cbls.ccr.buffalo.edu
    program         = /util/academic/nwchem/nwchem-6.8/bin/LINUX64/nwchem
    date            = Fri Mar  1 10:50:32 2019

    compiled        = Tue_Nov_06_14:59:08_2018
    source          = /util/academic/nwchem/nwchem-6.8
    nwchem branch   = 6.8
    nwchem revision = v6.8-47-gdf6c956
    ga revision     = ga-5.6.3
    use scalapack   = F
    input           = methyloxirane_blyp-def2-tzvp_488.9_47.inp
    prefix          = methyloxirane_blyp-def2-tzvp_488.9_47.inp.
    data base       = ./methyloxirane_blyp-def2-tzvp_488.9_47.inp.db
    status          = startup
    nproc           =        7
    time left       =     -1s



           Memory information
           ------------------

    heap     =   13107196 doubles =    100.0 Mbytes
    stack    =   13107201 doubles =    100.0 Mbytes
    global   =   26214400 doubles =    200.0 Mbytes (distinct from heap & stack)
    total    =   52428797 doubles =    400.0 Mbytes
    verify   = yes
    hardfail = no 


           Directory information
           ---------------------
 
  0 permanent = .
  0 scratch   = .
 
 
 
 
                                NWChem Input Module
                                -------------------
 
 
                    methyloxirane roa calculations at 488.9 nm, input generated in va  with delta_type=2
                    ------------------------------------------

 Scaling coordinates for geometry "geometry" by  1.889725989
 (inverse scale =  0.529177249)

 
 
                             Geometry "geometry" -> ""
                             -------------------------
 
 Output coordinates in angstroms (scale by  1.889725989 to convert to a.u.)
 
  No.       Tag          Charge          X              Y              Z
 ---- ---------------- ---------- -------------- -------------- --------------
    1 O                    8.0000    -0.87911200    -0.18029900     0.20524400
    2 C                    6.0000     0.57455800    -0.15800400     0.12324400
    3 C                    6.0000    -0.18553300     1.08840800     0.33991100
    4 C                    6.0000     1.18678400    -0.52173900    -1.21025900
    5 H                    1.0000     1.05464700    -0.60006700     0.99055700
    6 H                    1.0000    -0.22806700     1.53869300     1.33690100
    7 H                    1.0000    -0.32525300     1.78161100    -0.49205400
    8 H                    1.0000     2.23480200    -0.21846400    -1.24527900
    9 H                    1.0000     1.14319100    -1.59734600    -1.37270700
   10 H                    1.0000     0.64147900    -0.01773300    -2.04916400
 
      Atomic Mass 
      ----------- 
 
      O                 15.994910
      C                 12.000000
      H                  1.007825
 

 Effective nuclear repulsion energy (a.u.)     123.5489276378

            Nuclear Dipole moment (a.u.) 
            ----------------------------
        X                 Y               Z
 ---------------- ---------------- ----------------
    13.1199083353     3.5834722743   -10.7193157127
 
 
            XYZ format geometry
            -------------------
    10
 geometry
 O                    -0.87911200    -0.18029900     0.20524400
 C                     0.57455800    -0.15800400     0.12324400
 C                    -0.18553300     1.08840800     0.33991100
 C                     1.18678400    -0.52173900    -1.21025900
 H                     1.05464700    -0.60006700     0.99055700
 H                    -0.22806700     1.53869300     1.33690100
 H                    -0.32525300     1.78161100    -0.49205400
 H                     2.23480200    -0.21846400    -1.24527900
 H                     1.14319100    -1.59734600    -1.37270700
 H                     0.64147900    -0.01773300    -2.04916400
 
 ==============================================================================
                                internuclear distances
 ------------------------------------------------------------------------------
       center one      |      center two      | atomic units |  angstroms
 ------------------------------------------------------------------------------
    2 C                |   1 O                |     2.75173  |     1.45615
    3 C                |   1 O                |     2.74421  |     1.45217
    3 C                |   2 C                |     2.78901  |     1.47588
    4 C                |   2 C                |     2.85677  |     1.51174
    5 H                |   2 C                |     2.05115  |     1.08542
    6 H                |   3 C                |     2.06884  |     1.09479
    7 H                |   3 C                |     2.06337  |     1.09189
    8 H                |   4 C                |     2.06278  |     1.09158
    9 H                |   4 C                |     2.05730  |     1.08868
   10 H                |   4 C                |     2.11712  |     1.12033
 ------------------------------------------------------------------------------
                         number of included internuclear distances:         10
 ==============================================================================



 ==============================================================================
                                 internuclear angles
 ------------------------------------------------------------------------------
        center 1       |       center 2       |       center 3       |  degrees
 ------------------------------------------------------------------------------
    2 C                |   1 O                |   3 C                |    60.99
    2 C                |   1 O                |   3 C                |    60.99
    1 O                |   2 C                |   4 C                |   116.76
    1 O                |   2 C                |   5 H                |   112.97
    3 C                |   2 C                |   4 C                |   122.77
    3 C                |   2 C                |   5 H                |   117.03
    4 C                |   2 C                |   5 H                |   115.32
    3 C                |   1 O                |   2 C                |    60.99
    1 O                |   3 C                |   6 H                |   115.17
    1 O                |   3 C                |   7 H                |   115.02
    2 C                |   3 C                |   6 H                |   120.07
    2 C                |   3 C                |   7 H                |   119.35
    6 H                |   3 C                |   7 H                |   115.33
    2 C                |   4 C                |   8 H                |   110.50
    2 C                |   4 C                |   9 H                |   110.68
    2 C                |   4 C                |  10 H                |   110.80
    8 H                |   4 C                |   9 H                |   107.95
    8 H                |   4 C                |  10 H                |   108.56
    9 H                |   4 C                |  10 H                |   108.26
 ------------------------------------------------------------------------------
                            number of included internuclear angles:         19
 ==============================================================================



  warning:::::::::::::: from_environment
  NWCHEM_BASIS_LIBRARY set to: <
 /util/academic/nwchem/nwchem-6.8/src/basis/libraries>
  but file does not exist !
  using .nwchemrc or compiled library


 Summary of "ao basis" -> "" (spherical)
 ------------------------------------------------------------------------------
       Tag                 Description            Shells   Functions and Types
 ---------------- ------------------------------  ------  ---------------------
 *                         def2-TZVP                  on all atoms 


 
                                 NWChem DFT Module
                                 -----------------
 
 
                    methyloxirane roa calculations at 488.9 nm, input generated in va  with delta_type=2
 
 
                      Basis "ao basis" -> "ao basis" (spherical)
                      -----
  O (Oxygen)
  ----------
            Exponent  Coefficients 
       -------------- ---------------------------------------------------------
  1 S  2.70323826E+04  0.000217
  1 S  4.05238714E+03  0.001684
  1 S  9.22327227E+02  0.008740
  1 S  2.61240710E+02  0.035240
  1 S  8.53546414E+01  0.111535
  1 S  3.10350352E+01  0.255890
 
  2 S  1.22608607E+01  0.397687
  2 S  4.99870760E+00  0.246278
 
  3 S  1.17031082E+00  1.000000
 
  4 S  4.64747410E-01  1.000000
 
  5 S  1.85045364E-01  1.000000
 
  6 P  6.32749548E+01  0.006069
  6 P  1.46270494E+01  0.041913
  6 P  4.45012235E+00  0.161538
  6 P  1.52757996E+00  0.357070
 
  7 P  5.29351179E-01  1.000000
 
  8 P  1.74784213E-01  1.000000
 
  9 D  2.31400000E+00  1.000000
 
 10 D  6.45000000E-01  1.000000
 
 11 F  1.42800000E+00  1.000000
 
  C (Carbon)
  ----------
            Exponent  Coefficients 
       -------------- ---------------------------------------------------------
  1 S  1.35753497E+04  0.000222
  1 S  2.03523337E+03  0.001723
  1 S  4.63225624E+02  0.008926
  1 S  1.31200196E+02  0.035728
  1 S  4.28530159E+01  0.110763
  1 S  1.55841858E+01  0.242956
 
  2 S  6.20671385E+00  0.414403
  2 S  2.57648965E+00  0.237450
 
  3 S  5.76963394E-01  1.000000
 
  4 S  2.29728314E-01  1.000000
 
  5 S  9.51644400E-02  1.000000
 
  6 P  3.46972322E+01  0.005333
  6 P  7.95826228E+00  0.035864
  6 P  2.37808269E+00  0.142159
  6 P  8.14332082E-01  0.342705
 
  7 P  2.88875473E-01  1.000000
 
  8 P  1.00568237E-01  1.000000
 
  9 D  1.09700000E+00  1.000000
 
 10 D  3.18000000E-01  1.000000
 
 11 F  7.61000000E-01  1.000000
 
  H (Hydrogen)
  ------------
            Exponent  Coefficients 
       -------------- ---------------------------------------------------------
  1 S  3.40613410E+01  0.006025
  1 S  5.12357460E+00  0.045021
  1 S  1.16466260E+00  0.201897
 
  2 S  3.27230410E-01  1.000000
 
  3 S  1.03072410E-01  1.000000
 
  4 P  8.00000000E-01  1.000000
 


 Summary of "ao basis" -> "ao basis" (spherical)
 ------------------------------------------------------------------------------
       Tag                 Description            Shells   Functions and Types
 ---------------- ------------------------------  ------  ---------------------
 O                         def2-TZVP                11       31   5s3p2d1f
 C                         def2-TZVP                11       31   5s3p2d1f
 H                         def2-TZVP                 4        6   3s1p




 Summary of "ao basis" -> "ao basis" (spherical)
 ------------------------------------------------------------------------------
       Tag                 Description            Shells   Functions and Types
 ---------------- ------------------------------  ------  ---------------------
 O                         def2-TZVP                11       31   5s3p2d1f
 C                         def2-TZVP                11       31   5s3p2d1f
 H                         def2-TZVP                 4        6   3s1p


  Caching 1-el integrals 
  itol2e modified to match energy
  convergence criterion.
  tol_rho modified to match energy
  convergence criterion.
 
            General Information
            -------------------
          SCF calculation type: DFT
          Wavefunction type:  closed shell.
          No. of atoms     :    10
          No. of electrons :    32
           Alpha electrons :    16
            Beta electrons :    16
          Charge           :     0
          Spin multiplicity:     1
          Use of symmetry is: off; symmetry adaption is: off
          Maximum number of iterations: 250
          This is a Direct SCF calculation.
          AO basis - number of functions:   160
                     number of shells:    68
          Convergence on energy requested:  1.00D-08
          Convergence on density requested:  1.00D-05
          Convergence on gradient requested:  1.00D-07
 
              XC Information
              --------------
                    Becke 1988 Exchange Functional  1.000          
              Lee-Yang-Parr Correlation Functional  1.000          
 
             Grid Information
             ----------------
          Grid used for XC integration:  xfine     
          Radial quadrature: Mura-Knowles        
          Angular quadrature: Lebedev. 
          Tag              B.-S. Rad. Rad. Pts. Rad. Cut. Ang. Pts.
          ---              ---------- --------- --------- ---------
          O                   0.60      100          11.0      1454
          C                   0.70      100          11.0      1454
          H                   0.35      100          12.0      1202
          Grid pruning is: on 
          Number of quadrature shells:  1000
          Spatial weights used:  Erf1
 
          Convergence Information
          -----------------------
          Convergence aids based upon iterative change in 
          total energy or number of iterations. 
          Levelshifting, if invoked, occurs when the 
          HOMO/LUMO gap drops below (HL_TOL):  1.00D-02
          DIIS, if invoked, will attempt to extrapolate 
          using up to (NFOCK): 10 stored Fock matrices.

                    Damping( 0%)  Levelshifting(0.0)       DIIS
                  --------------- ------------------- ---------------
          dE  on:    start             N/A                start   
          dE off:    2 iters           N/A              250 iters 

 
      Screening Tolerance Information
      -------------------------------
          Density screening/tol_rho:  1.00D-11
          AO Gaussian exp screening on grid/accAOfunc:  18
          CD Gaussian exp screening on grid/accCDfunc:  20
          XC Gaussian exp screening on grid/accXCfunc:  20
          Schwarz screening/accCoul:  1.00D-09

 
      Superposition of Atomic Density Guess
      -------------------------------------
 
 Sum of atomic energies:        -190.79714706
 
      Non-variational initial energy
      ------------------------------

 Total energy =    -193.164041
 1-e energy   =    -502.053672
 2-e energy   =     185.340703
 HOMO         =      -0.352110
 LUMO         =       0.090045
 
   Time after variat. SCF:      0.7
   Time prior to 1st pass:      0.7

 Grid_pts file          = ./methyloxirane_blyp-def2-tzvp_488.9_47.inp.gridpts.0
 Record size in doubles =  12289        No. of grid_pts per rec  =   3070
 Max. records in memory =     76        Max. recs in file   =    317624


           Memory utilization after 1st SCF pass: 
           Heap Space remaining (MW):       12.17            12167540
          Stack Space remaining (MW):       13.11            13106124

   convergence    iter        energy       DeltaE   RMS-Dens  Diis-err    time
 ---------------- ----- ----------------- --------- --------- ---------  ------
 d= 0,ls=0.0,diis     1   -193.0200037709 -3.17D+02  9.13D-03  1.06D+00     7.0
 d= 0,ls=0.0,diis     2   -192.8596350308  1.60D-01  7.55D-03  2.54D+00    13.1
 d= 0,ls=0.0,diis     3   -193.0765740790 -2.17D-01  1.82D-03  3.88D-01    19.3
 d= 0,ls=0.0,diis     4   -193.1068720797 -3.03D-02  6.79D-04  1.80D-02    25.3
 d= 0,ls=0.0,diis     5   -193.1085250294 -1.65D-03  2.90D-04  2.68D-03    31.3
 d= 0,ls=0.0,diis     6   -193.1088588971 -3.34D-04  3.00D-05  3.49D-05    37.4
 d= 0,ls=0.0,diis     7   -193.1088629999 -4.10D-06  9.30D-06  4.33D-06    43.4
 d= 0,ls=0.0,diis     8   -193.1088635000 -5.00D-07  1.97D-06  2.81D-07    49.5
 d= 0,ls=0.0,diis     9   -193.1088635317 -3.17D-08  5.71D-07  1.56D-08    55.6
 d= 0,ls=0.0,diis    10   -193.1088635334 -1.69D-09  1.76D-07  1.86D-09    61.6


         Total DFT energy =     -193.108863533423
      One electron energy =     -505.714533806366
           Coulomb energy =      216.079134096708
    Exchange-Corr. energy =      -27.022391461613
 Nuclear repulsion energy =      123.548927637850

 Numeric. integr. density =       31.999999966612

     Total iterative time =     61.0s


 
                       DFT Final Molecular Orbital Analysis
                       ------------------------------------
 
 Vector    1  Occ=2.000000D+00  E=-1.877952D+01
              MO Center= -8.8D-01, -1.8D-01,  2.1D-01, r^2= 1.5D-02
   Bfn.  Coefficient  Atom+Function         Bfn.  Coefficient  Atom+Function  
  ----- ------------  ---------------      ----- ------------  ---------------
     2      0.638478   1 O  s                 1      0.435422   1 O  s         
     3      0.039881   1 O  s                 4     -0.033220   1 O  s         
 
 Vector    2  Occ=2.000000D+00  E=-9.962359D+00
              MO Center=  5.7D-01, -1.6D-01,  1.2D-01, r^2= 2.8D-02
   Bfn.  Coefficient  Atom+Function         Bfn.  Coefficient  Atom+Function  
  ----- ------------  ---------------      ----- ------------  ---------------
    33      0.606889   2 C  s                32      0.467251   2 C  s         
    34      0.042549   2 C  s                36      0.037313   2 C  s         
    35     -0.027025   2 C  s         
 
 Vector    3  Occ=2.000000D+00  E=-9.955483D+00
              MO Center= -1.9D-01,  1.1D+00,  3.4D-01, r^2= 2.8D-02
   Bfn.  Coefficient  Atom+Function         Bfn.  Coefficient  Atom+Function  
  ----- ------------  ---------------      ----- ------------  ---------------
    64      0.607018   3 C  s                63      0.467217   3 C  s         
    65      0.039709   3 C  s         
 
 Vector    4  Occ=2.000000D+00  E=-9.908326D+00
              MO Center=  1.2D+00, -5.2D-01, -1.2D+00, r^2= 2.8D-02
   Bfn.  Coefficient  Atom+Function         Bfn.  Coefficient  Atom+Function  
  ----- ------------  ---------------      ----- ------------  ---------------
    95      0.606967   4 C  s                94      0.467217   4 C  s         
    96      0.040607   4 C  s                98      0.035793   4 C  s         
 
 Vector    5  Occ=2.000000D+00  E=-9.621684D-01
              MO Center= -4.7D-01,  5.6D-02,  2.1D-01, r^2= 6.5D-01
   Bfn.  Coefficient  Atom+Function         Bfn.  Coefficient  Atom+Function  
  ----- ------------  ---------------      ----- ------------  ---------------
     4      0.375179   1 O  s                 3      0.277445   1 O  s         
     2     -0.192786   1 O  s                34      0.139817   2 C  s         
    65      0.139130   3 C  s                 5      0.122764   1 O  s         
    35      0.105222   2 C  s                 6      0.093249   1 O  px        
    66      0.093439   3 C  s                69     -0.091354   3 C  py        
 
 Vector    6  Occ=2.000000D+00  E=-6.698107D-01
              MO Center=  9.5D-01, -3.9D-01, -7.6D-01, r^2= 1.5D+00
   Bfn.  Coefficient  Atom+Function         Bfn.  Coefficient  Atom+Function  
  ----- ------------  ---------------      ----- ------------  ---------------
    97      0.284184   4 C  s                96      0.275560   4 C  s         
    35      0.186077   2 C  s                34      0.175499   2 C  s         
    95     -0.173490   4 C  s                 4     -0.147850   1 O  s         
    33     -0.109699   2 C  s                 3     -0.103348   1 O  s         
    94     -0.083128   4 C  s                 5     -0.073460   1 O  s         
 
 Vector    7  Occ=2.000000D+00  E=-5.896651D-01
              MO Center= -1.2D-01,  7.2D-01,  2.2D-01, r^2= 2.0D+00
   Bfn.  Coefficient  Atom+Function         Bfn.  Coefficient  Atom+Function  
  ----- ------------  ---------------      ----- ------------  ---------------
    66      0.325554   3 C  s                65      0.277916   3 C  s         
     4     -0.238396   1 O  s                64     -0.171750   3 C  s         
     3     -0.168373   1 O  s                 5     -0.147871   1 O  s         
     2      0.111170   1 O  s                38      0.104644   2 C  py        
   132      0.102297   6 H  s                97     -0.099930   4 C  s         
 
 Vector    8  Occ=2.000000D+00  E=-5.306480D-01
              MO Center=  4.2D-01,  9.4D-03, -9.2D-02, r^2= 2.7D+00
   Bfn.  Coefficient  Atom+Function         Bfn.  Coefficient  Atom+Function  
  ----- ------------  ---------------      ----- ------------  ---------------
    35      0.301687   2 C  s                34      0.223659   2 C  s         
    97     -0.156985   4 C  s                66     -0.154168   3 C  s         
    33     -0.137769   2 C  s               126      0.134818   5 H  s         
    96     -0.130098   4 C  s               125      0.108237   5 H  s         
     6      0.105289   1 O  px               39      0.099660   2 C  pz        
 
 Vector    9  Occ=2.000000D+00  E=-4.479819D-01
              MO Center=  1.2D-01,  2.8D-01,  2.5D-01, r^2= 2.5D+00
   Bfn.  Coefficient  Atom+Function         Bfn.  Coefficient  Atom+Function  
  ----- ------------  ---------------      ----- ------------  ---------------
    70      0.208926   3 C  pz               39      0.158010   2 C  pz        
   132      0.144369   6 H  s                73      0.131510   3 C  pz        
     8      0.127261   1 O  pz              126      0.116377   5 H  s         
     6     -0.111155   1 O  px              131      0.107118   6 H  s         
    38     -0.106143   2 C  py               37      0.104024   2 C  px        
 
 Vector   10  Occ=2.000000D+00  E=-4.134236D-01
              MO Center=  4.6D-02,  2.8D-01, -2.3D-01, r^2= 2.6D+00
   Bfn.  Coefficient  Atom+Function         Bfn.  Coefficient  Atom+Function  
  ----- ------------  ---------------      ----- ------------  ---------------
    69      0.217267   3 C  py              138      0.153900   7 H  s         
   101      0.150014   4 C  pz                6     -0.144197   1 O  px        
    38     -0.141585   2 C  py               37      0.129018   2 C  px        
     7     -0.124157   1 O  py               72      0.122744   3 C  py        
     9     -0.115208   1 O  px               70     -0.114939   3 C  pz        
 
 Vector   11  Occ=2.000000D+00  E=-3.777242D-01
              MO Center=  9.3D-01, -3.6D-01, -7.7D-01, r^2= 2.6D+00
   Bfn.  Coefficient  Atom+Function         Bfn.  Coefficient  Atom+Function  
  ----- ------------  ---------------      ----- ------------  ---------------
    99      0.204940   4 C  px              144      0.184542   8 H  s         
   100      0.181351   4 C  py              150     -0.152467   9 H  s         
   102      0.130998   4 C  px              143      0.129560   8 H  s         
    37      0.128461   2 C  px                6     -0.120088   1 O  px        
   103      0.117927   4 C  py              149     -0.108192   9 H  s         
 
 Vector   12  Occ=2.000000D+00  E=-3.549964D-01
              MO Center=  5.5D-01, -2.6D-01, -8.2D-01, r^2= 3.0D+00
   Bfn.  Coefficient  Atom+Function         Bfn.  Coefficient  Atom+Function  
  ----- ------------  ---------------      ----- ------------  ---------------
   100      0.245744   4 C  py                7     -0.176271   1 O  py        
   150     -0.176203   9 H  s               156      0.176422  10 H  s         
   103      0.159312   4 C  py               10     -0.141455   1 O  py        
    70      0.128334   3 C  pz              155      0.123826  10 H  s         
   149     -0.123081   9 H  s               132      0.103291   6 H  s         
 
 Vector   13  Occ=2.000000D+00  E=-3.292182D-01
              MO Center=  3.2D-01,  2.4D-01, -2.3D-01, r^2= 2.7D+00
   Bfn.  Coefficient  Atom+Function         Bfn.  Coefficient  Atom+Function  
  ----- ------------  ---------------      ----- ------------  ---------------
    39      0.212280   2 C  pz              101     -0.192409   4 C  pz        
     7     -0.177098   1 O  py               70     -0.166878   3 C  pz        
   138      0.160784   7 H  s                10     -0.142966   1 O  py        
    42      0.143678   2 C  pz              104     -0.135216   4 C  pz        
    99      0.132782   4 C  px              137      0.108225   7 H  s         
 
 Vector   14  Occ=2.000000D+00  E=-3.208855D-01
              MO Center=  4.3D-01, -6.3D-02, -2.9D-01, r^2= 3.0D+00
   Bfn.  Coefficient  Atom+Function         Bfn.  Coefficient  Atom+Function  
  ----- ------------  ---------------      ----- ------------  ---------------
     7      0.194717   1 O  py              156      0.162981  10 H  s         
   126      0.161848   5 H  s                10      0.159859   1 O  py        
    99     -0.156886   4 C  px                6     -0.146083   1 O  px        
    39      0.136069   2 C  pz              101     -0.131120   4 C  pz        
    37      0.128789   2 C  px              144     -0.128496   8 H  s         
 
 Vector   15  Occ=2.000000D+00  E=-2.634587D-01
              MO Center=  1.2D-02,  1.6D-01,  4.0D-02, r^2= 2.3D+00
   Bfn.  Coefficient  Atom+Function         Bfn.  Coefficient  Atom+Function  
  ----- ------------  ---------------      ----- ------------  ---------------
    68      0.264684   3 C  px               38      0.256752   2 C  py        
     6     -0.237293   1 O  px               41      0.200251   2 C  py        
    71      0.196734   3 C  px                9     -0.185579   1 O  px        
    12     -0.157111   1 O  px              150      0.113563   9 H  s         
   100     -0.110504   4 C  py               67      0.106567   3 C  s         
 
 Vector   16  Occ=2.000000D+00  E=-2.195370D-01
              MO Center= -5.8D-01, -2.4D-02,  2.0D-01, r^2= 1.6D+00
   Bfn.  Coefficient  Atom+Function         Bfn.  Coefficient  Atom+Function  
  ----- ------------  ---------------      ----- ------------  ---------------
     8      0.449346   1 O  pz               11      0.357865   1 O  pz        
    14      0.296395   1 O  pz              133     -0.131590   6 H  s         
   139      0.116737   7 H  s               132     -0.104453   6 H  s         
   138      0.103957   7 H  s               145     -0.103028   8 H  s         
   126     -0.095804   5 H  s                98      0.088727   4 C  s         
 
 Vector   17  Occ=0.000000D+00  E= 2.577624D-02
              MO Center=  1.2D+00, -4.7D-02, -6.8D-01, r^2= 7.2D+00
   Bfn.  Coefficient  Atom+Function         Bfn.  Coefficient  Atom+Function  
  ----- ------------  ---------------      ----- ------------  ---------------
    98      4.500058   4 C  s               145     -1.526461   8 H  s         
   151     -1.493610   9 H  s               157     -1.380243  10 H  s         
   127     -1.195250   5 H  s                45      1.119252   2 C  pz        
   139     -0.905020   7 H  s                67      0.705216   3 C  s         
   133     -0.590599   6 H  s                74     -0.326741   3 C  px        
 
 Vector   18  Occ=0.000000D+00  E= 4.311265D-02
              MO Center= -1.3D-01,  6.5D-01,  1.0D-01, r^2= 4.5D+00
   Bfn.  Coefficient  Atom+Function         Bfn.  Coefficient  Atom+Function  
  ----- ------------  ---------------      ----- ------------  ---------------
    98      2.168224   4 C  s                36     -1.944200   2 C  s         
     5      1.272725   1 O  s                74      0.938969   3 C  px        
   151     -0.829314   9 H  s                45      0.518084   2 C  pz        
    67      0.460751   3 C  s                13      0.437908   1 O  py        
   157     -0.427269  10 H  s                44     -0.423283   2 C  py        
 
 Vector   19  Occ=0.000000D+00  E= 5.029786D-02
              MO Center=  5.1D-01,  2.1D-01, -4.8D-02, r^2= 6.7D+00
   Bfn.  Coefficient  Atom+Function         Bfn.  Coefficient  Atom+Function  
  ----- ------------  ---------------      ----- ------------  ---------------
    36      2.834793   2 C  s               127     -2.080275   5 H  s         
    67     -1.780959   3 C  s               139      1.411351   7 H  s         
    98     -1.248305   4 C  s               157      1.121403  10 H  s         
    76      0.646294   3 C  pz               43      0.591987   2 C  px        
    45      0.430568   2 C  pz                5      0.417575   1 O  s         
 
 Vector   20  Occ=0.000000D+00  E= 5.077874D-02
              MO Center=  4.3D-01,  8.2D-01,  3.9D-01, r^2= 7.3D+00
   Bfn.  Coefficient  Atom+Function         Bfn.  Coefficient  Atom+Function  
  ----- ------------  ---------------      ----- ------------  ---------------
    67      3.381872   3 C  s                98     -3.054337   4 C  s         
   133     -1.855746   6 H  s               145      1.201576   8 H  s         
    44     -1.157588   2 C  py              157      0.803193  10 H  s         
   139     -0.797145   7 H  s               151      0.691372   9 H  s         
   127     -0.587869   5 H  s                45     -0.542335   2 C  pz        
 
 Vector   21  Occ=0.000000D+00  E= 6.495645D-02
              MO Center=  2.7D-01,  1.3D-01, -1.6D-01, r^2= 4.7D+00
   Bfn.  Coefficient  Atom+Function         Bfn.  Coefficient  Atom+Function  
  ----- ------------  ---------------      ----- ------------  ---------------
    98      1.246871   4 C  s               139      1.251273   7 H  s         
    67     -0.960759   3 C  s               151     -0.926443   9 H  s         
     5     -0.883558   1 O  s                43     -0.839838   2 C  px        
    75     -0.568880   3 C  py              133      0.558361   6 H  s         
    12     -0.486300   1 O  px              127     -0.434631   5 H  s         
 
 Vector   22  Occ=0.000000D+00  E= 8.566751D-02
              MO Center=  1.2D+00,  1.8D-01, -5.0D-01, r^2= 7.1D+00
   Bfn.  Coefficient  Atom+Function         Bfn.  Coefficient  Atom+Function  
  ----- ------------  ---------------      ----- ------------  ---------------
    36      3.184569   2 C  s               145      1.945806   8 H  s         
    67     -1.459287   3 C  s               127     -1.453841   5 H  s         
    98     -1.330392   4 C  s               157     -1.329301  10 H  s         
   107     -1.186959   4 C  pz              133      1.089236   6 H  s         
   105     -0.933405   4 C  px               75      0.791318   3 C  py        
 
 Vector   23  Occ=0.000000D+00  E= 9.224757D-02
              MO Center=  1.3D+00, -7.0D-01, -6.5D-01, r^2= 6.3D+00
   Bfn.  Coefficient  Atom+Function         Bfn.  Coefficient  Atom+Function  
  ----- ------------  ---------------      ----- ------------  ---------------
    36      2.342249   2 C  s               151      2.143721   9 H  s         
   145     -1.791848   8 H  s                98     -1.321850   4 C  s         
   105      1.242545   4 C  px              106      1.152127   4 C  py        
   133      0.831232   6 H  s                67     -0.813932   3 C  s         
   127     -0.700360   5 H  s                44     -0.628111   2 C  py        
 
 Vector   24  Occ=0.000000D+00  E= 1.013837D-01
              MO Center=  4.0D-01,  4.7D-01, -9.6D-01, r^2= 7.1D+00
   Bfn.  Coefficient  Atom+Function         Bfn.  Coefficient  Atom+Function  
  ----- ------------  ---------------      ----- ------------  ---------------
   157      1.783159  10 H  s               133      1.705811   6 H  s         
   139     -1.606635   7 H  s               151     -1.527636   9 H  s         
   106     -1.483640   4 C  py               36      1.377287   2 C  s         
    76     -1.253800   3 C  pz               98     -1.166433   4 C  s         
   105      0.855249   4 C  px               45     -0.409166   2 C  pz        
 
 Vector   25  Occ=0.000000D+00  E= 1.391912D-01
              MO Center=  8.2D-01,  1.6D-01, -4.5D-01, r^2= 7.9D+00
   Bfn.  Coefficient  Atom+Function         Bfn.  Coefficient  Atom+Function  
  ----- ------------  ---------------      ----- ------------  ---------------
    36      4.548996   2 C  s                98     -3.461871   4 C  s         
    45     -3.438330   2 C  pz              127      2.810850   5 H  s         
    67     -2.772604   3 C  s                76      2.157947   3 C  pz        
   105      2.110196   4 C  px              133     -1.768937   6 H  s         
   139      1.692409   7 H  s               107     -1.558082   4 C  pz        
 
 Vector   26  Occ=0.000000D+00  E= 1.703720D-01
              MO Center=  4.1D-01,  5.8D-01, -1.3D-01, r^2= 7.3D+00
   Bfn.  Coefficient  Atom+Function         Bfn.  Coefficient  Atom+Function  
  ----- ------------  ---------------      ----- ------------  ---------------
    75      2.364997   3 C  py              107      1.586492   4 C  pz        
    67     -1.538229   3 C  s                36      1.513106   2 C  s         
   139     -1.215627   7 H  s                74     -0.992696   3 C  px        
   157      0.939132  10 H  s                44      0.744993   2 C  py        
    43     -0.613482   2 C  px              106     -0.542239   4 C  py        
 
 Vector   27  Occ=0.000000D+00  E= 1.971516D-01
              MO Center=  8.0D-01, -8.9D-02, -9.9D-01, r^2= 5.1D+00
   Bfn.  Coefficient  Atom+Function         Bfn.  Coefficient  Atom+Function  
  ----- ------------  ---------------      ----- ------------  ---------------
    67      3.041143   3 C  s                44     -2.577884   2 C  py        
   106      1.979872   4 C  py               36     -1.778166   2 C  s         
    43      0.959040   2 C  px              105      0.779644   4 C  px        
    74      0.735851   3 C  px               45     -0.700482   2 C  pz        
   150      0.643561   9 H  s               157     -0.629581  10 H  s         
 
 Vector   28  Occ=0.000000D+00  E= 2.026904D-01
              MO Center=  9.9D-01, -4.5D-01, -6.9D-01, r^2= 6.6D+00
   Bfn.  Coefficient  Atom+Function         Bfn.  Coefficient  Atom+Function  
  ----- ------------  ---------------      ----- ------------  ---------------
    36      2.631922   2 C  s                75      1.635842   3 C  py        
   105     -1.380767   4 C  px              133     -1.247244   6 H  s         
   107     -0.945063   4 C  pz              106      0.886115   4 C  py        
   139     -0.725517   7 H  s                45      0.714124   2 C  pz        
    76      0.704953   3 C  pz              156     -0.701347  10 H  s         
 
 Vector   29  Occ=0.000000D+00  E= 2.365246D-01
              MO Center= -3.0D-01,  3.9D-01, -5.1D-02, r^2= 5.4D+00
   Bfn.  Coefficient  Atom+Function         Bfn.  Coefficient  Atom+Function  
  ----- ------------  ---------------      ----- ------------  ---------------
    67      4.459572   3 C  s                36     -3.040324   2 C  s         
   139     -1.541497   7 H  s                66     -1.454823   3 C  s         
    98      1.255451   4 C  s               133     -1.251261   6 H  s         
   107      0.997897   4 C  pz               74     -0.801316   3 C  px        
     5     -0.774575   1 O  s               106      0.775140   4 C  py        
 
 Vector   30  Occ=0.000000D+00  E= 2.474934D-01
              MO Center=  5.4D-01,  1.6D-02, -8.0D-02, r^2= 5.9D+00
   Bfn.  Coefficient  Atom+Function         Bfn.  Coefficient  Atom+Function  
  ----- ------------  ---------------      ----- ------------  ---------------
    67      6.000445   3 C  s                43      4.204583   2 C  px        
    75     -3.003900   3 C  py               44     -2.628465   2 C  py        
    36     -2.178185   2 C  s               107     -2.016148   4 C  pz        
   157     -1.742131  10 H  s                45     -1.458108   2 C  pz        
    98     -1.368699   4 C  s               105     -1.192502   4 C  px        
 
 Vector   31  Occ=0.000000D+00  E= 2.691820D-01
              MO Center=  2.7D-01, -1.8D-01,  2.3D-01, r^2= 5.6D+00
   Bfn.  Coefficient  Atom+Function         Bfn.  Coefficient  Atom+Function  
  ----- ------------  ---------------      ----- ------------  ---------------
    36      4.373257   2 C  s                 5     -2.268960   1 O  s         
    67      2.221541   3 C  s                43     -1.532492   2 C  px        
   105      1.500542   4 C  px               66     -1.163276   3 C  s         
    98     -0.956653   4 C  s               127     -0.929012   5 H  s         
   139     -0.900748   7 H  s               133     -0.868918   6 H  s         
 
 Vector   32  Occ=0.000000D+00  E= 2.778811D-01
              MO Center=  4.3D-01,  3.5D-01,  3.0D-01, r^2= 4.1D+00
   Bfn.  Coefficient  Atom+Function         Bfn.  Coefficient  Atom+Function  
  ----- ------------  ---------------      ----- ------------  ---------------
    36      2.376487   2 C  s                67     -1.720234   3 C  s         
     5     -1.662099   1 O  s                43     -1.237250   2 C  px        
    74     -0.737840   3 C  px               98     -0.727933   4 C  s         
    45     -0.657066   2 C  pz              145      0.603387   8 H  s         
     4      0.488128   1 O  s                66      0.432174   3 C  s         
 
 Vector   33  Occ=0.000000D+00  E= 3.007760D-01
              MO Center=  4.3D-01,  3.7D-01, -3.9D-01, r^2= 5.0D+00
   Bfn.  Coefficient  Atom+Function         Bfn.  Coefficient  Atom+Function  
  ----- ------------  ---------------      ----- ------------  ---------------
    43      1.901410   2 C  px              106      1.756915   4 C  py        
   151      1.675550   9 H  s                98     -1.567330   4 C  s         
    76      1.332407   3 C  pz               36     -1.274275   2 C  s         
    44     -1.258047   2 C  py               66      1.029275   3 C  s         
   107     -1.029698   4 C  pz              139      0.967980   7 H  s         
 
 Vector   34  Occ=0.000000D+00  E= 3.376009D-01
              MO Center=  1.0D-01,  4.3D-01, -4.1D-01, r^2= 5.8D+00
   Bfn.  Coefficient  Atom+Function         Bfn.  Coefficient  Atom+Function  
  ----- ------------  ---------------      ----- ------------  ---------------
    67      4.514365   3 C  s                76     -3.981495   3 C  pz        
   139     -3.187349   7 H  s                36     -2.298533   2 C  s         
   133      2.012469   6 H  s               107     -1.743018   4 C  pz        
   157     -1.647776  10 H  s                98      1.459394   4 C  s         
    43      1.341017   2 C  px               44     -1.092010   2 C  py        
 
 Vector   35  Occ=0.000000D+00  E= 3.632193D-01
              MO Center=  7.3D-01, -3.5D-03, -4.2D-01, r^2= 6.8D+00
   Bfn.  Coefficient  Atom+Function         Bfn.  Coefficient  Atom+Function  
  ----- ------------  ---------------      ----- ------------  ---------------
    98      8.696846   4 C  s                97     -3.348278   4 C  s         
    76      3.315992   3 C  pz              145     -3.303152   8 H  s         
   133     -2.463878   6 H  s               151     -2.039158   9 H  s         
   157     -1.619773  10 H  s                45     -1.580557   2 C  pz        
   139      1.535963   7 H  s                44      1.507589   2 C  py        
 
 Vector   36  Occ=0.000000D+00  E= 3.726687D-01
              MO Center=  5.1D-01,  3.0D-01, -5.4D-02, r^2= 6.2D+00
   Bfn.  Coefficient  Atom+Function         Bfn.  Coefficient  Atom+Function  
  ----- ------------  ---------------      ----- ------------  ---------------
    36     13.328748   2 C  s                67     -8.727109   3 C  s         
    98     -8.393549   4 C  s               127     -2.994119   5 H  s         
   157      2.237901  10 H  s                44      2.164878   2 C  py        
    97      2.153091   4 C  s                35     -1.960360   2 C  s         
    74     -1.668597   3 C  px               75      1.674533   3 C  py        
 
 Vector   37  Occ=0.000000D+00  E= 3.849471D-01
              MO Center=  9.7D-01, -3.8D-01, -2.0D-01, r^2= 6.0D+00
   Bfn.  Coefficient  Atom+Function         Bfn.  Coefficient  Atom+Function  
  ----- ------------  ---------------      ----- ------------  ---------------
    36      6.246337   2 C  s               127     -4.026689   5 H  s         
    98      3.753906   4 C  s                45      2.409974   2 C  pz        
   151     -2.287491   9 H  s                35     -2.215714   2 C  s         
    67     -2.189765   3 C  s               145     -2.177073   8 H  s         
    76     -1.652754   3 C  pz               43      1.588968   2 C  px        
 
 Vector   38  Occ=0.000000D+00  E= 3.931688D-01
              MO Center=  1.2D-01,  1.1D-01, -2.6D-01, r^2= 6.5D+00
   Bfn.  Coefficient  Atom+Function         Bfn.  Coefficient  Atom+Function  
  ----- ------------  ---------------      ----- ------------  ---------------
    98     12.675076   4 C  s                45      6.155656   2 C  pz        
    67     -5.328326   3 C  s                76     -3.421675   3 C  pz        
   157     -2.873450  10 H  s               133      2.539680   6 H  s         
    36     -2.144020   2 C  s                44      1.973836   2 C  py        
    75      1.774261   3 C  py               97     -1.703175   4 C  s         
 
 Vector   39  Occ=0.000000D+00  E= 4.019773D-01
              MO Center= -1.4D-01,  2.9D-01,  3.0D-01, r^2= 6.5D+00
   Bfn.  Coefficient  Atom+Function         Bfn.  Coefficient  Atom+Function  
  ----- ------------  ---------------      ----- ------------  ---------------
    67     12.500051   3 C  s                36    -11.135759   2 C  s         
    45      4.674317   2 C  pz               44     -4.062735   2 C  py        
    98      3.513594   4 C  s               127     -3.028540   5 H  s         
    66     -2.712230   3 C  s                43      2.681880   2 C  px        
   105     -2.255524   4 C  px              139     -2.247351   7 H  s         
 
 Vector   40  Occ=0.000000D+00  E= 4.154531D-01
              MO Center=  5.1D-01, -7.5D-02, -5.4D-01, r^2= 6.2D+00
   Bfn.  Coefficient  Atom+Function         Bfn.  Coefficient  Atom+Function  
  ----- ------------  ---------------      ----- ------------  ---------------
    98      4.249412   4 C  s                45      2.028265   2 C  pz        
   105     -2.014246   4 C  px              157     -1.796948  10 H  s         
   145      1.714444   8 H  s               151     -1.684592   9 H  s         
    67     -1.572187   3 C  s               133     -0.922869   6 H  s         
   132      0.887611   6 H  s               127     -0.882184   5 H  s         
 
 Vector   41  Occ=0.000000D+00  E= 4.275118D-01
              MO Center=  6.7D-01, -1.3D-01, -3.9D-01, r^2= 6.9D+00
   Bfn.  Coefficient  Atom+Function         Bfn.  Coefficient  Atom+Function  
  ----- ------------  ---------------      ----- ------------  ---------------
    36     10.287063   2 C  s                98     -6.591498   4 C  s         
    67     -4.407474   3 C  s               151      2.979607   9 H  s         
    45     -2.542243   2 C  pz               44      2.330642   2 C  py        
    75      2.322401   3 C  py              105      1.861721   4 C  px        
    43     -1.618009   2 C  px               35     -1.446004   2 C  s         
 
 Vector   42  Occ=0.000000D+00  E= 4.478541D-01
              MO Center=  1.5D-01, -6.2D-02, -1.9D-01, r^2= 6.2D+00
   Bfn.  Coefficient  Atom+Function         Bfn.  Coefficient  Atom+Function  
  ----- ------------  ---------------      ----- ------------  ---------------
    36      8.922006   2 C  s                98     -7.720133   4 C  s         
    45     -5.055211   2 C  pz               67     -3.078783   3 C  s         
   127      2.930514   5 H  s                44      2.498012   2 C  py        
    76      2.450399   3 C  pz               75      2.052126   3 C  py        
   157      2.040043  10 H  s               133     -2.027940   6 H  s         
 
 Vector   43  Occ=0.000000D+00  E= 4.596136D-01
              MO Center=  1.2D-01,  6.8D-01, -5.5D-01, r^2= 5.3D+00
   Bfn.  Coefficient  Atom+Function         Bfn.  Coefficient  Atom+Function  
  ----- ------------  ---------------      ----- ------------  ---------------
   139      3.310990   7 H  s                98     -3.004114   4 C  s         
    45     -2.703757   2 C  pz              107     -2.641075   4 C  pz        
    75     -2.178896   3 C  py              157     -2.086460  10 H  s         
    43      1.656486   2 C  px               36      1.569611   2 C  s         
    44     -1.565655   2 C  py               76      1.360663   3 C  pz        
 
 Vector   44  Occ=0.000000D+00  E= 4.696530D-01
              MO Center=  4.1D-01,  2.6D-01,  1.1D-01, r^2= 5.6D+00
   Bfn.  Coefficient  Atom+Function         Bfn.  Coefficient  Atom+Function  
  ----- ------------  ---------------      ----- ------------  ---------------
    98      6.460219   4 C  s                36     -5.560828   2 C  s         
    45      2.524901   2 C  pz              145     -1.830946   8 H  s         
   107      1.670302   4 C  pz              133     -1.466275   6 H  s         
    35      1.317003   2 C  s                67      1.295870   3 C  s         
   132      1.180907   6 H  s               126     -1.161900   5 H  s         
 
 Vector   45  Occ=0.000000D+00  E= 5.078149D-01
              MO Center=  9.7D-01, -4.2D-01, -9.5D-01, r^2= 4.7D+00
   Bfn.  Coefficient  Atom+Function         Bfn.  Coefficient  Atom+Function  
  ----- ------------  ---------------      ----- ------------  ---------------
    98     11.390090   4 C  s                36     -7.360188   2 C  s         
    45      4.646363   2 C  pz              107      2.949199   4 C  pz        
   106      1.409423   4 C  py              144     -1.414998   8 H  s         
   127     -1.289812   5 H  s               150     -1.193800   9 H  s         
   105     -1.176306   4 C  px              156     -1.101183  10 H  s         
 
 Vector   46  Occ=0.000000D+00  E= 5.366818D-01
              MO Center=  6.1D-02, -4.0D-01, -4.6D-01, r^2= 4.4D+00
   Bfn.  Coefficient  Atom+Function         Bfn.  Coefficient  Atom+Function  
  ----- ------------  ---------------      ----- ------------  ---------------
    98     -6.764521   4 C  s                36      6.437986   2 C  s         
    45     -3.456623   2 C  pz               76      3.243040   3 C  pz        
   133     -1.820904   6 H  s               105      1.487379   4 C  px        
   139      1.430896   7 H  s               107     -1.314900   4 C  pz        
    14     -1.201067   1 O  pz                5     -1.119770   1 O  s         
 
 Vector   47  Occ=0.000000D+00  E= 6.577893D-01
              MO Center= -3.7D-01,  3.2D-02, -2.1D-02, r^2= 4.3D+00
   Bfn.  Coefficient  Atom+Function         Bfn.  Coefficient  Atom+Function  
  ----- ------------  ---------------      ----- ------------  ---------------
    36     11.470357   2 C  s                67     -8.850147   3 C  s         
    98     -3.980130   4 C  s                43     -2.575466   2 C  px        
    75      2.392628   3 C  py               13      2.195982   1 O  py        
    76      2.049661   3 C  pz              105      1.582635   4 C  px        
   139      1.510861   7 H  s                44      1.450007   2 C  py        
 
 Vector   48  Occ=0.000000D+00  E= 6.745293D-01
              MO Center= -3.0D-01,  3.5D-01,  1.2D-01, r^2= 3.9D+00
   Bfn.  Coefficient  Atom+Function         Bfn.  Coefficient  Atom+Function  
  ----- ------------  ---------------      ----- ------------  ---------------
    36      8.377964   2 C  s                67     -8.072543   3 C  s         
     5      2.945446   1 O  s                75      2.622440   3 C  py        
    98     -2.285520   4 C  s                13      2.148478   1 O  py        
    43     -1.312858   2 C  px               45     -1.299529   2 C  pz        
     4     -1.094010   1 O  s                44      1.010978   2 C  py        
 
 Vector   49  Occ=0.000000D+00  E= 7.079502D-01
              MO Center=  1.7D-01, -3.2D-01, -2.7D-01, r^2= 4.5D+00
   Bfn.  Coefficient  Atom+Function         Bfn.  Coefficient  Atom+Function  
  ----- ------------  ---------------      ----- ------------  ---------------
    67      9.384238   3 C  s                36     -7.236312   2 C  s         
    43      3.628786   2 C  px               44     -3.463329   2 C  py        
    75     -2.724851   3 C  py               98     -2.620975   4 C  s         
     5      2.290211   1 O  s                12      1.688986   1 O  px        
   106      1.655707   4 C  py               13     -1.292482   1 O  py        
 
 Vector   50  Occ=0.000000D+00  E= 7.618729D-01
              MO Center=  6.3D-01, -1.1D-02, -3.3D-01, r^2= 4.1D+00
   Bfn.  Coefficient  Atom+Function         Bfn.  Coefficient  Atom+Function  
  ----- ------------  ---------------      ----- ------------  ---------------
    45      2.373292   2 C  pz              127     -1.715300   5 H  s         
   105     -1.609916   4 C  px               36      1.546973   2 C  s         
     5     -1.474230   1 O  s                43      1.463591   2 C  px        
   126     -1.386708   5 H  s               144      1.304222   8 H  s         
    76     -0.992171   3 C  pz               66      0.983092   3 C  s         
 
 Vector   51  Occ=0.000000D+00  E= 7.941806D-01
              MO Center=  2.7D-01,  5.2D-02, -1.8D-01, r^2= 4.4D+00
   Bfn.  Coefficient  Atom+Function         Bfn.  Coefficient  Atom+Function  
  ----- ------------  ---------------      ----- ------------  ---------------
     5      4.167809   1 O  s                36     -2.853513   2 C  s         
    76     -2.532088   3 C  pz                4     -1.614536   1 O  s         
    45      1.602587   2 C  pz               12      1.359234   1 O  px        
   133      1.329535   6 H  s                43      1.274455   2 C  px        
    35     -1.019974   2 C  s                66     -1.020680   3 C  s         
 
 Vector   52  Occ=0.000000D+00  E= 8.318364D-01
              MO Center=  3.3D-01,  1.7D-01, -1.1D-02, r^2= 4.4D+00
   Bfn.  Coefficient  Atom+Function         Bfn.  Coefficient  Atom+Function  
  ----- ------------  ---------------      ----- ------------  ---------------
    36      6.572905   2 C  s                98     -4.035592   4 C  s         
     5     -3.875790   1 O  s                43     -2.569993   2 C  px        
   105      1.943734   4 C  px               35     -1.868321   2 C  s         
    45     -1.787269   2 C  pz               44      1.490120   2 C  py        
    66     -1.210957   3 C  s                97      1.059966   4 C  s         
 
 Vector   53  Occ=0.000000D+00  E= 8.547733D-01
              MO Center=  6.1D-01,  1.2D-01, -3.9D-01, r^2= 4.2D+00
   Bfn.  Coefficient  Atom+Function         Bfn.  Coefficient  Atom+Function  
  ----- ------------  ---------------      ----- ------------  ---------------
    98     -4.598101   4 C  s                45     -4.548239   2 C  pz        
    36      4.513659   2 C  s                76      2.052958   3 C  pz        
   127      1.832198   5 H  s               106     -1.557820   4 C  py        
    44      1.495888   2 C  py              105      1.332480   4 C  px        
   150     -1.281641   9 H  s               139      1.079003   7 H  s         
 
 Vector   54  Occ=0.000000D+00  E= 8.714906D-01
              MO Center=  1.7D-01, -3.9D-02, -1.2D-01, r^2= 4.2D+00
   Bfn.  Coefficient  Atom+Function         Bfn.  Coefficient  Atom+Function  
  ----- ------------  ---------------      ----- ------------  ---------------
     5      4.639377   1 O  s                36     -1.819987   2 C  s         
     4     -1.574530   1 O  s               138      1.442400   7 H  s         
    76      1.305002   3 C  pz               67     -1.220723   3 C  s         
    12      1.194747   1 O  px               66     -1.148255   3 C  s         
    98     -0.927282   4 C  s                43      0.877100   2 C  px        
 
 Vector   55  Occ=0.000000D+00  E= 9.203053D-01
              MO Center=  5.1D-01,  3.1D-01, -4.7D-01, r^2= 4.5D+00
   Bfn.  Coefficient  Atom+Function         Bfn.  Coefficient  Atom+Function  
  ----- ------------  ---------------      ----- ------------  ---------------
    35      4.933157   2 C  s                36     -1.733768   2 C  s         
    67      1.464856   3 C  s               132     -1.334273   6 H  s         
    72      1.263206   3 C  py               66     -1.243055   3 C  s         
    84      1.157113   3 C  d  0             41      1.130981   2 C  py        
   156     -1.077862  10 H  s               116     -1.065928   4 C  d  1      
 
 Vector   56  Occ=0.000000D+00  E= 9.610926D-01
              MO Center=  4.5D-01,  3.0D-01, -5.4D-01, r^2= 4.7D+00
   Bfn.  Coefficient  Atom+Function         Bfn.  Coefficient  Atom+Function  
  ----- ------------  ---------------      ----- ------------  ---------------
    35      4.213191   2 C  s                67      2.563752   3 C  s         
   138     -2.369557   7 H  s                76     -1.822450   3 C  pz        
    42     -1.747302   2 C  pz               83     -1.656679   3 C  d -1      
    36     -1.488560   2 C  s               115     -1.462307   4 C  d  0      
    98     -1.409047   4 C  s               132      1.364382   6 H  s         
 
 Vector   57  Occ=0.000000D+00  E= 9.918752D-01
              MO Center=  3.4D-01,  4.9D-01, -1.2D-01, r^2= 4.1D+00
   Bfn.  Coefficient  Atom+Function         Bfn.  Coefficient  Atom+Function  
  ----- ------------  ---------------      ----- ------------  ---------------
    36      7.276417   2 C  s                98     -4.739249   4 C  s         
    67     -3.856372   3 C  s                45     -3.711528   2 C  pz        
    43     -2.305357   2 C  px               44      2.123664   2 C  py        
    66     -1.665197   3 C  s               127      1.595673   5 H  s         
    75      1.446742   3 C  py              126      1.378556   5 H  s         
 
 Vector   58  Occ=0.000000D+00  E= 1.012099D+00
              MO Center=  3.9D-01,  5.3D-01, -5.8D-02, r^2= 4.3D+00
   Bfn.  Coefficient  Atom+Function         Bfn.  Coefficient  Atom+Function  
  ----- ------------  ---------------      ----- ------------  ---------------
    36      5.542495   2 C  s                67     -4.541488   3 C  s         
    45     -2.205219   2 C  pz               44      1.897264   2 C  py        
    98     -1.772129   4 C  s               144      1.399821   8 H  s         
   156     -1.398103  10 H  s                43     -1.369474   2 C  px        
    82      1.345341   3 C  d -2             74     -1.329616   3 C  px        
 
 Vector   59  Occ=0.000000D+00  E= 1.042148D+00
              MO Center=  7.0D-01, -1.7D-01, -4.7D-01, r^2= 4.2D+00
   Bfn.  Coefficient  Atom+Function         Bfn.  Coefficient  Atom+Function  
  ----- ------------  ---------------      ----- ------------  ---------------
    35      2.694715   2 C  s                36      2.657018   2 C  s         
    66     -2.329445   3 C  s               150      2.017441   9 H  s         
   144     -1.954718   8 H  s                 5     -1.881145   1 O  s         
   117      1.742925   4 C  d  2             41      1.524201   2 C  py        
    44      1.357043   2 C  py               67     -1.293655   3 C  s         
 
 Vector   60  Occ=0.000000D+00  E= 1.079115D+00
              MO Center=  6.7D-01,  1.6D-02, -7.3D-02, r^2= 4.1D+00
   Bfn.  Coefficient  Atom+Function         Bfn.  Coefficient  Atom+Function  
  ----- ------------  ---------------      ----- ------------  ---------------
    98     -4.180546   4 C  s                66      4.025649   3 C  s         
    45     -3.824256   2 C  pz               97     -3.801226   4 C  s         
    36      3.488132   2 C  s                41     -2.560176   2 C  py        
   104     -2.483932   4 C  pz               42     -2.356703   2 C  pz        
    72     -2.339244   3 C  py               53      2.233563   2 C  d  0      
 
 Vector   61  Occ=0.000000D+00  E= 1.105158D+00
              MO Center=  3.7D-01,  5.5D-02,  6.1D-02, r^2= 3.8D+00
   Bfn.  Coefficient  Atom+Function         Bfn.  Coefficient  Atom+Function  
  ----- ------------  ---------------      ----- ------------  ---------------
    36      7.539261   2 C  s                67     -5.262064   3 C  s         
    98     -2.902731   4 C  s                66      2.142528   3 C  s         
   126     -2.049169   5 H  s                45     -1.941249   2 C  pz        
   132      1.655551   6 H  s                72     -1.602218   3 C  py        
    41     -1.492141   2 C  py               53      1.449332   2 C  d  0      
 
 Vector   62  Occ=0.000000D+00  E= 1.146971D+00
              MO Center=  6.2D-01,  1.4D-02, -2.9D-02, r^2= 3.6D+00
   Bfn.  Coefficient  Atom+Function         Bfn.  Coefficient  Atom+Function  
  ----- ------------  ---------------      ----- ------------  ---------------
    67      5.156271   3 C  s                36     -3.908824   2 C  s         
    44     -2.391195   2 C  py              126      1.894865   5 H  s         
    97     -1.735534   4 C  s                54      1.589505   2 C  d  1      
    43      1.558323   2 C  px               55      1.472143   2 C  d  2      
    42     -1.463845   2 C  pz               75     -1.438805   3 C  py        
 
 Vector   63  Occ=0.000000D+00  E= 1.215010D+00
              MO Center=  5.5D-01,  2.0D-01, -1.4D-01, r^2= 3.8D+00
   Bfn.  Coefficient  Atom+Function         Bfn.  Coefficient  Atom+Function  
  ----- ------------  ---------------      ----- ------------  ---------------
    36      6.790960   2 C  s                66     -5.001013   3 C  s         
    67     -3.311623   3 C  s                97     -3.268786   4 C  s         
    35      3.130584   2 C  s                72      1.913397   3 C  py        
    51     -1.760481   2 C  d -2             52      1.689337   2 C  d -1      
   138      1.680207   7 H  s               104     -1.527190   4 C  pz        
 
 Vector   64  Occ=0.000000D+00  E= 1.348833D+00
              MO Center=  3.4D-01,  5.5D-01,  2.3D-01, r^2= 3.5D+00
   Bfn.  Coefficient  Atom+Function         Bfn.  Coefficient  Atom+Function  
  ----- ------------  ---------------      ----- ------------  ---------------
    66      4.695507   3 C  s                35      3.992576   2 C  s         
    67     -3.034475   3 C  s                36     -2.917536   2 C  s         
    65     -2.408999   3 C  s               132     -2.049291   6 H  s         
    34     -1.473748   2 C  s               133      1.431812   6 H  s         
    72      1.363605   3 C  py              139      1.071092   7 H  s         
 
 Vector   65  Occ=0.000000D+00  E= 1.414438D+00
              MO Center=  1.8D-01,  4.8D-01, -3.2D-02, r^2= 3.4D+00
   Bfn.  Coefficient  Atom+Function         Bfn.  Coefficient  Atom+Function  
  ----- ------------  ---------------      ----- ------------  ---------------
    36      4.523294   2 C  s                35     -3.805129   2 C  s         
    66      3.813900   3 C  s                67     -3.761255   3 C  s         
    73     -2.290018   3 C  pz              138     -2.244902   7 H  s         
   139      2.182099   7 H  s               126      1.992728   5 H  s         
    42     -1.614420   2 C  pz               76      1.594487   3 C  pz        
 
 Vector   66  Occ=0.000000D+00  E= 1.431283D+00
              MO Center=  1.1D+00, -4.6D-01, -1.1D+00, r^2= 3.5D+00
   Bfn.  Coefficient  Atom+Function         Bfn.  Coefficient  Atom+Function  
  ----- ------------  ---------------      ----- ------------  ---------------
    98      9.832835   4 C  s                97     -7.552421   4 C  s         
    96      3.038149   4 C  s               145     -2.579869   8 H  s         
   151     -2.361784   9 H  s               144      1.918396   8 H  s         
   157     -1.785224  10 H  s                36     -1.736080   2 C  s         
   150      1.734079   9 H  s               104      1.218197   4 C  pz        
 
 Vector   67  Occ=0.000000D+00  E= 1.440495D+00
              MO Center=  4.8D-01, -4.7D-02, -3.6D-01, r^2= 4.2D+00
   Bfn.  Coefficient  Atom+Function         Bfn.  Coefficient  Atom+Function  
  ----- ------------  ---------------      ----- ------------  ---------------
    66      4.113238   3 C  s                67     -2.990179   3 C  s         
    35     -2.844050   2 C  s                98      2.528956   4 C  s         
    36      2.336183   2 C  s               133      1.746192   6 H  s         
    45      1.557466   2 C  pz               76     -1.535269   3 C  pz        
    65     -1.476722   3 C  s               150      1.459114   9 H  s         
 
 Vector   68  Occ=0.000000D+00  E= 1.445850D+00
              MO Center=  2.7D-01, -1.5D-02, -2.6D-02, r^2= 3.1D+00
   Bfn.  Coefficient  Atom+Function         Bfn.  Coefficient  Atom+Function  
  ----- ------------  ---------------      ----- ------------  ---------------
    98      5.363890   4 C  s                97     -2.896745   4 C  s         
    36     -2.367780   2 C  s                45      2.299223   2 C  pz        
     5      1.872947   1 O  s                35     -1.803885   2 C  s         
   127     -1.556658   5 H  s                76     -1.243660   3 C  pz        
    96      1.216299   4 C  s               126      1.155360   5 H  s         
 
 Vector   69  Occ=0.000000D+00  E= 1.474962D+00
              MO Center=  8.6D-01, -2.1D-01, -9.0D-01, r^2= 3.7D+00
   Bfn.  Coefficient  Atom+Function         Bfn.  Coefficient  Atom+Function  
  ----- ------------  ---------------      ----- ------------  ---------------
    66      2.382186   3 C  s                36      1.478075   2 C  s         
    67     -1.464790   3 C  s                 5     -1.234277   1 O  s         
   133      1.060219   6 H  s                97      1.029830   4 C  s         
    65     -0.986520   3 C  s               132     -0.951333   6 H  s         
   103      0.934107   4 C  py               98     -0.927891   4 C  s         
 
 Vector   70  Occ=0.000000D+00  E= 1.481679D+00
              MO Center=  9.1D-01, -3.2D-01, -1.0D+00, r^2= 3.4D+00
   Bfn.  Coefficient  Atom+Function         Bfn.  Coefficient  Atom+Function  
  ----- ------------  ---------------      ----- ------------  ---------------
    36      2.630950   2 C  s               156     -2.618121  10 H  s         
   157      2.173983  10 H  s                66     -1.990198   3 C  s         
   102     -1.961422   4 C  px              126      1.840460   5 H  s         
   104     -1.782206   4 C  pz               98     -1.598052   4 C  s         
   103      1.541286   4 C  py              127     -1.469737   5 H  s         
 
 Vector   71  Occ=0.000000D+00  E= 1.511378D+00
              MO Center=  3.5D-01,  1.3D-01, -3.2D-01, r^2= 4.0D+00
   Bfn.  Coefficient  Atom+Function         Bfn.  Coefficient  Atom+Function  
  ----- ------------  ---------------      ----- ------------  ---------------
    98      2.738622   4 C  s               144      1.921645   8 H  s         
   102     -1.588290   4 C  px              145     -1.461513   8 H  s         
   103     -1.448281   4 C  py               97     -1.290264   4 C  s         
    45      1.272196   2 C  pz              150     -1.024371   9 H  s         
    66      1.000159   3 C  s                36     -0.872709   2 C  s         
 
 Vector   72  Occ=0.000000D+00  E= 1.542144D+00
              MO Center=  3.6D-01,  4.5D-01, -2.1D-01, r^2= 4.6D+00
   Bfn.  Coefficient  Atom+Function         Bfn.  Coefficient  Atom+Function  
  ----- ------------  ---------------      ----- ------------  ---------------
    36      4.303909   2 C  s                35     -3.701296   2 C  s         
    98     -3.559124   4 C  s                97      3.066105   4 C  s         
    67     -2.438131   3 C  s                73      2.133406   3 C  pz        
   132     -1.747720   6 H  s               133      1.434832   6 H  s         
   102     -1.389916   4 C  px              138      1.379053   7 H  s         
 
 Vector   73  Occ=0.000000D+00  E= 1.577471D+00
              MO Center=  4.7D-01, -1.2D-02, -8.9D-02, r^2= 3.2D+00
   Bfn.  Coefficient  Atom+Function         Bfn.  Coefficient  Atom+Function  
  ----- ------------  ---------------      ----- ------------  ---------------
    35      3.459939   2 C  s                36     -2.756553   2 C  s         
    40     -2.054827   2 C  px               97     -2.016254   4 C  s         
   126      1.819588   5 H  s                67      1.804380   3 C  s         
    72      1.548055   3 C  py               42     -1.510453   2 C  pz        
    34     -1.466620   2 C  s                98      1.349269   4 C  s         
 
 Vector   74  Occ=0.000000D+00  E= 1.597987D+00
              MO Center=  3.3D-01,  3.9D-01, -1.5D-01, r^2= 3.4D+00
   Bfn.  Coefficient  Atom+Function         Bfn.  Coefficient  Atom+Function  
  ----- ------------  ---------------      ----- ------------  ---------------
    36     -5.374850   2 C  s                66     -5.196996   3 C  s         
    35      5.117185   2 C  s                67      3.973172   3 C  s         
    41      3.704772   2 C  py               71     -2.553086   3 C  px        
    72      2.368067   3 C  py               40     -2.050215   2 C  px        
    98      1.838157   4 C  s                82      1.676979   3 C  d -2      
 
 Vector   75  Occ=0.000000D+00  E= 1.643763D+00
              MO Center=  4.5D-01,  1.8D-01, -3.7D-02, r^2= 3.7D+00
   Bfn.  Coefficient  Atom+Function         Bfn.  Coefficient  Atom+Function  
  ----- ------------  ---------------      ----- ------------  ---------------
    66      2.807403   3 C  s                35      2.094686   2 C  s         
    98      1.958643   4 C  s                 5     -1.804740   1 O  s         
    97     -1.622384   4 C  s                67     -1.446824   3 C  s         
   104     -1.143617   4 C  pz              144      1.144127   8 H  s         
   150     -1.099631   9 H  s               103     -1.083714   4 C  py        
 
 Vector   76  Occ=0.000000D+00  E= 1.696186D+00
              MO Center=  4.5D-01,  2.9D-01, -3.8D-01, r^2= 3.9D+00
   Bfn.  Coefficient  Atom+Function         Bfn.  Coefficient  Atom+Function  
  ----- ------------  ---------------      ----- ------------  ---------------
    97     -5.779594   4 C  s                35      5.274577   2 C  s         
   104     -3.084425   4 C  pz               42     -3.047267   2 C  pz        
    72     -1.918385   3 C  py              102      1.742790   4 C  px        
     5     -1.620566   1 O  s                34     -1.602664   2 C  s         
    40      1.556160   2 C  px               96      1.548020   4 C  s         
 
 Vector   77  Occ=0.000000D+00  E= 1.701406D+00
              MO Center=  6.6D-02,  1.1D-01, -1.2D-01, r^2= 3.6D+00
   Bfn.  Coefficient  Atom+Function         Bfn.  Coefficient  Atom+Function  
  ----- ------------  ---------------      ----- ------------  ---------------
     5      3.611111   1 O  s                72      2.838852   3 C  py        
    36     -2.364848   2 C  s                66     -2.174182   3 C  s         
   138     -1.620759   7 H  s                12      1.404365   1 O  px        
    41      1.275908   2 C  py               43      1.160960   2 C  px        
    67      1.021246   3 C  s                44     -0.984674   2 C  py        
 
 Vector   78  Occ=0.000000D+00  E= 1.792277D+00
              MO Center=  3.9D-01,  2.7D-01, -3.5D-03, r^2= 3.5D+00
   Bfn.  Coefficient  Atom+Function         Bfn.  Coefficient  Atom+Function  
  ----- ------------  ---------------      ----- ------------  ---------------
    35      3.091778   2 C  s                97     -2.704392   4 C  s         
    36      1.744522   2 C  s                45     -1.292476   2 C  pz        
   104     -1.173597   4 C  pz               67     -1.066733   3 C  s         
    42     -1.050588   2 C  pz              102      0.983114   4 C  px        
    72      0.947232   3 C  py                5     -0.932292   1 O  s         
 
 Vector   79  Occ=0.000000D+00  E= 1.815713D+00
              MO Center= -6.2D-01,  1.7D-01,  1.9D-01, r^2= 2.6D+00
   Bfn.  Coefficient  Atom+Function         Bfn.  Coefficient  Atom+Function  
  ----- ------------  ---------------      ----- ------------  ---------------
    35      3.918336   2 C  s                 5     -3.285987   1 O  s         
    40     -2.445988   2 C  px               41      2.128395   2 C  py        
    72      1.940815   3 C  py               66     -1.758604   3 C  s         
    71     -1.664869   3 C  px               12     -1.372674   1 O  px        
   132     -1.036683   6 H  s               138     -1.020321   7 H  s         
 
 Vector   80  Occ=0.000000D+00  E= 1.842245D+00
              MO Center=  7.5D-02,  2.7D-01, -6.4D-02, r^2= 3.7D+00
   Bfn.  Coefficient  Atom+Function         Bfn.  Coefficient  Atom+Function  
  ----- ------------  ---------------      ----- ------------  ---------------
    35      1.764193   2 C  s                36     -1.134693   2 C  s         
    97     -0.867372   4 C  s               156     -0.850944  10 H  s         
   104     -0.827511   4 C  pz               41     -0.759015   2 C  py        
    66      0.718257   3 C  s                71     -0.679121   3 C  px        
   126     -0.669163   5 H  s                67      0.637990   3 C  s         
 
 Vector   81  Occ=0.000000D+00  E= 1.864944D+00
              MO Center=  5.1D-01,  2.0D-01, -4.5D-01, r^2= 4.0D+00
   Bfn.  Coefficient  Atom+Function         Bfn.  Coefficient  Atom+Function  
  ----- ------------  ---------------      ----- ------------  ---------------
    35      6.769480   2 C  s                66     -4.442320   3 C  s         
    72      3.593495   3 C  py               97     -3.455327   4 C  s         
    36      2.097234   2 C  s               104     -1.857823   4 C  pz        
    34     -1.672418   2 C  s                67     -1.581272   3 C  s         
    41      1.569610   2 C  py               45     -1.455070   2 C  pz        
 
 Vector   82  Occ=0.000000D+00  E= 1.922197D+00
              MO Center=  3.2D-01, -1.5D-01, -3.2D-01, r^2= 3.2D+00
   Bfn.  Coefficient  Atom+Function         Bfn.  Coefficient  Atom+Function  
  ----- ------------  ---------------      ----- ------------  ---------------
    36      1.493891   2 C  s                98     -1.414182   4 C  s         
    45     -1.274249   2 C  pz              103     -1.239679   4 C  py        
    97     -1.135323   4 C  s                35      1.014924   2 C  s         
    66     -0.851449   3 C  s               150     -0.802340   9 H  s         
    42     -0.766853   2 C  pz               41      0.751333   2 C  py        
 
 Vector   83  Occ=0.000000D+00  E= 1.990035D+00
              MO Center=  7.7D-01, -1.8D-01, -2.7D-01, r^2= 3.3D+00
   Bfn.  Coefficient  Atom+Function         Bfn.  Coefficient  Atom+Function  
  ----- ------------  ---------------      ----- ------------  ---------------
    98      3.109116   4 C  s                35      2.990788   2 C  s         
    66     -2.560963   3 C  s                40     -2.314348   2 C  px        
    72      1.859699   3 C  py               41      1.696196   2 C  py        
    43     -1.526366   2 C  px               67     -1.409668   3 C  s         
    71     -1.401448   3 C  px              126      1.235132   5 H  s         
 
 Vector   84  Occ=0.000000D+00  E= 1.995543D+00
              MO Center=  6.9D-01, -1.5D-01, -8.3D-01, r^2= 3.5D+00
   Bfn.  Coefficient  Atom+Function         Bfn.  Coefficient  Atom+Function  
  ----- ------------  ---------------      ----- ------------  ---------------
    36      4.611505   2 C  s                98     -4.349013   4 C  s         
    35     -2.465973   2 C  s                45     -2.095173   2 C  pz        
    67     -1.475835   3 C  s               107     -1.127185   4 C  pz        
   156      1.030580  10 H  s               104      0.995522   4 C  pz        
    34      0.932950   2 C  s                66      0.838285   3 C  s         
 
 Vector   85  Occ=0.000000D+00  E= 2.091301D+00
              MO Center= -4.3D-02,  1.8D-01, -2.0D-02, r^2= 3.5D+00
   Bfn.  Coefficient  Atom+Function         Bfn.  Coefficient  Atom+Function  
  ----- ------------  ---------------      ----- ------------  ---------------
    36      2.253856   2 C  s                98     -2.200244   4 C  s         
   138     -0.762106   7 H  s               156      0.737260  10 H  s         
    14     -0.635362   1 O  pz              144      0.584852   8 H  s         
    40     -0.573534   2 C  px               45     -0.527133   2 C  pz        
   150      0.504986   9 H  s               105      0.499691   4 C  px        
 
 Vector   86  Occ=0.000000D+00  E= 2.097426D+00
              MO Center= -3.7D-01,  5.9D-02,  5.3D-02, r^2= 2.9D+00
   Bfn.  Coefficient  Atom+Function         Bfn.  Coefficient  Atom+Function  
  ----- ------------  ---------------      ----- ------------  ---------------
    36      5.740985   2 C  s                67     -5.601152   3 C  s         
    66      3.287794   3 C  s                35     -3.266844   2 C  s         
    41     -3.047187   2 C  py               71      2.739372   3 C  px        
    13      1.866064   1 O  py               82     -1.463440   3 C  d -2      
    43     -1.343023   2 C  px               75      1.338917   3 C  py        
 
 Vector   87  Occ=0.000000D+00  E= 2.164901D+00
              MO Center=  4.8D-01, -8.7D-03, -4.8D-01, r^2= 3.2D+00
   Bfn.  Coefficient  Atom+Function         Bfn.  Coefficient  Atom+Function  
  ----- ------------  ---------------      ----- ------------  ---------------
    98      2.090278   4 C  s                67     -1.841425   3 C  s         
    35     -1.380933   2 C  s                73      1.035855   3 C  pz        
   156     -0.949899  10 H  s                36      0.900914   2 C  s         
    44      0.844107   2 C  py               40      0.836938   2 C  px        
    43     -0.831251   2 C  px               42     -0.760224   2 C  pz        
 
 Vector   88  Occ=0.000000D+00  E= 2.201633D+00
              MO Center=  4.8D-01,  1.3D-01, -3.6D-01, r^2= 3.7D+00
   Bfn.  Coefficient  Atom+Function         Bfn.  Coefficient  Atom+Function  
  ----- ------------  ---------------      ----- ------------  ---------------
    98      2.058645   4 C  s                36     -1.146532   2 C  s         
    45      0.989092   2 C  pz               76     -0.910793   3 C  pz        
    42     -0.785936   2 C  pz              132      0.784886   6 H  s         
    97     -0.734561   4 C  s               103     -0.725018   4 C  py        
   117     -0.652232   4 C  d  2            138     -0.583707   7 H  s         
 
 Vector   89  Occ=0.000000D+00  E= 2.228825D+00
              MO Center=  5.6D-01,  9.1D-02, -5.4D-03, r^2= 3.5D+00
   Bfn.  Coefficient  Atom+Function         Bfn.  Coefficient  Atom+Function  
  ----- ------------  ---------------      ----- ------------  ---------------
    36      3.271462   2 C  s                67     -1.728091   3 C  s         
    98     -1.445221   4 C  s                 5     -1.184119   1 O  s         
    42     -1.107815   2 C  pz               72     -0.970627   3 C  py        
    66      0.830731   3 C  s                45     -0.799433   2 C  pz        
    35     -0.754237   2 C  s                43     -0.732418   2 C  px        
 
 Vector   90  Occ=0.000000D+00  E= 2.242568D+00
              MO Center=  7.5D-01, -2.6D-01, -8.3D-01, r^2= 3.5D+00
   Bfn.  Coefficient  Atom+Function         Bfn.  Coefficient  Atom+Function  
  ----- ------------  ---------------      ----- ------------  ---------------
    36      1.342857   2 C  s               150      1.241472   9 H  s         
    67     -0.931973   3 C  s                98     -0.873761   4 C  s         
   144     -0.790702   8 H  s               117      0.724231   4 C  d  2      
    66     -0.659199   3 C  s                72      0.656263   3 C  py        
   138      0.510315   7 H  s               149     -0.495488   9 H  s         
 
 Vector   91  Occ=0.000000D+00  E= 2.267602D+00
              MO Center=  9.6D-01, -2.7D-01, -1.2D+00, r^2= 2.9D+00
   Bfn.  Coefficient  Atom+Function         Bfn.  Coefficient  Atom+Function  
  ----- ------------  ---------------      ----- ------------  ---------------
    66      2.327386   3 C  s                36      1.722898   2 C  s         
    41     -1.555307   2 C  py               67     -1.280344   3 C  s         
    35     -1.129615   2 C  s               156      1.099911  10 H  s         
    72     -1.046822   3 C  py               98     -0.973873   4 C  s         
   126     -0.905820   5 H  s                71      0.898927   3 C  px        
 
 Vector   92  Occ=0.000000D+00  E= 2.284936D+00
              MO Center=  5.1D-01,  1.1D-01, -2.3D-01, r^2= 3.6D+00
   Bfn.  Coefficient  Atom+Function         Bfn.  Coefficient  Atom+Function  
  ----- ------------  ---------------      ----- ------------  ---------------
    98      3.611242   4 C  s                36     -2.399415   2 C  s         
[...]
    21     -0.872315   1 O  d -1             42     -0.808433   2 C  pz        
    97     -0.713821   4 C  s                45     -0.703900   2 C  pz        
     5     -0.518951   1 O  s                98     -0.520307   4 C  s         
    67     -0.506862   3 C  s               102      0.495321   4 C  px        
 
 Vector  154  Occ=0.000000D+00  E= 6.676397D+00
              MO Center= -8.7D-01, -1.8D-01,  2.0D-01, r^2= 5.7D-01
   Bfn.  Coefficient  Atom+Function         Bfn.  Coefficient  Atom+Function  
  ----- ------------  ---------------      ----- ------------  ---------------
    18      1.062634   1 O  d  1             23     -1.036340   1 O  d  1      
    97     -0.836061   4 C  s                42     -0.776356   2 C  pz        
    35      0.753987   2 C  s               102      0.641560   4 C  px        
    54     -0.545098   2 C  d  1             14      0.405476   1 O  pz        
    16     -0.393168   1 O  d -1             11      0.388043   1 O  pz        
 
 Vector  155  Occ=0.000000D+00  E= 6.842211D+00
              MO Center= -8.8D-01, -1.9D-01,  2.0D-01, r^2= 5.9D-01
   Bfn.  Coefficient  Atom+Function         Bfn.  Coefficient  Atom+Function  
  ----- ------------  ---------------      ----- ------------  ---------------
     5      2.112403   1 O  s                40      1.765925   2 C  px        
     9      1.361336   1 O  px               97     -1.275445   4 C  s         
     4      1.204629   1 O  s                20      1.048873   1 O  d -2      
    42     -0.967413   2 C  pz               35     -0.851632   2 C  s         
    12      0.847011   1 O  px               15     -0.834065   1 O  d -2      
 
 Vector  156  Occ=0.000000D+00  E= 7.055847D+00
              MO Center= -8.9D-01, -1.9D-01,  2.0D-01, r^2= 6.4D-01
   Bfn.  Coefficient  Atom+Function         Bfn.  Coefficient  Atom+Function  
  ----- ------------  ---------------      ----- ------------  ---------------
    66     -3.176346   3 C  s                35      3.023431   2 C  s         
    40     -2.727945   2 C  px               72      2.693619   3 C  py        
    24     -1.578973   1 O  d  2             36      1.439939   2 C  s         
    10      1.283443   1 O  py               67     -1.283300   3 C  s         
    19      1.017019   1 O  d  2             13      0.866078   1 O  py        
 
 Vector  157  Occ=0.000000D+00  E= 2.194000D+01
              MO Center=  1.1D-01,  7.4D-01,  9.1D-03, r^2= 1.3D+00
   Bfn.  Coefficient  Atom+Function         Bfn.  Coefficient  Atom+Function  
  ----- ------------  ---------------      ----- ------------  ---------------
    64      1.559251   3 C  s                65     -1.323824   3 C  s         
    67     -1.292237   3 C  s                63     -1.229075   3 C  s         
    98      1.114039   4 C  s                95     -0.811808   4 C  s         
    96      0.672685   4 C  s                94      0.642022   4 C  s         
    40     -0.485482   2 C  px               35      0.453294   2 C  s         
 
 Vector  158  Occ=0.000000D+00  E= 2.198198D+01
              MO Center=  8.7D-01, -2.1D-01, -7.3D-01, r^2= 1.2D+00
   Bfn.  Coefficient  Atom+Function         Bfn.  Coefficient  Atom+Function  
  ----- ------------  ---------------      ----- ------------  ---------------
    95      1.438626   4 C  s                96     -1.332909   4 C  s         
    98     -1.191558   4 C  s                94     -1.131939   4 C  s         
    34     -0.876495   2 C  s                33      0.785741   2 C  s         
    36     -0.751052   2 C  s                65     -0.712953   3 C  s         
    64      0.680717   3 C  s                32     -0.613258   2 C  s         
 
 Vector  159  Occ=0.000000D+00  E= 2.211079D+01
              MO Center=  6.0D-01, -1.2D-01, -2.6D-02, r^2= 6.0D-01
   Bfn.  Coefficient  Atom+Function         Bfn.  Coefficient  Atom+Function  
  ----- ------------  ---------------      ----- ------------  ---------------
    36      2.237986   2 C  s                33     -1.593151   2 C  s         
    34      1.585588   2 C  s                35     -1.343838   2 C  s         
    32      1.246756   2 C  s                98     -1.225982   4 C  s         
    67     -1.186151   3 C  s                97      0.666970   4 C  s         
    95      0.630798   4 C  s                96     -0.566978   4 C  s         
 
 Vector  160  Occ=0.000000D+00  E= 4.341381D+01
              MO Center= -8.8D-01, -1.8D-01,  2.0D-01, r^2= 1.2D-01
   Bfn.  Coefficient  Atom+Function         Bfn.  Coefficient  Atom+Function  
  ----- ------------  ---------------      ----- ------------  ---------------
     4      2.504828   1 O  s                 3     -1.873936   1 O  s         
     2      1.731485   1 O  s                 1     -1.395834   1 O  s         
     5     -0.878099   1 O  s                36      0.828671   2 C  s         
     9      0.560764   1 O  px               66     -0.513891   3 C  s         
    40      0.463290   2 C  px               72      0.456384   3 C  py        
 

 center of mass
 --------------
 x =   0.30619368 y =   0.09486570 z =  -0.27792450

 moments of inertia (a.u.)
 ------------------
         200.033559336726          45.706586147587          83.741050429469
          45.706586147587         248.012945634936         -52.605461520330
          83.741050429469         -52.605461520330         238.840377662156
 
     Multipole analysis of the density
     ---------------------------------
 
     L   x y z        total         alpha         beta         nuclear
     -   - - -        -----         -----         ----         -------
     0   0 0 0     -0.000000    -16.000000    -16.000000     32.000000
 
     1   1 0 0      0.696530     -6.211689     -6.211689     13.119908
     1   0 1 0      0.320333     -1.631570     -1.631570      3.583472
     1   0 0 1     -0.051636      5.333840      5.333840    -10.719316
 
     2   2 0 0    -20.001079    -54.287955    -54.287955     88.574831
     2   1 1 0     -1.130294     13.884026     13.884026    -28.898346
     2   1 0 1      0.160876     26.473757     26.473757    -52.786637
     2   0 2 0    -17.825413    -40.431392    -40.431392     63.037371
     2   0 1 1      0.250083    -15.378077    -15.378077     31.006236
     2   0 0 2    -18.218485    -45.809919    -45.809919     73.401353
 
 *** CALLING NEW AORESP DRIVER FOR CLOSED AND OPEN SHELLS ***
 Entering AOResponse driver routine


--------------------------------------------------------------------------------

          ****************
          *** RESPONSE ***
          ****************

 Response module for NWChem and dynamic CPKS solver
 developed by J. Autschbach and coworkers, SUNY Buffalo
 The methodology used in this program is described in 
 ChemPhysChem 12 (2011), 3224-3235 (main reference)
 J. Chem. Phys. 123 (2005), 114103
 J. Chem. Phys. 122 (2005), 224115
 J. Chem. Phys. 122 (2005), 074105
 Comp. Lett. 3 (2007), 131-150 (contact JA for a copy)
 Please cite this work in publications based on results
 obtained with this code. Thank you!

 For extension of response module to open shell
 calculations please acknowledge:
 F. Aquino, Northwestern University, Schatz Rsrch Group
 The update to the methodology is described in
 J. Phys. Chem. A 118 (2014) 517-525



          -----------------------------------------------
          Solving response equations for perturbing field
          -----------------------------------------------

 number of frequencies:     1
 frequency in a.u.:  0.9319600E-01
 Perturbing field: electric
 Using GIAO formalism for OptRot
 Adding quadrupole terms to OptRot
 to create an origin in dependent tensor.
 Using El. Dipole Length Gauge
 
 Applying DAMPING constant of  0.003700 a.u.
 
 Setting up CPKS
 with frequency omega =      0.09319600 a.u.
 and a damping of            0.00370000 a.u.

 
                            NWChem Dynamic CPHF Module
                            --------------------------
 
 
    scftype = RHF 
    nclosed =   16
      nopen =    0
  variables =     9216
  num. vecs =        3
  tolerance =   1.0D-07
  max. iter =  100

 SCF residual:   3.711002863214272E-006


Iterative solution of linear equations
  No. of variables     4608
  No. of equations        3
  Maximum subspace       99
       Convergence  1.0D-07
        Start time     94.6


   iter   nsub   residual    time 
   ----  ------  --------  --------- 
 dft_CPHF2_read: failed to open
 ./methyloxirane_blyp-def2-tzvp_488.9_47.inp.aoresp_fiao_f1
     1      3    3.73D+00     143.8
     2      6    2.71D+00     193.2
     3      9    2.43D-01     242.7
     4     12    4.99D-02     292.6
     5     15    1.07D-02     342.2
     6     18    1.31D-03     391.8
     7     21    1.47D-04     441.3
     8     24    1.40D-05     490.9
     9     27    1.36D-06     540.4
    10     30    5.11D-07     589.9
    11     33    1.42D-08     639.4

 Calculating some arrays needed for GIAO optical rotation

    0 giaofock schwarz done =      93.11%
    0 giaofock schwarz done =      93.11%
 aor_r1_tensor_giao: roadata output requested
 dip-quad polarizability Re:

              1        2        3        4        5        6      
    1   76.3190  -6.2217 -27.6631  -4.3160   1.5566   8.3340
    2  -12.1947  25.1712   3.6363  24.4126 -21.3689   4.9473
    3   -6.1246   0.8790  38.6392   0.3793  14.9235 -42.8627
 traceless dip-quad polarizability:

              1        2        3      
    1   74.3100  -9.3325 -41.4947
    2   -9.3325 -46.6425   2.3349
    3  -41.4947   2.3349 -27.6675

              1        2        3      
    1  -26.8747  37.7568   5.4545
    2   37.7568  28.0363 -32.0533
    3    5.4545 -32.0533  -1.1616

              1        2        3      
    1   15.1170   1.3184  57.9587
    2    1.3184  24.8729  22.3853
    3   57.9587  22.3853 -39.9900

 roa begin

 alpha real:
 XX       0.4084571080434E+02
 XY      -0.5209234845910E+01
 XZ      -0.2964974155921E+01
 YX      -0.5209234854445E+01
 YY       0.4385439125341E+02
 YZ       0.3126001675549E+01
 ZX      -0.2964974168257E+01
 ZY       0.3126001674566E+01
 ZZ       0.4161381520014E+02

 alpha im:
 XX       0.1097513703323E+00
 XY      -0.2986453988944E-01
 XZ      -0.1086728694737E-01
 YX      -0.2986453450944E-01
 YY       0.1278357590387E+00
 YZ       0.1813985857421E-01
 ZX      -0.1086728336311E-01
 ZY       0.1813985830597E-01
 ZZ       0.1234721503672E+00

 beta real:
 XX      -0.1220837345844E+00
 XY       0.9499837034397E+00
 XZ       0.2204747188073E+00
 YX      -0.8921832465112E+00
 YY       0.1222445285521E+00
 YZ      -0.1518055541666E+01
 ZX      -0.4593333962870E+00
 ZY       0.1902263303115E+01
 ZZ       0.1009495843688E-02

 G-prime = -omega beta(real):
 XX      -0.1220837345844E+00
 XY       0.9499837034397E+00
 XZ       0.2204747188073E+00
 YX      -0.8921832465112E+00
 YY       0.1222445285521E+00
 YZ      -0.1518055541666E+01
 ZX      -0.4593333962870E+00
 ZY       0.1902263303115E+01
 ZZ       0.1009495843688E-02

 beta im:
 XX      -0.5456546556330E-02
 XY       0.1338762552658E-01
 XZ       0.3254077165211E-02
 YX      -0.7565706431709E-02
 YY       0.4116781011139E-02
 YZ      -0.2267740815706E-01
 ZX      -0.1260982668545E-01
 ZY       0.4130769754386E-01
 ZZ       0.8088275217858E-03

 G-prime = -omega beta(imag):
 XX      -0.5456546556330E-02
 XY       0.1338762552658E-01
 XZ       0.3254077165211E-02
 YX      -0.7565706431709E-02
 YY       0.4116781011139E-02
 YZ      -0.2267740815706E-01
 ZX      -0.1260982668545E-01
 ZY       0.4130769754386E-01
 ZZ       0.8088275217858E-03

 dipole-quadrupole real (Cartesian):
 XXX      0.7631898785595E+02
 XXY     -0.6221694341186E+01
 XXZ     -0.2766314594539E+02
 XYY     -0.4316046688976E+01
 XYZ      0.1556567290775E+01
 XZZ      0.8334013234852E+01
 YXX     -0.1219472212045E+02
 YXY      0.2517123268135E+02
 YXZ      0.3636335206745E+01
 YYY      0.2441262873589E+02
 YYZ     -0.2136887514819E+02
 YZZ      0.4947346167005E+01
 ZXX     -0.6124630436804E+01
 ZXY      0.8789521049515E+00
 ZXZ      0.3863915475028E+02
 ZYY      0.3793023420997E+00
 ZYZ      0.1492351811382E+02
 ZZZ     -0.4286265076234E+02

 dipole-quadrupole imag (Cartesian):
 XXX      0.2646819765319E+00
 XXY     -0.3498578056195E-01
 XXZ     -0.7672446380560E-01
 XYY     -0.2748158243630E-01
 XYZ      0.4472584693618E-02
 XZZ      0.5581116729294E-01
 YXX     -0.5925275081535E-01
 YXY      0.5985995092315E-01
 YXZ      0.2098344664791E-01
 YYY      0.9777419358065E-01
 YYZ     -0.5831150233596E-01
 YZZ      0.1480608561720E-01
 ZXX     -0.3056260209730E-01
 ZXY     -0.1500746314410E-02
 ZXZ      0.1412410077483E+00
 ZYY      0.9373378058102E-02
 ZYZ      0.7261362417295E-01
 ZZZ     -0.1053049041173E+00

 dipole-quadrupole (traceless):
 XXX      0.7431000458301E+02
 XXY     -0.9332541511779E+01
 XXZ     -0.4149471891808E+02
 XYY     -0.4664254723438E+02
 XYZ      0.2334850936162E+01
 XZZ     -0.2766745734863E+02
 YXX     -0.2687470957189E+02
 YXY      0.3775684902202E+02
 YXZ      0.5454502810117E+01
 YYY      0.2803631671261E+02
 YYZ     -0.3205331272229E+02
 YZZ     -0.1161607140714E+01
 ZXX      0.1511704377331E+02
 ZXY      0.1318428157427E+01
 ZXZ      0.5795873212542E+02
 ZYY      0.2487294294167E+02
 ZYZ      0.2238527717074E+02
 ZZZ     -0.3998998671499E+02

 roa end


 Electric Dipole Response Matrix (nonzero elements):

              1        2        3      
    1   40.8457  -5.2092  -2.9650
    2   -5.2092  43.8544   3.1260
    3   -2.9650   3.1260  41.6138
 
 Imaginary part:

              1        2        3      
    1    0.1098  -0.0299  -0.0109
    2   -0.0299   0.1278   0.0181
    3   -0.0109   0.0181   0.1235

 ------------------------------------------
 average:        42.10464 + I       0.12035


 DFT Linear Response polarizability / au 
 Frequency  =       0.0931960 / au
 Wavelength =     488.8981609 / nm
              X              Y              Z
 -----------------------------------------------
 X      40.8457108     -5.2092348     -2.9649742
 Y      -5.2092349     43.8543913      3.1260017
 Z      -2.9649742      3.1260017     41.6138152
 -----------------------------------------------
 Eigenvalues =      36.8499389     49.9697273     39.4942510
 Isotropic   =      42.1046391
 Anisotropic =       9.8125233
 -----------------------------------------------
 *************************

 DFT Linear Response IMAG polarizability / au 
 Frequency  =       0.0931960 / au
 Wavelength =     488.8981609 / nm
              X              Y              Z
 -----------------------------------------------
 X       0.1097514     -0.0298645     -0.0108673
 Y      -0.0298645      0.1278358      0.0181399
 Z      -0.0108673      0.0181399      0.1234722
 -----------------------------------------------
 Eigenvalues =       0.0874403      0.1616220      0.1119969
 Isotropic   =       0.1203531
 Anisotropic =       0.0534434
 -----------------------------------------------
 *************************

 Magnetic Dipole Response Matrix (nonzero elements):
 Optical rotation tensor Beta
 (Buckingham-Dunn version including dipole-quadrupole terms)

              1        2        3      
    1    2.6887  -0.3625   0.2807
    2   -0.3625  -1.6505  -1.8568
    3    0.2807  -1.8568  -1.0507
 
 Imaginary part:

              1        2        3      
    1    0.0585  -0.1437  -0.0349
    2    0.0812  -0.0442   0.2433
    3    0.1353  -0.4432  -0.0087

 ------------------------------------------
 average:        -0.00419 + I       0.00190

 Principal components and PAS (Real part)
                 -3.23300
                  2.77965
                  0.44079
 ------------------------
 average:        -0.00419

              1        2        3      
    1    0.0160   0.9806  -0.1956
    2    0.7625  -0.1385  -0.6320
    3    0.6468   0.1390   0.7499

 Chiral response tensor (Real part):

              1        2        3      
    1   -1.3506   0.1813  -0.1403
    2    0.1813   0.8190   0.9284
    3   -0.1403   0.9284   0.5191
 
 Principal components and PAS (Real part)
                  1.61022
                 -1.39610
                 -0.22667
 ------------------------
 average:        -0.00419

              1        2        3      
    1    0.0160   0.9806  -0.1956
    2    0.7625  -0.1385  -0.6320
    3    0.6468   0.1390   0.7499
 Exiting AOResponse driver routine

 Task  times  cpu:      616.4s     wall:      633.4s
 
 
                                NWChem Input Module
                                -------------------
 
 
 Summary of allocated global arrays
-----------------------------------
  No active global arrays



                         GA Statistics for process    0
                         ------------------------------

       create   destroy   get      put      acc     scatter   gather  read&inc
calls: 3294     3294     7.61e+06 3.14e+06 7.28e+05 2694        0     1057     
number of processes/call 1.01e+00 1.03e+00 1.42e+00 0.00e+00 0.00e+00
bytes total:             1.74e+09 1.26e+08 1.73e+09 1.84e+02 0.00e+00 8.46e+03
bytes remote:            7.47e+08 3.29e+07 9.95e+08 0.00e+00 0.00e+00 0.00e+00
Max memory consumed for GA by this process: 11242192 bytes
 
MA_summarize_allocated_blocks: starting scan ...
MA_summarize_allocated_blocks: scan completed: 0 heap blocks, 0 stack blocks
MA usage statistics:

	allocation statistics:
					      heap	     stack
					      ----	     -----
	current number of blocks	         0	         0
	maximum number of blocks	        24	        52
	current total bytes		         0	         0
	maximum total bytes		   7519856	  48969448
	maximum total K-bytes		      7520	     48970
	maximum total M-bytes		         8	        49
 
 
                                     CITATION
                                     --------
                Please cite the following reference when publishing
                           results obtained with NWChem:
 
                 M. Valiev, E.J. Bylaska, N. Govind, K. Kowalski,
              T.P. Straatsma, H.J.J. van Dam, D. Wang, J. Nieplocha,
                        E. Apra, T.L. Windus, W.A. de Jong
                 "NWChem: a comprehensive and scalable open-source
                  solution for large scale molecular simulations"
                      Comput. Phys. Commun. 181, 1477 (2010)
                           doi:10.1016/j.cpc.2010.04.018
 
                                      AUTHORS
                                      -------
          E. Apra, E. J. Bylaska, W. A. de Jong, N. Govind, K. Kowalski,
       T. P. Straatsma, M. Valiev, H. J. J. van Dam, D. Wang, T. L. Windus,
        J. Hammond, J. Autschbach, K. Bhaskaran-Nair, J. Brabec, K. Lopata,
    S. A. Fischer, S. Krishnamoorthy, M. Jacquelin, W. Ma, M. Klemm, O. Villa,
      Y. Chen, V. Anisimov, F. Aquino, S. Hirata, M. T. Hackler, V. Konjkov,
            D. Mejia-Rodriguez, T. Risthaus, M. Malagoli, A. Marenich,
   A. Otero-de-la-Roza, J. Mullin, P. Nichols, R. Peverati, J. Pittner, Y. Zhao,
        P.-D. Fan, A. Fonari, M. J. Williamson, R. J. Harrison, J. R. Rehr,
      M. Dupuis, D. Silverstein, D. M. A. Smith, J. Nieplocha, V. Tipparaju,
    M. Krishnan, B. E. Van Kuiken, A. Vazquez-Mayagoitia, L. Jensen, M. Swart,
      Q. Wu, T. Van Voorhis, A. A. Auer, M. Nooijen, L. D. Crosby, E. Brown,
      G. Cisneros, G. I. Fann, H. Fruchtl, J. Garza, K. Hirao, R. A. Kendall,
      J. A. Nichols, K. Tsemekhman, K. Wolinski, J. Anchell, D. E. Bernholdt,
      P. Borowski, T. Clark, D. Clerc, H. Dachsel, M. J. O. Deegan, K. Dyall,
    D. Elwood, E. Glendening, M. Gutowski, A. C. Hess, J. Jaffe, B. G. Johnson,
     J. Ju, R. Kobayashi, R. Kutteh, Z. Lin, R. Littlefield, X. Long, B. Meng,
      T. Nakajima, S. Niu, L. Pollack, M. Rosing, K. Glaesemann, G. Sandrone,
      M. Stave, H. Taylor, G. Thomas, J. H. van Lenthe, A. T. Wong, Z. Zhang.

 Total times  cpu:      690.1s     wall:      708.7s
