 argument  1 = methyloxirane_blyp-def2-tzvp_488.9_31.inp
 


============================== echo of input deck ==============================
echo
start methyloxirane_blyp-def2-tzvp_488.9_31.inp
title "methyloxirane roa calculations at 488.9 nm, input generated in va  with delta_type=2"
charge 0



geometry units angstrom nocenter noautoz noautosym nucleus point;symmetry c1
 O -0.882622 -0.184300  0.204808
 C  0.571809 -0.157188  0.126241
 C -0.182496  1.093962  0.340539
 C  1.190807 -0.523253 -1.214236
 H  1.053330 -0.590845  1.010077
 H -0.222727  1.538849  1.338110
 H -0.333364  1.788932 -0.489505
 H  2.245449 -0.216541 -1.266551
 H  1.140299 -1.606474 -1.390981
 H  0.642195 -0.021558 -2.021803
end

basis spherical
* library def2-TZVP
end

 set prop:newaoresp 1
 set aor:roadata T
 set cphf:maxsub 100
 set cphf:acc 1.0d-10
 set cphf:maxiter 100

property
    response 1   0.093196
    bdtensor
    convergence 1e-7
    damping 0.0037
    giao
end

dft
 direct
 mult 1
 xc becke88 lyp
 iterations 250
 tolerances tight
 grid xfine
 convergence nolevelshifting
 convergence energy 1e-8
 convergence gradient 1e-7


end

task dft gradient
task dft property
================================================================================


                                         
                                         
 
 
              Northwest Computational Chemistry Package (NWChem) 6.8
              ------------------------------------------------------
 
 
                    Environmental Molecular Sciences Laboratory
                       Pacific Northwest National Laboratory
                                Richland, WA 99352
 
                              Copyright (c) 1994-2017
                       Pacific Northwest National Laboratory
                            Battelle Memorial Institute
 
             NWChem is an open-source computational chemistry package
                        distributed under the terms of the
                      Educational Community License (ECL) 2.0
             A copy of the license is included with this distribution
                              in the LICENSE.TXT file
 
                                  ACKNOWLEDGMENT
                                  --------------

            This software and its documentation were developed at the
            EMSL at Pacific Northwest National Laboratory, a multiprogram
            national laboratory, operated for the U.S. Department of Energy
            by Battelle under Contract Number DE-AC05-76RL01830. Support
            for this work was provided by the Department of Energy Office
            of Biological and Environmental Research, Office of Basic
            Energy Sciences, and the Office of Advanced Scientific Computing.


           Job information
           ---------------

    hostname        = cpn-f11-18-02.cbls.ccr.buffalo.edu
    program         = /util/academic/nwchem/nwchem-6.8/bin/LINUX64/nwchem
    date            = Fri Mar  1 10:27:39 2019

    compiled        = Tue_Nov_06_14:59:08_2018
    source          = /util/academic/nwchem/nwchem-6.8
    nwchem branch   = 6.8
    nwchem revision = v6.8-47-gdf6c956
    ga revision     = ga-5.6.3
    use scalapack   = F
    input           = methyloxirane_blyp-def2-tzvp_488.9_31.inp
    prefix          = methyloxirane_blyp-def2-tzvp_488.9_31.inp.
    data base       = ./methyloxirane_blyp-def2-tzvp_488.9_31.inp.db
    status          = startup
    nproc           =        7
    time left       =     -1s



           Memory information
           ------------------

    heap     =   13107198 doubles =    100.0 Mbytes
    stack    =   13107195 doubles =    100.0 Mbytes
    global   =   26214400 doubles =    200.0 Mbytes (distinct from heap & stack)
    total    =   52428793 doubles =    400.0 Mbytes
    verify   = yes
    hardfail = no 


           Directory information
           ---------------------
 
  0 permanent = .
  0 scratch   = .
 
 
 
 
                                NWChem Input Module
                                -------------------
 
 
                    methyloxirane roa calculations at 488.9 nm, input generated in va  with delta_type=2
                    ------------------------------------------

 Scaling coordinates for geometry "geometry" by  1.889725989
 (inverse scale =  0.529177249)

 
 
                             Geometry "geometry" -> ""
                             -------------------------
 
 Output coordinates in angstroms (scale by  1.889725989 to convert to a.u.)
 
  No.       Tag          Charge          X              Y              Z
 ---- ---------------- ---------- -------------- -------------- --------------
    1 O                    8.0000    -0.88262200    -0.18430000     0.20480800
    2 C                    6.0000     0.57180900    -0.15718800     0.12624100
    3 C                    6.0000    -0.18249600     1.09396200     0.34053900
    4 C                    6.0000     1.19080700    -0.52325300    -1.21423600
    5 H                    1.0000     1.05333000    -0.59084500     1.01007700
    6 H                    1.0000    -0.22272700     1.53884900     1.33811000
    7 H                    1.0000    -0.33336400     1.78893200    -0.48950500
    8 H                    1.0000     2.24544900    -0.21654100    -1.26655100
    9 H                    1.0000     1.14029900    -1.60647400    -1.39098100
   10 H                    1.0000     0.64219500    -0.02155800    -2.02180300
 
      Atomic Mass 
      ----------- 
 
      O                 15.994910
      C                 12.000000
      H                  1.007825
 

 Effective nuclear repulsion energy (a.u.)     123.1807722660

            Nuclear Dipole moment (a.u.) 
            ----------------------------
        X                 Y               Z
 ---------------- ---------------- ----------------
    13.1240071510     3.5887578379   -10.7089354478
 
 
            XYZ format geometry
            -------------------
    10
 geometry
 O                    -0.88262200    -0.18430000     0.20480800
 C                     0.57180900    -0.15718800     0.12624100
 C                    -0.18249600     1.09396200     0.34053900
 C                     1.19080700    -0.52325300    -1.21423600
 H                     1.05333000    -0.59084500     1.01007700
 H                    -0.22272700     1.53884900     1.33811000
 H                    -0.33336400     1.78893200    -0.48950500
 H                     2.24544900    -0.21654100    -1.26655100
 H                     1.14029900    -1.60647400    -1.39098100
 H                     0.64219500    -0.02155800    -2.02180300
 
 ==============================================================================
                                internuclear distances
 ------------------------------------------------------------------------------
       center one      |      center two      | atomic units |  angstroms
 ------------------------------------------------------------------------------
    2 C                |   1 O                |     2.75296  |     1.45680
    3 C                |   1 O                |     2.76608  |     1.46375
    3 C                |   2 C                |     2.79032  |     1.47658
    4 C                |   2 C                |     2.87465  |     1.52120
    5 H                |   2 C                |     2.07103  |     1.09594
    6 H                |   3 C                |     2.06551  |     1.09302
    7 H                |   3 C                |     2.06553  |     1.09303
    8 H                |   4 C                |     2.07791  |     1.09958
    9 H                |   4 C                |     2.07626  |     1.09871
   10 H                |   4 C                |     2.07426  |     1.09765
 ------------------------------------------------------------------------------
                         number of included internuclear distances:         10
 ==============================================================================



 ==============================================================================
                                 internuclear angles
 ------------------------------------------------------------------------------
        center 1       |       center 2       |       center 3       |  degrees
 ------------------------------------------------------------------------------
    2 C                |   1 O                |   3 C                |    60.74
    2 C                |   1 O                |   3 C                |    60.74
    1 O                |   2 C                |   4 C                |   116.70
    1 O                |   2 C                |   5 H                |   112.82
    3 C                |   2 C                |   4 C                |   122.66
    3 C                |   2 C                |   5 H                |   116.28
    4 C                |   2 C                |   5 H                |   115.89
    3 C                |   1 O                |   2 C                |    60.74
    1 O                |   3 C                |   6 H                |   114.99
    1 O                |   3 C                |   7 H                |   114.76
    2 C                |   3 C                |   6 H                |   119.75
    2 C                |   3 C                |   7 H                |   119.94
    6 H                |   3 C                |   7 H                |   115.42
    2 C                |   4 C                |   8 H                |   111.41
    2 C                |   4 C                |   9 H                |   111.12
    2 C                |   4 C                |  10 H                |   109.57
    8 H                |   4 C                |   9 H                |   108.15
    8 H                |   4 C                |  10 H                |   108.47
    9 H                |   4 C                |  10 H                |   108.02
 ------------------------------------------------------------------------------
                            number of included internuclear angles:         19
 ==============================================================================



  warning:::::::::::::: from_environment
  NWCHEM_BASIS_LIBRARY set to: <
 /util/academic/nwchem/nwchem-6.8/src/basis/libraries>
  but file does not exist !
  using .nwchemrc or compiled library


 Summary of "ao basis" -> "" (spherical)
 ------------------------------------------------------------------------------
       Tag                 Description            Shells   Functions and Types
 ---------------- ------------------------------  ------  ---------------------
 *                         def2-TZVP                  on all atoms 


 
                                 NWChem DFT Module
                                 -----------------
 
 
                    methyloxirane roa calculations at 488.9 nm, input generated in va  with delta_type=2
 
 
                      Basis "ao basis" -> "ao basis" (spherical)
                      -----
  O (Oxygen)
  ----------
            Exponent  Coefficients 
       -------------- ---------------------------------------------------------
  1 S  2.70323826E+04  0.000217
  1 S  4.05238714E+03  0.001684
  1 S  9.22327227E+02  0.008740
  1 S  2.61240710E+02  0.035240
  1 S  8.53546414E+01  0.111535
  1 S  3.10350352E+01  0.255890
 
  2 S  1.22608607E+01  0.397687
  2 S  4.99870760E+00  0.246278
 
  3 S  1.17031082E+00  1.000000
 
  4 S  4.64747410E-01  1.000000
 
  5 S  1.85045364E-01  1.000000
 
  6 P  6.32749548E+01  0.006069
  6 P  1.46270494E+01  0.041913
  6 P  4.45012235E+00  0.161538
  6 P  1.52757996E+00  0.357070
 
  7 P  5.29351179E-01  1.000000
 
  8 P  1.74784213E-01  1.000000
 
  9 D  2.31400000E+00  1.000000
 
 10 D  6.45000000E-01  1.000000
 
 11 F  1.42800000E+00  1.000000
 
  C (Carbon)
  ----------
            Exponent  Coefficients 
       -------------- ---------------------------------------------------------
  1 S  1.35753497E+04  0.000222
  1 S  2.03523337E+03  0.001723
  1 S  4.63225624E+02  0.008926
  1 S  1.31200196E+02  0.035728
  1 S  4.28530159E+01  0.110763
  1 S  1.55841858E+01  0.242956
 
  2 S  6.20671385E+00  0.414403
  2 S  2.57648965E+00  0.237450
 
  3 S  5.76963394E-01  1.000000
 
  4 S  2.29728314E-01  1.000000
 
  5 S  9.51644400E-02  1.000000
 
  6 P  3.46972322E+01  0.005333
  6 P  7.95826228E+00  0.035864
  6 P  2.37808269E+00  0.142159
  6 P  8.14332082E-01  0.342705
 
  7 P  2.88875473E-01  1.000000
 
  8 P  1.00568237E-01  1.000000
 
  9 D  1.09700000E+00  1.000000
 
 10 D  3.18000000E-01  1.000000
 
 11 F  7.61000000E-01  1.000000
 
  H (Hydrogen)
  ------------
            Exponent  Coefficients 
       -------------- ---------------------------------------------------------
  1 S  3.40613410E+01  0.006025
  1 S  5.12357460E+00  0.045021
  1 S  1.16466260E+00  0.201897
 
  2 S  3.27230410E-01  1.000000
 
  3 S  1.03072410E-01  1.000000
 
  4 P  8.00000000E-01  1.000000
 


 Summary of "ao basis" -> "ao basis" (spherical)
 ------------------------------------------------------------------------------
       Tag                 Description            Shells   Functions and Types
 ---------------- ------------------------------  ------  ---------------------
 O                         def2-TZVP                11       31   5s3p2d1f
 C                         def2-TZVP                11       31   5s3p2d1f
 H                         def2-TZVP                 4        6   3s1p




 Summary of "ao basis" -> "ao basis" (spherical)
 ------------------------------------------------------------------------------
       Tag                 Description            Shells   Functions and Types
 ---------------- ------------------------------  ------  ---------------------
 O                         def2-TZVP                11       31   5s3p2d1f
 C                         def2-TZVP                11       31   5s3p2d1f
 H                         def2-TZVP                 4        6   3s1p


  Caching 1-el integrals 
  itol2e modified to match energy
  convergence criterion.
  tol_rho modified to match energy
  convergence criterion.
 
            General Information
            -------------------
          SCF calculation type: DFT
          Wavefunction type:  closed shell.
          No. of atoms     :    10
          No. of electrons :    32
           Alpha electrons :    16
            Beta electrons :    16
          Charge           :     0
          Spin multiplicity:     1
          Use of symmetry is: off; symmetry adaption is: off
          Maximum number of iterations: 250
          This is a Direct SCF calculation.
          AO basis - number of functions:   160
                     number of shells:    68
          Convergence on energy requested:  1.00D-08
          Convergence on density requested:  1.00D-05
          Convergence on gradient requested:  1.00D-07
 
              XC Information
              --------------
                    Becke 1988 Exchange Functional  1.000          
              Lee-Yang-Parr Correlation Functional  1.000          
 
             Grid Information
             ----------------
          Grid used for XC integration:  xfine     
          Radial quadrature: Mura-Knowles        
          Angular quadrature: Lebedev. 
          Tag              B.-S. Rad. Rad. Pts. Rad. Cut. Ang. Pts.
          ---              ---------- --------- --------- ---------
          O                   0.60      100          11.0      1454
          C                   0.70      100          11.0      1454
          H                   0.35      100          12.0      1202
          Grid pruning is: on 
          Number of quadrature shells:  1000
          Spatial weights used:  Erf1
 
          Convergence Information
          -----------------------
          Convergence aids based upon iterative change in 
          total energy or number of iterations. 
          Levelshifting, if invoked, occurs when the 
          HOMO/LUMO gap drops below (HL_TOL):  1.00D-02
          DIIS, if invoked, will attempt to extrapolate 
          using up to (NFOCK): 10 stored Fock matrices.

                    Damping( 0%)  Levelshifting(0.0)       DIIS
                  --------------- ------------------- ---------------
          dE  on:    start             N/A                start   
          dE off:    2 iters           N/A              250 iters 

 
      Screening Tolerance Information
      -------------------------------
          Density screening/tol_rho:  1.00D-11
          AO Gaussian exp screening on grid/accAOfunc:  18
          CD Gaussian exp screening on grid/accCDfunc:  20
          XC Gaussian exp screening on grid/accXCfunc:  20
          Schwarz screening/accCoul:  1.00D-09

 
      Superposition of Atomic Density Guess
      -------------------------------------
 
 Sum of atomic energies:        -190.79714706
 
      Non-variational initial energy
      ------------------------------

 Total energy =    -193.123213
 1-e energy   =    -501.347311
 2-e energy   =     185.043326
 HOMO         =      -0.351867
 LUMO         =       0.087460
 
   Time after variat. SCF:      0.6
   Time prior to 1st pass:      0.6

 Grid_pts file          = ./methyloxirane_blyp-def2-tzvp_488.9_31.inp.gridpts.0
 Record size in doubles =  12289        No. of grid_pts per rec  =   3070
 Max. records in memory =     76        Max. recs in file   =    554552


           Memory utilization after 1st SCF pass: 
           Heap Space remaining (MW):       12.17            12167542
          Stack Space remaining (MW):       13.11            13106116

   convergence    iter        energy       DeltaE   RMS-Dens  Diis-err    time
 ---------------- ----- ----------------- --------- --------- ---------  ------
 d= 0,ls=0.0,diis     1   -193.0190949695 -3.16D+02  9.30D-03  1.07D+00     6.3
 d= 0,ls=0.0,diis     2   -192.8459207091  1.73D-01  7.73D-03  2.67D+00    11.9
 d= 0,ls=0.0,diis     3   -193.0769249003 -2.31D-01  1.83D-03  3.87D-01    17.4
 d= 0,ls=0.0,diis     4   -193.1070116793 -3.01D-02  7.02D-04  1.91D-02    22.9
 d= 0,ls=0.0,diis     5   -193.1087758636 -1.76D-03  2.98D-04  2.81D-03    28.4
 d= 0,ls=0.0,diis     6   -193.1091256871 -3.50D-04  3.18D-05  4.19D-05    33.9
 d= 0,ls=0.0,diis     7   -193.1091302873 -4.60D-06  1.00D-05  7.71D-06    39.3
 d= 0,ls=0.0,diis     8   -193.1091311264 -8.39D-07  3.12D-06  4.79D-07    44.7
 d= 0,ls=0.0,diis     9   -193.1091311788 -5.23D-08  8.35D-07  3.83D-08    50.2
 d= 0,ls=0.0,diis    10   -193.1091311831 -4.37D-09  2.56D-07  4.03D-09    55.6


         Total DFT energy =     -193.109131183132
      One electron energy =     -504.994932189454
           Coulomb energy =      215.716700705250
    Exchange-Corr. energy =      -27.011671964963
 Nuclear repulsion energy =      123.180772266034

 Numeric. integr. density =       31.999999952241

     Total iterative time =     55.0s


 
                       DFT Final Molecular Orbital Analysis
                       ------------------------------------
 
 Vector    1  Occ=2.000000D+00  E=-1.878002D+01
              MO Center= -8.8D-01, -1.8D-01,  2.0D-01, r^2= 1.5D-02
   Bfn.  Coefficient  Atom+Function         Bfn.  Coefficient  Atom+Function  
  ----- ------------  ---------------      ----- ------------  ---------------
     2      0.638484   1 O  s                 1      0.435423   1 O  s         
     3      0.039820   1 O  s                 4     -0.033019   1 O  s         
 
 Vector    2  Occ=2.000000D+00  E=-9.964250D+00
              MO Center=  5.7D-01, -1.6D-01,  1.3D-01, r^2= 2.8D-02
   Bfn.  Coefficient  Atom+Function         Bfn.  Coefficient  Atom+Function  
  ----- ------------  ---------------      ----- ------------  ---------------
    33      0.606935   2 C  s                32      0.467272   2 C  s         
    34      0.042468   2 C  s                36      0.037111   2 C  s         
    35     -0.027586   2 C  s         
 
 Vector    3  Occ=2.000000D+00  E=-9.956184D+00
              MO Center= -1.8D-01,  1.1D+00,  3.4D-01, r^2= 2.8D-02
   Bfn.  Coefficient  Atom+Function         Bfn.  Coefficient  Atom+Function  
  ----- ------------  ---------------      ----- ------------  ---------------
    64      0.607048   3 C  s                63      0.467229   3 C  s         
    65      0.039817   3 C  s         
 
 Vector    4  Occ=2.000000D+00  E=-9.908631D+00
              MO Center=  1.2D+00, -5.2D-01, -1.2D+00, r^2= 2.8D-02
   Bfn.  Coefficient  Atom+Function         Bfn.  Coefficient  Atom+Function  
  ----- ------------  ---------------      ----- ------------  ---------------
    95      0.606973   4 C  s                94      0.467220   4 C  s         
    96      0.040635   4 C  s                98      0.035419   4 C  s         
 
 Vector    5  Occ=2.000000D+00  E=-9.590880D-01
              MO Center= -4.7D-01,  5.1D-02,  2.1D-01, r^2= 6.5D-01
   Bfn.  Coefficient  Atom+Function         Bfn.  Coefficient  Atom+Function  
  ----- ------------  ---------------      ----- ------------  ---------------
     4      0.375783   1 O  s                 3      0.277918   1 O  s         
     2     -0.193000   1 O  s                34      0.140722   2 C  s         
    65      0.137512   3 C  s                 5      0.123330   1 O  s         
    35      0.104934   2 C  s                66      0.094586   3 C  s         
     6      0.092886   1 O  px               37     -0.089550   2 C  px        
 
 Vector    6  Occ=2.000000D+00  E=-6.677424D-01
              MO Center=  9.4D-01, -3.9D-01, -7.8D-01, r^2= 1.6D+00
   Bfn.  Coefficient  Atom+Function         Bfn.  Coefficient  Atom+Function  
  ----- ------------  ---------------      ----- ------------  ---------------
    97      0.285904   4 C  s                96      0.276537   4 C  s         
    35      0.184408   2 C  s                95     -0.174023   4 C  s         
    34      0.172972   2 C  s                 4     -0.149736   1 O  s         
    33     -0.107968   2 C  s                 3     -0.104918   1 O  s         
    94     -0.083376   4 C  s                 5     -0.074278   1 O  s         
 
 Vector    7  Occ=2.000000D+00  E=-5.910650D-01
              MO Center= -1.2D-01,  7.2D-01,  2.1D-01, r^2= 2.0D+00
   Bfn.  Coefficient  Atom+Function         Bfn.  Coefficient  Atom+Function  
  ----- ------------  ---------------      ----- ------------  ---------------
    66      0.324577   3 C  s                65      0.278600   3 C  s         
     4     -0.236250   1 O  s                64     -0.171992   3 C  s         
     3     -0.167717   1 O  s                 5     -0.146759   1 O  s         
     2      0.110620   1 O  s                38      0.104407   2 C  py        
    97     -0.102125   4 C  s               132      0.102544   6 H  s         
 
 Vector    8  Occ=2.000000D+00  E=-5.297980D-01
              MO Center=  4.1D-01,  3.0D-02, -8.1D-02, r^2= 2.7D+00
   Bfn.  Coefficient  Atom+Function         Bfn.  Coefficient  Atom+Function  
  ----- ------------  ---------------      ----- ------------  ---------------
    35      0.303996   2 C  s                34      0.225762   2 C  s         
    66     -0.155975   3 C  s                97     -0.150727   4 C  s         
    33     -0.138834   2 C  s               126      0.133559   5 H  s         
    96     -0.126539   4 C  s               125      0.106629   5 H  s         
     6      0.105754   1 O  px               65     -0.101171   3 C  s         
 
 Vector    9  Occ=2.000000D+00  E=-4.466360D-01
              MO Center=  1.2D-01,  2.9D-01,  2.4D-01, r^2= 2.5D+00
   Bfn.  Coefficient  Atom+Function         Bfn.  Coefficient  Atom+Function  
  ----- ------------  ---------------      ----- ------------  ---------------
    70      0.210974   3 C  pz               39      0.157287   2 C  pz        
   132      0.145794   6 H  s                73      0.132789   3 C  pz        
     8      0.125855   1 O  pz              126      0.115377   5 H  s         
     6     -0.109210   1 O  px              131      0.108001   6 H  s         
    38     -0.104929   2 C  py               42      0.104072   2 C  pz        
 
 Vector   10  Occ=2.000000D+00  E=-4.127447D-01
              MO Center=  5.0D-02,  2.9D-01, -2.2D-01, r^2= 2.6D+00
   Bfn.  Coefficient  Atom+Function         Bfn.  Coefficient  Atom+Function  
  ----- ------------  ---------------      ----- ------------  ---------------
    69      0.217622   3 C  py              138      0.154641   7 H  s         
   101      0.151953   4 C  pz               38     -0.142725   2 C  py        
     6     -0.141401   1 O  px               37      0.130106   2 C  px        
     7     -0.125650   1 O  py               72      0.124279   3 C  py        
    70     -0.114611   3 C  pz                9     -0.113087   1 O  px        
 
 Vector   11  Occ=2.000000D+00  E=-3.760405D-01
              MO Center=  9.3D-01, -3.3D-01, -7.7D-01, r^2= 2.7D+00
   Bfn.  Coefficient  Atom+Function         Bfn.  Coefficient  Atom+Function  
  ----- ------------  ---------------      ----- ------------  ---------------
    99      0.211285   4 C  px              144      0.186709   8 H  s         
   100      0.169707   4 C  py              150     -0.144653   9 H  s         
   102      0.135621   4 C  px              143      0.130760   8 H  s         
    37      0.126704   2 C  px                6     -0.119661   1 O  px        
   103      0.112220   4 C  py                7      0.106268   1 O  py        
 
 Vector   12  Occ=2.000000D+00  E=-3.552802D-01
              MO Center=  6.1D-01, -3.1D-01, -8.8D-01, r^2= 2.9D+00
   Bfn.  Coefficient  Atom+Function         Bfn.  Coefficient  Atom+Function  
  ----- ------------  ---------------      ----- ------------  ---------------
   100      0.254120   4 C  py              150     -0.183299   9 H  s         
   156      0.178038  10 H  s               103      0.164930   4 C  py        
     7     -0.159934   1 O  py               10     -0.128177   1 O  py        
   149     -0.127763   9 H  s                70      0.125576   3 C  pz        
   155      0.126008  10 H  s                99     -0.105652   4 C  px        
 
 Vector   13  Occ=2.000000D+00  E=-3.282536D-01
              MO Center=  3.1D-01,  2.3D-01, -2.3D-01, r^2= 2.7D+00
   Bfn.  Coefficient  Atom+Function         Bfn.  Coefficient  Atom+Function  
  ----- ------------  ---------------      ----- ------------  ---------------
    39      0.211526   2 C  pz              101     -0.196740   4 C  pz        
     7     -0.179563   1 O  py               70     -0.163451   3 C  pz        
   138      0.159867   7 H  s                10     -0.145044   1 O  py        
    42      0.144202   2 C  pz              104     -0.138506   4 C  pz        
    99      0.123447   4 C  px              137      0.107411   7 H  s         
 
 Vector   14  Occ=2.000000D+00  E=-3.206589D-01
              MO Center=  3.9D-01, -5.1D-02, -2.3D-01, r^2= 3.0D+00
   Bfn.  Coefficient  Atom+Function         Bfn.  Coefficient  Atom+Function  
  ----- ------------  ---------------      ----- ------------  ---------------
     7      0.199905   1 O  py               10      0.164154   1 O  py        
   126      0.162367   5 H  s                99     -0.154875   4 C  px        
   156      0.152809  10 H  s                 6     -0.150624   1 O  px        
    39      0.137132   2 C  pz               37      0.131488   2 C  px        
   144     -0.129095   8 H  s               101     -0.124342   4 C  pz        
 
 Vector   15  Occ=2.000000D+00  E=-2.646345D-01
              MO Center=  7.8D-03,  1.6D-01,  3.9D-02, r^2= 2.3D+00
   Bfn.  Coefficient  Atom+Function         Bfn.  Coefficient  Atom+Function  
  ----- ------------  ---------------      ----- ------------  ---------------
    68      0.267036   3 C  px               38      0.255555   2 C  py        
     6     -0.233054   1 O  px               41      0.199009   2 C  py        
    71      0.199029   3 C  px                9     -0.182033   1 O  px        
    12     -0.154214   1 O  px              150      0.113528   9 H  s         
     7     -0.110366   1 O  py              100     -0.110512   4 C  py        
 
 Vector   16  Occ=2.000000D+00  E=-2.195824D-01
              MO Center= -5.8D-01, -3.9D-02,  2.0D-01, r^2= 1.6D+00
   Bfn.  Coefficient  Atom+Function         Bfn.  Coefficient  Atom+Function  
  ----- ------------  ---------------      ----- ------------  ---------------
     8      0.449279   1 O  pz               11      0.357582   1 O  pz        
    14      0.296322   1 O  pz              133     -0.128194   6 H  s         
   139      0.110556   7 H  s               145     -0.103369   8 H  s         
   132     -0.101877   6 H  s               138      0.099962   7 H  s         
    98      0.098788   4 C  s               126     -0.098787   5 H  s         
 
 Vector   17  Occ=0.000000D+00  E= 2.580062D-02
              MO Center=  1.2D+00, -6.2D-03, -5.8D-01, r^2= 7.3D+00
   Bfn.  Coefficient  Atom+Function         Bfn.  Coefficient  Atom+Function  
  ----- ------------  ---------------      ----- ------------  ---------------
    98      4.306527   4 C  s               145     -1.480508   8 H  s         
   151     -1.450896   9 H  s               157     -1.334996  10 H  s         
   127     -1.203401   5 H  s                45      1.079666   2 C  pz        
   139     -0.882071   7 H  s                67      0.679546   3 C  s         
   133     -0.625266   6 H  s                74     -0.365773   3 C  px        
 
 Vector   18  Occ=0.000000D+00  E= 3.977114D-02
              MO Center= -1.2D-01,  6.1D-01,  6.8D-02, r^2= 4.5D+00
   Bfn.  Coefficient  Atom+Function         Bfn.  Coefficient  Atom+Function  
  ----- ------------  ---------------      ----- ------------  ---------------
    98      2.312992   4 C  s                36     -1.914997   2 C  s         
     5      1.217632   1 O  s                74      0.896057   3 C  px        
   151     -0.852075   9 H  s                45      0.527444   2 C  pz        
   157     -0.517528  10 H  s                67      0.476707   3 C  s         
   145     -0.437751   8 H  s                13      0.430671   1 O  py        
 
 Vector   19  Occ=0.000000D+00  E= 5.006593D-02
              MO Center=  3.0D-01,  8.5D-01, -4.6D-02, r^2= 6.5D+00
   Bfn.  Coefficient  Atom+Function         Bfn.  Coefficient  Atom+Function  
  ----- ------------  ---------------      ----- ------------  ---------------
    67      3.690087   3 C  s                36     -1.816101   2 C  s         
   139     -1.547451   7 H  s                98     -1.396102   4 C  s         
   133     -1.113981   6 H  s               145      1.028343   8 H  s         
    44     -0.955976   2 C  py              127      0.874698   5 H  s         
    45     -0.643321   2 C  pz               74      0.523893   3 C  px        
 
 Vector   20  Occ=0.000000D+00  E= 5.036851D-02
              MO Center=  6.8D-01,  1.7D-01,  3.6D-01, r^2= 7.4D+00
   Bfn.  Coefficient  Atom+Function         Bfn.  Coefficient  Atom+Function  
  ----- ------------  ---------------      ----- ------------  ---------------
    98      3.072178   4 C  s                36     -2.165690   2 C  s         
   127      1.959444   5 H  s               133      1.460225   6 H  s         
   157     -1.349700  10 H  s                67     -0.810805   3 C  s         
    43     -0.775229   2 C  px              145     -0.746410   8 H  s         
    76     -0.738508   3 C  pz               44      0.674519   2 C  py        
 
 Vector   21  Occ=0.000000D+00  E= 6.410214D-02
              MO Center=  2.8D-01,  1.2D-01, -1.8D-01, r^2= 4.9D+00
   Bfn.  Coefficient  Atom+Function         Bfn.  Coefficient  Atom+Function  
  ----- ------------  ---------------      ----- ------------  ---------------
    98      1.259038   4 C  s               139      1.261405   7 H  s         
    67     -1.015358   3 C  s               151     -0.986501   9 H  s         
     5     -0.854327   1 O  s                43     -0.827917   2 C  px        
   133      0.586561   6 H  s                75     -0.555926   3 C  py        
    12     -0.478556   1 O  px              127     -0.404769   5 H  s         
 
 Vector   22  Occ=0.000000D+00  E= 8.520655D-02
              MO Center=  1.1D+00,  2.8D-01, -3.8D-01, r^2= 7.4D+00
   Bfn.  Coefficient  Atom+Function         Bfn.  Coefficient  Atom+Function  
  ----- ------------  ---------------      ----- ------------  ---------------
    36      3.235258   2 C  s               145      1.741922   8 H  s         
    67     -1.624614   3 C  s               127     -1.374528   5 H  s         
   133      1.321588   6 H  s               157     -1.319657  10 H  s         
   107     -1.174446   4 C  pz               98     -1.091024   4 C  s         
    75      0.845995   3 C  py              105     -0.835973   4 C  px        
 
 Vector   23  Occ=0.000000D+00  E= 9.138579D-02
              MO Center=  1.4D+00, -7.3D-01, -6.9D-01, r^2= 6.1D+00
   Bfn.  Coefficient  Atom+Function         Bfn.  Coefficient  Atom+Function  
  ----- ------------  ---------------      ----- ------------  ---------------
   151      2.111152   9 H  s                36      2.070356   2 C  s         
   145     -1.869948   8 H  s               105      1.248864   4 C  px        
   106      1.177309   4 C  py               98     -1.103547   4 C  s         
   133      0.767884   6 H  s                67     -0.710254   3 C  s         
    44     -0.639919   2 C  py              127     -0.618082   5 H  s         
 
 Vector   24  Occ=0.000000D+00  E= 1.029916D-01
              MO Center=  4.2D-01,  4.3D-01, -1.1D+00, r^2= 6.8D+00
   Bfn.  Coefficient  Atom+Function         Bfn.  Coefficient  Atom+Function  
  ----- ------------  ---------------      ----- ------------  ---------------
   157      2.026733  10 H  s               133      1.599028   6 H  s         
   139     -1.506401   7 H  s               106     -1.457233   4 C  py        
    98     -1.429063   4 C  s               151     -1.405870   9 H  s         
    36      1.317327   2 C  s                76     -1.170231   3 C  pz        
   105      0.985551   4 C  px               45     -0.492249   2 C  pz        
 
 Vector   25  Occ=0.000000D+00  E= 1.386276D-01
              MO Center=  8.3D-01,  1.7D-01, -4.4D-01, r^2= 7.8D+00
   Bfn.  Coefficient  Atom+Function         Bfn.  Coefficient  Atom+Function  
  ----- ------------  ---------------      ----- ------------  ---------------
    36      4.515651   2 C  s                98     -3.529410   4 C  s         
    45     -3.448088   2 C  pz              127      2.743612   5 H  s         
    67     -2.623607   3 C  s                76      2.162127   3 C  pz        
   105      2.102079   4 C  px              133     -1.800828   6 H  s         
   139      1.688716   7 H  s               107     -1.598528   4 C  pz        
 
 Vector   26  Occ=0.000000D+00  E= 1.699565D-01
              MO Center=  4.4D-01,  5.6D-01, -1.2D-01, r^2= 7.3D+00
   Bfn.  Coefficient  Atom+Function         Bfn.  Coefficient  Atom+Function  
  ----- ------------  ---------------      ----- ------------  ---------------
    75      2.355263   3 C  py               36      1.711391   2 C  s         
    67     -1.622939   3 C  s               107      1.569490   4 C  pz        
   139     -1.200203   7 H  s               157      1.057362  10 H  s         
    74     -1.000448   3 C  px               44      0.772991   2 C  py        
    43     -0.627239   2 C  px              106     -0.615810   4 C  py        
 
 Vector   27  Occ=0.000000D+00  E= 1.970042D-01
              MO Center=  8.9D-01, -3.1D-02, -9.0D-01, r^2= 5.2D+00
   Bfn.  Coefficient  Atom+Function         Bfn.  Coefficient  Atom+Function  
  ----- ------------  ---------------      ----- ------------  ---------------
    67      3.088568   3 C  s                44     -2.631547   2 C  py        
   106      2.061455   4 C  py               36     -1.549980   2 C  s         
    43      1.046461   2 C  px               74      0.719854   3 C  px        
   157     -0.722993  10 H  s               150      0.633743   9 H  s         
   107     -0.603071   4 C  pz              145     -0.568924   8 H  s         
 
 Vector   28  Occ=0.000000D+00  E= 2.017443D-01
              MO Center=  8.6D-01, -4.7D-01, -7.5D-01, r^2= 6.6D+00
   Bfn.  Coefficient  Atom+Function         Bfn.  Coefficient  Atom+Function  
  ----- ------------  ---------------      ----- ------------  ---------------
    36      2.595656   2 C  s                75      1.730233   3 C  py        
   105     -1.557681   4 C  px              133     -1.171297   6 H  s         
    45      0.893494   2 C  pz              139     -0.786962   7 H  s         
   107     -0.714681   4 C  pz              156     -0.716975  10 H  s         
    76      0.617966   3 C  pz               74     -0.580527   3 C  px        
 
 Vector   29  Occ=0.000000D+00  E= 2.353432D-01
              MO Center= -3.2D-01,  4.4D-01, -6.3D-02, r^2= 5.4D+00
   Bfn.  Coefficient  Atom+Function         Bfn.  Coefficient  Atom+Function  
  ----- ------------  ---------------      ----- ------------  ---------------
    67      4.605453   3 C  s                36     -2.996762   2 C  s         
   139     -1.475135   7 H  s                66     -1.420041   3 C  s         
   133     -1.245685   6 H  s                98      1.173658   4 C  s         
   107      0.923041   4 C  pz                5     -0.852991   1 O  s         
    74     -0.800523   3 C  px              106      0.792528   4 C  py        
 
 Vector   30  Occ=0.000000D+00  E= 2.462248D-01
              MO Center=  5.6D-01,  8.6D-03, -1.2D-01, r^2= 5.8D+00
   Bfn.  Coefficient  Atom+Function         Bfn.  Coefficient  Atom+Function  
  ----- ------------  ---------------      ----- ------------  ---------------
    67      5.651200   3 C  s                43      4.053992   2 C  px        
    75     -2.954629   3 C  py               44     -2.479114   2 C  py        
    36     -2.264290   2 C  s               107     -1.876507   4 C  pz        
   157     -1.786579  10 H  s                45     -1.329631   2 C  pz        
   105     -1.279431   4 C  px               98     -1.086981   4 C  s         
 
 Vector   31  Occ=0.000000D+00  E= 2.684479D-01
              MO Center=  2.4D-01, -1.9D-01,  2.5D-01, r^2= 5.6D+00
   Bfn.  Coefficient  Atom+Function         Bfn.  Coefficient  Atom+Function  
  ----- ------------  ---------------      ----- ------------  ---------------
    36      4.556725   2 C  s                 5     -2.312512   1 O  s         
    67      2.198992   3 C  s                43     -1.570892   2 C  px        
   105      1.497845   4 C  px               66     -1.181518   3 C  s         
    98     -1.087004   4 C  s               133     -0.920017   6 H  s         
   139     -0.915434   7 H  s               127     -0.885548   5 H  s         
 
 Vector   32  Occ=0.000000D+00  E= 2.754978D-01
              MO Center=  4.9D-01,  3.4D-01,  3.0D-01, r^2= 4.2D+00
   Bfn.  Coefficient  Atom+Function         Bfn.  Coefficient  Atom+Function  
  ----- ------------  ---------------      ----- ------------  ---------------
    36      2.314643   2 C  s                67     -1.957233   3 C  s         
     5     -1.551928   1 O  s                43     -1.159437   2 C  px        
    74     -0.686750   3 C  px               98     -0.672592   4 C  s         
    45     -0.598691   2 C  pz              145      0.594775   8 H  s         
    66      0.562474   3 C  s                 4      0.482587   1 O  s         
 
 Vector   33  Occ=0.000000D+00  E= 2.992126D-01
              MO Center=  4.6D-01,  3.4D-01, -4.1D-01, r^2= 5.0D+00
   Bfn.  Coefficient  Atom+Function         Bfn.  Coefficient  Atom+Function  
  ----- ------------  ---------------      ----- ------------  ---------------
    43      1.959860   2 C  px              106      1.712405   4 C  py        
   151      1.565265   9 H  s                36     -1.549615   2 C  s         
    98     -1.395102   4 C  s                44     -1.347217   2 C  py        
    76      1.151693   3 C  pz              107     -1.071231   4 C  pz        
    66      0.952774   3 C  s               157     -0.828156  10 H  s         
 
 Vector   34  Occ=0.000000D+00  E= 3.371950D-01
              MO Center=  1.4D-01,  3.9D-01, -4.2D-01, r^2= 5.8D+00
   Bfn.  Coefficient  Atom+Function         Bfn.  Coefficient  Atom+Function  
  ----- ------------  ---------------      ----- ------------  ---------------
    67      4.202978   3 C  s                76     -3.824693   3 C  pz        
   139     -3.018287   7 H  s               133      1.905578   6 H  s         
   107     -1.838921   4 C  pz              157     -1.694330  10 H  s         
    36     -1.587131   2 C  s                43      1.271263   2 C  px        
    98      1.173167   4 C  s                66     -0.992930   3 C  s         
 
 Vector   35  Occ=0.000000D+00  E= 3.631069D-01
              MO Center=  6.9D-01,  8.5D-02, -2.2D-01, r^2= 6.7D+00
   Bfn.  Coefficient  Atom+Function         Bfn.  Coefficient  Atom+Function  
  ----- ------------  ---------------      ----- ------------  ---------------
    98      6.643274   4 C  s                76      3.347633   3 C  pz        
   145     -3.051986   8 H  s                97     -2.791671   4 C  s         
    36      2.430202   2 C  s               133     -2.307329   6 H  s         
    67     -2.178612   3 C  s               139      1.916036   7 H  s         
    44      1.687033   2 C  py              151     -1.610136   9 H  s         
 
 Vector   36  Occ=0.000000D+00  E= 3.714100D-01
              MO Center=  6.0D-01,  2.1D-01, -3.0D-01, r^2= 6.6D+00
   Bfn.  Coefficient  Atom+Function         Bfn.  Coefficient  Atom+Function  
  ----- ------------  ---------------      ----- ------------  ---------------
    36     12.411566   2 C  s                98    -10.300448   4 C  s         
    67     -8.156048   3 C  s                97      2.894713   4 C  s         
   127     -2.729088   5 H  s               157      2.540356  10 H  s         
   151      2.108334   9 H  s                44      1.909395   2 C  py        
   145      1.731665   8 H  s                35     -1.650488   2 C  s         
 
 Vector   37  Occ=0.000000D+00  E= 3.839019D-01
              MO Center=  9.2D-01, -3.6D-01, -2.0D-02, r^2= 6.0D+00
   Bfn.  Coefficient  Atom+Function         Bfn.  Coefficient  Atom+Function  
  ----- ------------  ---------------      ----- ------------  ---------------
    36      7.184382   2 C  s               127     -4.373334   5 H  s         
    98      3.192789   4 C  s                67     -3.021803   3 C  s         
    45      2.864002   2 C  pz               35     -2.351277   2 C  s         
   151     -2.105688   9 H  s                76     -1.836751   3 C  pz        
   145     -1.811015   8 H  s                43      1.553211   2 C  px        
 
 Vector   38  Occ=0.000000D+00  E= 3.940221D-01
              MO Center=  1.9D-01,  2.3D-01,  2.5D-02, r^2= 6.6D+00
   Bfn.  Coefficient  Atom+Function         Bfn.  Coefficient  Atom+Function  
  ----- ------------  ---------------      ----- ------------  ---------------
    98     11.825570   4 C  s                67     -6.982560   3 C  s         
    45      5.244699   2 C  pz               76     -3.239506   3 C  pz        
   133      2.887967   6 H  s                44      2.652199   2 C  py        
   157     -2.560700  10 H  s                75      2.040747   3 C  py        
    43     -2.026582   2 C  px               97     -1.812228   4 C  s         
 
 Vector   39  Occ=0.000000D+00  E= 4.016394D-01
              MO Center= -3.2D-01,  1.3D-01,  1.6D-01, r^2= 6.4D+00
   Bfn.  Coefficient  Atom+Function         Bfn.  Coefficient  Atom+Function  
  ----- ------------  ---------------      ----- ------------  ---------------
    67    -11.672946   3 C  s                36     11.406305   2 C  s         
    45     -5.326693   2 C  pz               98     -4.887427   4 C  s         
    44      3.657271   2 C  py              127      2.936741   5 H  s         
    66      2.661880   3 C  s               139      2.572943   7 H  s         
    43     -2.316553   2 C  px              105      2.295363   4 C  px        
 
 Vector   40  Occ=0.000000D+00  E= 4.154470D-01
              MO Center=  8.0D-01, -2.4D-01, -7.9D-01, r^2= 6.0D+00
   Bfn.  Coefficient  Atom+Function         Bfn.  Coefficient  Atom+Function  
  ----- ------------  ---------------      ----- ------------  ---------------
    98      6.685755   4 C  s                36     -3.290825   2 C  s         
    45      2.919985   2 C  pz              105     -2.609232   4 C  px        
   151     -2.196987   9 H  s               157     -2.036505  10 H  s         
   145      1.893446   8 H  s                97     -1.038809   4 C  s         
   133     -1.014797   6 H  s               144     -0.982978   8 H  s         
 
 Vector   41  Occ=0.000000D+00  E= 4.263378D-01
              MO Center=  5.4D-01,  6.4D-02, -2.7D-01, r^2= 6.9D+00
   Bfn.  Coefficient  Atom+Function         Bfn.  Coefficient  Atom+Function  
  ----- ------------  ---------------      ----- ------------  ---------------
    36      9.226675   2 C  s                67     -4.592993   3 C  s         
    98     -4.437557   4 C  s               151      2.593113   9 H  s         
    44      2.480276   2 C  py               75      2.466260   3 C  py        
    45     -1.695232   2 C  pz               43     -1.683195   2 C  px        
    74     -1.400043   3 C  px              105      1.335472   4 C  px        
 
 Vector   42  Occ=0.000000D+00  E= 4.481893D-01
              MO Center=  1.1D-01, -1.0D-01, -1.5D-01, r^2= 6.1D+00
   Bfn.  Coefficient  Atom+Function         Bfn.  Coefficient  Atom+Function  
  ----- ------------  ---------------      ----- ------------  ---------------
    36      9.611663   2 C  s                98     -9.207200   4 C  s         
    45     -5.776433   2 C  pz              127      2.987558   5 H  s         
    67     -2.864479   3 C  s                76      2.768085   3 C  pz        
   157      2.214530  10 H  s                44      2.141713   2 C  py        
   133     -2.144815   6 H  s               106     -2.009689   4 C  py        
 
 Vector   43  Occ=0.000000D+00  E= 4.584266D-01
              MO Center=  9.0D-02,  7.4D-01, -6.3D-01, r^2= 5.2D+00
   Bfn.  Coefficient  Atom+Function         Bfn.  Coefficient  Atom+Function  
  ----- ------------  ---------------      ----- ------------  ---------------
   139      3.201833   7 H  s               157     -2.609362  10 H  s         
    75     -2.311570   3 C  py              107     -2.233019   4 C  pz        
    44     -1.732506   2 C  py               43      1.716543   2 C  px        
    45     -1.525763   2 C  pz              138     -1.388860   7 H  s         
    76      0.944850   3 C  pz               74      0.882082   3 C  px        
 
 Vector   44  Occ=0.000000D+00  E= 4.681475D-01
              MO Center=  4.0D-01,  2.8D-01,  8.5D-02, r^2= 5.6D+00
   Bfn.  Coefficient  Atom+Function         Bfn.  Coefficient  Atom+Function  
  ----- ------------  ---------------      ----- ------------  ---------------
    98     -5.242683   4 C  s                36      4.768689   2 C  s         
    45     -2.279493   2 C  pz              145      1.720052   8 H  s         
   133      1.435068   6 H  s                67     -1.408917   3 C  s         
   107     -1.385302   4 C  pz               35     -1.245936   2 C  s         
   132     -1.197085   6 H  s               126      1.110146   5 H  s         
 
 Vector   45  Occ=0.000000D+00  E= 5.070498D-01
              MO Center=  9.6D-01, -4.1D-01, -9.9D-01, r^2= 4.7D+00
   Bfn.  Coefficient  Atom+Function         Bfn.  Coefficient  Atom+Function  
  ----- ------------  ---------------      ----- ------------  ---------------
    98     11.526924   4 C  s                36     -7.690502   2 C  s         
    45      4.687667   2 C  pz              107      3.092159   4 C  pz        
   144     -1.320536   8 H  s               106      1.306736   4 C  py        
   156     -1.285461  10 H  s               150     -1.136107   9 H  s         
   127     -1.106737   5 H  s               105     -1.098074   4 C  px        
 
 Vector   46  Occ=0.000000D+00  E= 5.352948D-01
              MO Center=  3.9D-02, -3.7D-01, -4.5D-01, r^2= 4.3D+00
   Bfn.  Coefficient  Atom+Function         Bfn.  Coefficient  Atom+Function  
  ----- ------------  ---------------      ----- ------------  ---------------
    98     -5.909730   4 C  s                36      5.855414   2 C  s         
    76      3.167934   3 C  pz               45     -3.113414   2 C  pz        
   133     -1.819322   6 H  s               105      1.413878   4 C  px        
   139      1.369737   7 H  s                14     -1.220799   1 O  pz        
   107     -1.160201   4 C  pz                5     -1.074628   1 O  s         
 
 Vector   47  Occ=0.000000D+00  E= 6.575389D-01
              MO Center= -4.2D-01,  3.8D-02, -3.3D-02, r^2= 4.4D+00
   Bfn.  Coefficient  Atom+Function         Bfn.  Coefficient  Atom+Function  
  ----- ------------  ---------------      ----- ------------  ---------------
    36     12.026526   2 C  s                67     -9.114352   3 C  s         
    98     -4.496295   4 C  s                43     -2.520480   2 C  px        
    75      2.486704   3 C  py               13      2.311831   1 O  py        
    76      2.163888   3 C  pz              105      1.655398   4 C  px        
   139      1.565246   7 H  s                44      1.385150   2 C  py        
 
 Vector   48  Occ=0.000000D+00  E= 6.739644D-01
              MO Center= -2.7D-01,  3.5D-01,  1.3D-01, r^2= 3.9D+00
   Bfn.  Coefficient  Atom+Function         Bfn.  Coefficient  Atom+Function  
  ----- ------------  ---------------      ----- ------------  ---------------
    36      7.368266   2 C  s                67     -7.388500   3 C  s         
     5      2.903642   1 O  s                75      2.431904   3 C  py        
    13      1.985087   1 O  py               98     -1.831070   4 C  s         
    45     -1.242036   2 C  pz               43     -1.170483   2 C  px        
     4     -1.091602   1 O  s                44      0.940965   2 C  py        
 
 Vector   49  Occ=0.000000D+00  E= 7.059109D-01
              MO Center=  1.8D-01, -3.2D-01, -2.7D-01, r^2= 4.5D+00
   Bfn.  Coefficient  Atom+Function         Bfn.  Coefficient  Atom+Function  
  ----- ------------  ---------------      ----- ------------  ---------------
    67      9.480284   3 C  s                36     -7.504663   2 C  s         
    43      3.591274   2 C  px               44     -3.479662   2 C  py        
    75     -2.768210   3 C  py               98     -2.386054   4 C  s         
     5      2.297252   1 O  s                12      1.691574   1 O  px        
   106      1.667259   4 C  py               13     -1.301322   1 O  py        
 
 Vector   50  Occ=0.000000D+00  E= 7.595425D-01
              MO Center=  6.4D-01,  3.5D-02, -3.3D-01, r^2= 4.0D+00
   Bfn.  Coefficient  Atom+Function         Bfn.  Coefficient  Atom+Function  
  ----- ------------  ---------------      ----- ------------  ---------------
    45      2.499130   2 C  pz              127     -1.720245   5 H  s         
   105     -1.661855   4 C  px               43      1.500097   2 C  px        
    36      1.442251   2 C  s               126     -1.318257   5 H  s         
   144      1.246289   8 H  s                76     -1.152177   3 C  pz        
     5     -1.105348   1 O  s                66      0.902182   3 C  s         
 
 Vector   51  Occ=0.000000D+00  E= 7.942004D-01
              MO Center=  2.7D-01,  2.2D-02, -2.0D-01, r^2= 4.4D+00
   Bfn.  Coefficient  Atom+Function         Bfn.  Coefficient  Atom+Function  
  ----- ------------  ---------------      ----- ------------  ---------------
     5      4.153017   1 O  s                36     -2.684796   2 C  s         
    76     -2.453668   3 C  pz                4     -1.660169   1 O  s         
    45      1.401335   2 C  pz               12      1.382431   1 O  px        
   133      1.296015   6 H  s                43      1.136180   2 C  px        
    66     -1.104228   3 C  s                35     -1.019121   2 C  s         
 
 Vector   52  Occ=0.000000D+00  E= 8.308165D-01
              MO Center=  3.0D-01,  1.7D-01,  8.2D-04, r^2= 4.5D+00
   Bfn.  Coefficient  Atom+Function         Bfn.  Coefficient  Atom+Function  
  ----- ------------  ---------------      ----- ------------  ---------------
    36      6.824703   2 C  s                 5     -4.133686   1 O  s         
    98     -4.142665   4 C  s                43     -2.591984   2 C  px        
   105      1.989594   4 C  px               45     -1.947969   2 C  pz        
    35     -1.852618   2 C  s                44      1.478382   2 C  py        
    66     -1.155569   3 C  s                97      0.996875   4 C  s         
 
 Vector   53  Occ=0.000000D+00  E= 8.543354D-01
              MO Center=  6.3D-01,  1.0D-01, -4.0D-01, r^2= 4.2D+00
   Bfn.  Coefficient  Atom+Function         Bfn.  Coefficient  Atom+Function  
  ----- ------------  ---------------      ----- ------------  ---------------
    45      4.484801   2 C  pz               98      4.426965   4 C  s         
    36     -3.925717   2 C  s                76     -2.051682   3 C  pz        
   127     -1.784033   5 H  s               106      1.488121   4 C  py        
    44     -1.326837   2 C  py              105     -1.269223   4 C  px        
   150      1.254469   9 H  s               139     -1.090227   7 H  s         
 
 Vector   54  Occ=0.000000D+00  E= 8.691617D-01
              MO Center=  1.7D-01, -9.8D-03, -9.6D-02, r^2= 4.2D+00
   Bfn.  Coefficient  Atom+Function         Bfn.  Coefficient  Atom+Function  
  ----- ------------  ---------------      ----- ------------  ---------------
     5      4.538678   1 O  s                36     -1.801505   2 C  s         
     4     -1.574244   1 O  s               138      1.469893   7 H  s         
    76      1.274890   3 C  pz               12      1.185310   1 O  px        
    67     -1.148671   3 C  s                66     -1.118474   3 C  s         
    97      0.866580   4 C  s                43      0.860158   2 C  px        
 
 Vector   55  Occ=0.000000D+00  E= 9.195012D-01
              MO Center=  5.1D-01,  3.1D-01, -4.8D-01, r^2= 4.6D+00
   Bfn.  Coefficient  Atom+Function         Bfn.  Coefficient  Atom+Function  
  ----- ------------  ---------------      ----- ------------  ---------------
    35      4.791480   2 C  s               132     -1.362183   6 H  s         
    98     -1.319885   4 C  s                36     -1.310720   2 C  s         
    72      1.268535   3 C  py               66     -1.254548   3 C  s         
    67      1.248620   3 C  s               156     -1.171670  10 H  s         
    84      1.161717   3 C  d  0             41      1.135896   2 C  py        
 
 Vector   56  Occ=0.000000D+00  E= 9.610884D-01
              MO Center=  4.9D-01,  2.6D-01, -5.8D-01, r^2= 4.7D+00
   Bfn.  Coefficient  Atom+Function         Bfn.  Coefficient  Atom+Function  
  ----- ------------  ---------------      ----- ------------  ---------------
    35      4.160027   2 C  s                67      2.621879   3 C  s         
   138     -2.308130   7 H  s                76     -1.819180   3 C  pz        
    42     -1.738615   2 C  pz               36     -1.651837   2 C  s         
    83     -1.606766   3 C  d -1            115     -1.482009   4 C  d  0      
   132      1.337967   6 H  s                43      1.291084   2 C  px        
 
 Vector   57  Occ=0.000000D+00  E= 9.914054D-01
              MO Center=  3.0D-01,  5.6D-01, -7.2D-02, r^2= 4.0D+00
   Bfn.  Coefficient  Atom+Function         Bfn.  Coefficient  Atom+Function  
  ----- ------------  ---------------      ----- ------------  ---------------
    36      6.915840   2 C  s                98     -4.714166   4 C  s         
    45     -3.591983   2 C  pz               67     -3.518418   3 C  s         
    43     -2.168099   2 C  px               44      1.950631   2 C  py        
    66     -1.630467   3 C  s               127      1.488098   5 H  s         
    75      1.363337   3 C  py              126      1.298731   5 H  s         
 
 Vector   58  Occ=0.000000D+00  E= 1.010906D+00
              MO Center=  4.2D-01,  4.7D-01, -8.9D-02, r^2= 4.4D+00
   Bfn.  Coefficient  Atom+Function         Bfn.  Coefficient  Atom+Function  
  ----- ------------  ---------------      ----- ------------  ---------------
    36      5.865773   2 C  s                67     -4.657936   3 C  s         
    45     -2.367809   2 C  pz               98     -2.015426   4 C  s         
    44      1.953933   2 C  py              156     -1.524011  10 H  s         
    43     -1.464541   2 C  px              144      1.398642   8 H  s         
    41      1.334193   2 C  py               74     -1.305606   3 C  px        
 
 Vector   59  Occ=0.000000D+00  E= 1.041814D+00
              MO Center=  7.1D-01, -1.7D-01, -4.7D-01, r^2= 4.2D+00
   Bfn.  Coefficient  Atom+Function         Bfn.  Coefficient  Atom+Function  
  ----- ------------  ---------------      ----- ------------  ---------------
    36      2.813531   2 C  s                35      2.632211   2 C  s         
    66     -2.268812   3 C  s               150      1.941158   9 H  s         
     5     -1.925680   1 O  s               144     -1.927874   8 H  s         
   117      1.708196   4 C  d  2             41      1.484018   2 C  py        
    67     -1.368941   3 C  s                44      1.356106   2 C  py        
 
 Vector   60  Occ=0.000000D+00  E= 1.078385D+00
              MO Center=  6.7D-01,  1.5D-02, -6.8D-02, r^2= 4.1D+00
   Bfn.  Coefficient  Atom+Function         Bfn.  Coefficient  Atom+Function  
  ----- ------------  ---------------      ----- ------------  ---------------
    98      4.272946   4 C  s                45      3.904419   2 C  pz        
    66     -3.884379   3 C  s                36     -3.517066   2 C  s         
    97      3.510325   4 C  s                41      2.462497   2 C  py        
   104      2.384959   4 C  pz               72      2.250958   3 C  py        
    42      2.201437   2 C  pz              107      2.156472   4 C  pz        
 
 Vector   61  Occ=0.000000D+00  E= 1.102506D+00
              MO Center=  3.6D-01,  7.1D-02,  7.3D-02, r^2= 3.8D+00
   Bfn.  Coefficient  Atom+Function         Bfn.  Coefficient  Atom+Function  
  ----- ------------  ---------------      ----- ------------  ---------------
    36      7.577826   2 C  s                67     -5.290824   3 C  s         
    98     -3.021536   4 C  s                66      2.320232   3 C  s         
    45     -2.008605   2 C  pz              126     -1.996518   5 H  s         
    72     -1.686225   3 C  py              132      1.682062   6 H  s         
    41     -1.570704   2 C  py               53      1.531792   2 C  d  0      
 
 Vector   62  Occ=0.000000D+00  E= 1.144922D+00
              MO Center=  6.3D-01,  2.0D-03, -3.2D-02, r^2= 3.5D+00
   Bfn.  Coefficient  Atom+Function         Bfn.  Coefficient  Atom+Function  
  ----- ------------  ---------------      ----- ------------  ---------------
    67      5.099057   3 C  s                36     -4.011759   2 C  s         
    44     -2.394750   2 C  py              126      1.787507   5 H  s         
    97     -1.594001   4 C  s                43      1.528266   2 C  px        
    54      1.522223   2 C  d  1             55      1.483825   2 C  d  2      
    75     -1.443289   3 C  py               42     -1.357861   2 C  pz        
 
 Vector   63  Occ=0.000000D+00  E= 1.213561D+00
              MO Center=  5.5D-01,  2.2D-01, -1.3D-01, r^2= 3.8D+00
   Bfn.  Coefficient  Atom+Function         Bfn.  Coefficient  Atom+Function  
  ----- ------------  ---------------      ----- ------------  ---------------
    36      6.765991   2 C  s                66     -4.964043   3 C  s         
    67     -3.343402   3 C  s                97     -3.197196   4 C  s         
    35      2.991019   2 C  s                72      1.893158   3 C  py        
    51     -1.748646   2 C  d -2            138      1.701663   7 H  s         
    52      1.655327   2 C  d -1             41      1.523416   2 C  py        
 
 Vector   64  Occ=0.000000D+00  E= 1.348014D+00
              MO Center=  3.4D-01,  5.4D-01,  2.3D-01, r^2= 3.6D+00
   Bfn.  Coefficient  Atom+Function         Bfn.  Coefficient  Atom+Function  
  ----- ------------  ---------------      ----- ------------  ---------------
    66      4.570541   3 C  s                35      4.020876   2 C  s         
    67     -2.998157   3 C  s                36     -2.915162   2 C  s         
    65     -2.380620   3 C  s               132     -2.079531   6 H  s         
    34     -1.478573   2 C  s               133      1.448855   6 H  s         
    72      1.437104   3 C  py              139      1.045051   7 H  s         
 
 Vector   65  Occ=0.000000D+00  E= 1.414376D+00
              MO Center=  1.4D-01,  5.4D-01, -6.1D-02, r^2= 3.4D+00
   Bfn.  Coefficient  Atom+Function         Bfn.  Coefficient  Atom+Function  
  ----- ------------  ---------------      ----- ------------  ---------------
    36      4.227622   2 C  s                67     -3.990026   3 C  s         
    66      3.891374   3 C  s                35     -3.748396   2 C  s         
    73     -2.279096   3 C  pz              138     -2.246051   7 H  s         
   139      2.245628   7 H  s               126      1.732750   5 H  s         
    76      1.719644   3 C  pz               65     -1.599083   3 C  s         
 
 Vector   66  Occ=0.000000D+00  E= 1.432921D+00
              MO Center=  1.1D+00, -4.8D-01, -1.1D+00, r^2= 3.5D+00
   Bfn.  Coefficient  Atom+Function         Bfn.  Coefficient  Atom+Function  
  ----- ------------  ---------------      ----- ------------  ---------------
    98      9.995819   4 C  s                97     -7.528397   4 C  s         
    96      3.040491   4 C  s                36     -2.499841   2 C  s         
   145     -2.361768   8 H  s               151     -2.329982   9 H  s         
   157     -2.092828  10 H  s               144      1.689903   8 H  s         
   150      1.687198   9 H  s               104      1.483772   4 C  pz        
 
 Vector   67  Occ=0.000000D+00  E= 1.442416D+00
              MO Center=  4.1D-01,  3.7D-03, -2.4D-01, r^2= 4.2D+00
   Bfn.  Coefficient  Atom+Function         Bfn.  Coefficient  Atom+Function  
  ----- ------------  ---------------      ----- ------------  ---------------
    66      4.154893   3 C  s                35     -3.067958   2 C  s         
    67     -2.899595   3 C  s                98      2.448770   4 C  s         
    36      2.173754   2 C  s               133      1.873293   6 H  s         
    45      1.755450   2 C  pz               76     -1.719407   3 C  pz        
   127     -1.506748   5 H  s                65     -1.488306   3 C  s         
 
 Vector   68  Occ=0.000000D+00  E= 1.445796D+00
              MO Center=  2.6D-01,  1.8D-02, -3.3D-02, r^2= 3.0D+00
   Bfn.  Coefficient  Atom+Function         Bfn.  Coefficient  Atom+Function  
  ----- ------------  ---------------      ----- ------------  ---------------
    98      5.336473   4 C  s                97     -2.971486   4 C  s         
    36     -2.511346   2 C  s                45      2.106620   2 C  pz        
     5      1.993995   1 O  s                35     -1.691477   2 C  s         
   127     -1.359518   5 H  s                96      1.262616   4 C  s         
   126      1.052452   5 H  s                42     -1.039696   2 C  pz        
 
 Vector   69  Occ=0.000000D+00  E= 1.475803D+00
              MO Center=  9.9D-01, -2.8D-01, -1.0D+00, r^2= 3.4D+00
   Bfn.  Coefficient  Atom+Function         Bfn.  Coefficient  Atom+Function  
  ----- ------------  ---------------      ----- ------------  ---------------
    66      2.126007   3 C  s                36      1.662356   2 C  s         
    67     -1.458622   3 C  s               103      1.148993   4 C  py        
     5     -1.022831   1 O  s               133      0.950784   6 H  s         
    65     -0.901520   3 C  s               150      0.897318   9 H  s         
   132     -0.874254   6 H  s                35     -0.866464   2 C  s         
 
 Vector   70  Occ=0.000000D+00  E= 1.477801D+00
              MO Center=  9.3D-01, -3.7D-01, -1.0D+00, r^2= 3.5D+00
   Bfn.  Coefficient  Atom+Function         Bfn.  Coefficient  Atom+Function  
  ----- ------------  ---------------      ----- ------------  ---------------
    36      2.772938   2 C  s               156     -2.656090  10 H  s         
   102     -2.067318   4 C  px              157      2.068385  10 H  s         
    66     -2.000055   3 C  s               104     -1.751733   4 C  pz        
   126      1.618075   5 H  s               103      1.544957   4 C  py        
   144      1.291002   8 H  s               105      1.253179   4 C  px        
 
 Vector   71  Occ=0.000000D+00  E= 1.511637D+00
              MO Center=  3.7D-01,  1.0D-01, -3.5D-01, r^2= 4.0D+00
   Bfn.  Coefficient  Atom+Function         Bfn.  Coefficient  Atom+Function  
  ----- ------------  ---------------      ----- ------------  ---------------
    98      2.448646   4 C  s               144      1.865695   8 H  s         
   102     -1.558599   4 C  px              103     -1.465181   4 C  py        
   145     -1.420410   8 H  s                45      1.201272   2 C  pz        
    97     -1.079939   4 C  s               150     -1.055459   9 H  s         
    66      0.995392   3 C  s               106      0.807127   4 C  py        
 
 Vector   72  Occ=0.000000D+00  E= 1.542310D+00
              MO Center=  3.2D-01,  4.9D-01, -1.9D-01, r^2= 4.6D+00
   Bfn.  Coefficient  Atom+Function         Bfn.  Coefficient  Atom+Function  
  ----- ------------  ---------------      ----- ------------  ---------------
    36      4.390420   2 C  s                98     -3.653151   4 C  s         
    35     -3.572701   2 C  s                97      3.044635   4 C  s         
    67     -2.432242   3 C  s                73      2.173770   3 C  pz        
   132     -1.765515   6 H  s               133      1.434485   6 H  s         
   138      1.398719   7 H  s               102     -1.344388   4 C  px        
 
 Vector   73  Occ=0.000000D+00  E= 1.576954D+00
              MO Center=  5.0D-01, -4.8D-02, -6.5D-02, r^2= 3.2D+00
   Bfn.  Coefficient  Atom+Function         Bfn.  Coefficient  Atom+Function  
  ----- ------------  ---------------      ----- ------------  ---------------
    35      3.642961   2 C  s                36     -3.103392   2 C  s         
    40     -2.175984   2 C  px               67      2.084627   3 C  s         
    97     -1.932503   4 C  s               126      1.843637   5 H  s         
    72      1.667444   3 C  py               98      1.513693   4 C  s         
    34     -1.493369   2 C  s                66     -1.478995   3 C  s         
 
 Vector   74  Occ=0.000000D+00  E= 1.596272D+00
              MO Center=  3.3D-01,  4.0D-01, -1.4D-01, r^2= 3.4D+00
   Bfn.  Coefficient  Atom+Function         Bfn.  Coefficient  Atom+Function  
  ----- ------------  ---------------      ----- ------------  ---------------
    66     -5.204998   3 C  s                36     -5.146708   2 C  s         
    35      4.872987   2 C  s                67      3.839156   3 C  s         
    41      3.684900   2 C  py               71     -2.518468   3 C  px        
    72      2.295227   3 C  py               98      1.864189   4 C  s         
    40     -1.840187   2 C  px               82      1.656380   3 C  d -2      
 
 Vector   75  Occ=0.000000D+00  E= 1.641799D+00
              MO Center=  4.4D-01,  2.2D-01, -6.1D-03, r^2= 3.7D+00
   Bfn.  Coefficient  Atom+Function         Bfn.  Coefficient  Atom+Function  
  ----- ------------  ---------------      ----- ------------  ---------------
    66      2.607753   3 C  s                35      2.152038   2 C  s         
    98      2.023997   4 C  s                 5     -1.729222   1 O  s         
    97     -1.619496   4 C  s                67     -1.443758   3 C  s         
   144      1.095863   8 H  s               104     -1.074654   4 C  pz        
   150     -0.990176   9 H  s               103     -0.968456   4 C  py        
 
 Vector   76  Occ=0.000000D+00  E= 1.692542D+00
              MO Center=  6.1D-01, -7.9D-02, -4.1D-01, r^2= 3.4D+00
   Bfn.  Coefficient  Atom+Function         Bfn.  Coefficient  Atom+Function  
  ----- ------------  ---------------      ----- ------------  ---------------
    97     -4.322381   4 C  s                35      4.154140   2 C  s         
   104     -2.121969   4 C  pz               66     -2.005745   3 C  s         
    42     -1.978294   2 C  pz              102      1.734276   4 C  px        
    40      1.598071   2 C  px               96      1.289231   4 C  s         
    34     -1.150969   2 C  s                67      1.124513   3 C  s         
 
 Vector   77  Occ=0.000000D+00  E= 1.701011D+00
              MO Center= -7.1D-02,  5.0D-01, -1.0D-01, r^2= 3.8D+00
   Bfn.  Coefficient  Atom+Function         Bfn.  Coefficient  Atom+Function  
  ----- ------------  ---------------      ----- ------------  ---------------
     5      3.817306   1 O  s                97      3.678531   4 C  s         
    72      3.379284   3 C  py               35     -2.722742   2 C  s         
    36     -2.519346   2 C  s                42      2.354907   2 C  pz        
   104      2.203694   4 C  pz              138     -2.160460   7 H  s         
    41      1.522375   2 C  py               12      1.460177   1 O  px        
 
 Vector   78  Occ=0.000000D+00  E= 1.784862D+00
              MO Center=  4.0D-01,  2.7D-01, -9.3D-03, r^2= 3.5D+00
   Bfn.  Coefficient  Atom+Function         Bfn.  Coefficient  Atom+Function  
  ----- ------------  ---------------      ----- ------------  ---------------
    35      2.767721   2 C  s                97     -2.641177   4 C  s         
    36      1.690410   2 C  s                45     -1.255684   2 C  pz        
   104     -1.091548   4 C  pz               67     -1.077267   3 C  s         
    42     -1.007675   2 C  pz              102      0.968063   4 C  px        
   103     -0.905887   4 C  py               96      0.894409   4 C  s         
 
 Vector   79  Occ=0.000000D+00  E= 1.814706D+00
              MO Center= -6.6D-01,  1.8D-01,  2.0D-01, r^2= 2.5D+00
   Bfn.  Coefficient  Atom+Function         Bfn.  Coefficient  Atom+Function  
  ----- ------------  ---------------      ----- ------------  ---------------
    35      4.401406   2 C  s                 5     -3.403007   1 O  s         
    40     -2.435934   2 C  px               41      2.107476   2 C  py        
    72      2.011501   3 C  py               66     -1.842315   3 C  s         
    71     -1.736843   3 C  px               12     -1.414962   1 O  px        
   132     -1.050741   6 H  s               138     -1.001834   7 H  s         
 
 Vector   80  Occ=0.000000D+00  E= 1.839652D+00
              MO Center=  1.5D-01,  2.1D-01, -1.1D-01, r^2= 3.8D+00
   Bfn.  Coefficient  Atom+Function         Bfn.  Coefficient  Atom+Function  
  ----- ------------  ---------------      ----- ------------  ---------------
    35      2.229907   2 C  s                97     -1.005650   4 C  s         
   156     -0.983320  10 H  s               104     -0.968206   4 C  pz        
    36     -0.755271   2 C  s                71     -0.757098   3 C  px        
   157      0.684628  10 H  s               126     -0.665912   5 H  s         
   150      0.665556   9 H  s               151     -0.583877   9 H  s         
 
 Vector   81  Occ=0.000000D+00  E= 1.867924D+00
              MO Center=  4.5D-01,  2.2D-01, -3.7D-01, r^2= 4.0D+00
   Bfn.  Coefficient  Atom+Function         Bfn.  Coefficient  Atom+Function  
  ----- ------------  ---------------      ----- ------------  ---------------
    35      6.121352   2 C  s                66     -4.315639   3 C  s         
    72      3.411002   3 C  py               97     -3.044989   4 C  s         
    36      2.087900   2 C  s               104     -1.701695   4 C  pz        
    34     -1.580599   2 C  s                41      1.555217   2 C  py        
    67     -1.553882   3 C  s                45     -1.315744   2 C  pz        
 
 Vector   82  Occ=0.000000D+00  E= 1.919767D+00
              MO Center=  3.1D-01, -1.5D-01, -3.1D-01, r^2= 3.3D+00
   Bfn.  Coefficient  Atom+Function         Bfn.  Coefficient  Atom+Function  
  ----- ------------  ---------------      ----- ------------  ---------------
    36      1.616732   2 C  s                98     -1.462068   4 C  s         
    45     -1.347782   2 C  pz               97     -1.269959   4 C  s         
    35      1.196290   2 C  s               103     -1.191386   4 C  py        
    66     -0.927796   3 C  s                42     -0.814819   2 C  pz        
    41      0.768517   2 C  py              150     -0.732035   9 H  s         
 
 Vector   83  Occ=0.000000D+00  E= 1.985925D+00
              MO Center=  8.4D-01, -2.3D-01, -3.7D-01, r^2= 3.4D+00
   Bfn.  Coefficient  Atom+Function         Bfn.  Coefficient  Atom+Function  
  ----- ------------  ---------------      ----- ------------  ---------------
    35      3.527261   2 C  s                98      3.449176   4 C  s         
    66     -2.722381   3 C  s                40     -2.259187   2 C  px        
    72      1.956173   3 C  py               41      1.777324   2 C  py        
    36     -1.677430   2 C  s                43     -1.436461   2 C  px        
    71     -1.353838   3 C  px              126      1.167308   5 H  s         
 
 Vector   84  Occ=0.000000D+00  E= 1.992120D+00
              MO Center=  6.1D-01, -9.6D-02, -7.5D-01, r^2= 3.4D+00
   Bfn.  Coefficient  Atom+Function         Bfn.  Coefficient  Atom+Function  
  ----- ------------  ---------------      ----- ------------  ---------------
    36      4.369369   2 C  s                98     -3.734795   4 C  s         
    45     -2.065003   2 C  pz               67     -1.634239   3 C  s         
    35     -1.492076   2 C  s               156      1.132869  10 H  s         
   107     -0.973791   4 C  pz                5     -0.897940   1 O  s         
   104      0.870199   4 C  pz               34      0.681494   2 C  s         
 
 Vector   85  Occ=0.000000D+00  E= 2.089108D+00
              MO Center= -2.1D-02,  1.4D-01, -3.0D-02, r^2= 3.5D+00
   Bfn.  Coefficient  Atom+Function         Bfn.  Coefficient  Atom+Function  
  ----- ------------  ---------------      ----- ------------  ---------------
    36      2.825071   2 C  s                98     -2.254691   4 C  s         
    67     -1.011167   3 C  s                35     -0.890608   2 C  s         
   138     -0.737778   7 H  s               156      0.710487  10 H  s         
   144      0.634244   8 H  s                14     -0.585583   1 O  pz        
    13      0.548444   1 O  py               40     -0.547824   2 C  px        
 
 Vector   86  Occ=0.000000D+00  E= 2.098498D+00
              MO Center= -3.2D-01,  5.4D-02,  2.6D-02, r^2= 3.0D+00
   Bfn.  Coefficient  Atom+Function         Bfn.  Coefficient  Atom+Function  
  ----- ------------  ---------------      ----- ------------  ---------------
    67     -5.376638   3 C  s                36      5.258591   2 C  s         
    66      3.372576   3 C  s                35     -3.307706   2 C  s         
    41     -3.096312   2 C  py               71      2.675032   3 C  px        
    13      1.761557   1 O  py               82     -1.431270   3 C  d -2      
    55      1.297242   2 C  d  2             75      1.291146   3 C  py        
 
 Vector   87  Occ=0.000000D+00  E= 2.160185D+00
              MO Center=  4.9D-01, -4.9D-02, -4.8D-01, r^2= 3.3D+00
   Bfn.  Coefficient  Atom+Function         Bfn.  Coefficient  Atom+Function  
  ----- ------------  ---------------      ----- ------------  ---------------
    98     -2.119277   4 C  s                67      2.064250   3 C  s         
    35      1.353138   2 C  s                36     -1.123270   2 C  s         
    73     -1.021361   3 C  pz               43      0.891054   2 C  px        
    44     -0.875520   2 C  py               40     -0.851818   2 C  px        
    42      0.840212   2 C  pz              156      0.799673  10 H  s         
 
 Vector   88  Occ=0.000000D+00  E= 2.195751D+00
              MO Center=  4.6D-01,  1.9D-01, -3.1D-01, r^2= 3.7D+00
   Bfn.  Coefficient  Atom+Function         Bfn.  Coefficient  Atom+Function  
  ----- ------------  ---------------      ----- ------------  ---------------
    98      2.131802   4 C  s                45      1.051246   2 C  pz        
    36     -1.035363   2 C  s                76     -0.904309   3 C  pz        
   132      0.781154   6 H  s                42     -0.716551   2 C  pz        
   103     -0.677018   4 C  py              117     -0.658513   4 C  d  2      
    71      0.608939   3 C  px               97     -0.605806   4 C  s         
 
 Vector   89  Occ=0.000000D+00  E= 2.223111D+00
              MO Center=  5.8D-01,  4.3D-02,  2.3D-03, r^2= 3.5D+00
   Bfn.  Coefficient  Atom+Function         Bfn.  Coefficient  Atom+Function  
  ----- ------------  ---------------      ----- ------------  ---------------
    36      2.863054   2 C  s                67     -1.455146   3 C  s         
    98     -1.228155   4 C  s                 5     -1.135202   1 O  s         
    42     -1.023440   2 C  pz               72     -0.937425   3 C  py        
    66      0.789289   3 C  s               102      0.708449   4 C  px        
    51      0.672438   2 C  d -2             45     -0.655629   2 C  pz        
 
 Vector   90  Occ=0.000000D+00  E= 2.244362D+00
              MO Center=  8.0D-01, -2.7D-01, -8.1D-01, r^2= 3.5D+00
   Bfn.  Coefficient  Atom+Function         Bfn.  Coefficient  Atom+Function  
  ----- ------------  ---------------      ----- ------------  ---------------
    36      1.531799   2 C  s               150      1.351516   9 H  s         
    98     -1.054263   4 C  s                67     -0.938021   3 C  s         
    66     -0.850480   3 C  s               144     -0.839287   8 H  s         
   117      0.756099   4 C  d  2             72      0.717616   3 C  py        
    45     -0.561598   2 C  pz              149     -0.541655   9 H  s         
 
 Vector   91  Occ=0.000000D+00  E= 2.267086D+00
              MO Center=  8.8D-01, -2.3D-01, -1.1D+00, r^2= 3.1D+00
   Bfn.  Coefficient  Atom+Function         Bfn.  Coefficient  Atom+Function  
  ----- ------------  ---------------      ----- ------------  ---------------
    66      2.199556   3 C  s                36      2.013542   2 C  s         
    98     -1.577339   4 C  s                41     -1.486643   2 C  py        
    67     -1.238235   3 C  s                35     -1.104235   2 C  s         
   156      0.965917  10 H  s                72     -0.950956   3 C  py        
    71      0.867259   3 C  px               76      0.839634   3 C  pz        
 
 Vector   92  Occ=0.000000D+00  E= 2.280023D+00
              MO Center=  5.5D-01,  9.0D-02, -2.5D-01, r^2= 3.6D+00
   Bfn.  Coefficient  Atom+Function         Bfn.  Coefficient  Atom+Function  
  ----- ------------  ---------------      ----- ------------  ---------------
    98      3.247267   4 C  s                66      2.458352   3 C  s         
[...]
    21     -0.869357   1 O  d -1             42     -0.779684   2 C  pz        
    45     -0.711087   2 C  pz               97     -0.683117   4 C  s         
    98     -0.529528   4 C  s                 5     -0.513353   1 O  s         
    67     -0.497156   3 C  s                83     -0.479430   3 C  d -1      
 
 Vector  154  Occ=0.000000D+00  E= 6.673199D+00
              MO Center= -8.7D-01, -1.9D-01,  2.0D-01, r^2= 5.7D-01
   Bfn.  Coefficient  Atom+Function         Bfn.  Coefficient  Atom+Function  
  ----- ------------  ---------------      ----- ------------  ---------------
    18      1.069768   1 O  d  1             23     -1.037634   1 O  d  1      
    97     -0.807233   4 C  s                42     -0.768321   2 C  pz        
    35      0.705199   2 C  s               102      0.635335   4 C  px        
    54     -0.556902   2 C  d  1             14      0.403528   1 O  pz        
    45     -0.385474   2 C  pz               11      0.377635   1 O  pz        
 
 Vector  155  Occ=0.000000D+00  E= 6.840287D+00
              MO Center= -8.8D-01, -1.9D-01,  2.0D-01, r^2= 5.9D-01
   Bfn.  Coefficient  Atom+Function         Bfn.  Coefficient  Atom+Function  
  ----- ------------  ---------------      ----- ------------  ---------------
     5      2.138118   1 O  s                40      1.805190   2 C  px        
     9      1.372448   1 O  px               97     -1.235564   4 C  s         
     4      1.207898   1 O  s                20      1.035355   1 O  d -2      
    35     -0.955788   2 C  s                42     -0.933751   2 C  pz        
    12      0.861458   1 O  px               22     -0.840103   1 O  d  0      
 
 Vector  156  Occ=0.000000D+00  E= 7.054612D+00
              MO Center= -8.9D-01, -1.9D-01,  2.0D-01, r^2= 6.4D-01
   Bfn.  Coefficient  Atom+Function         Bfn.  Coefficient  Atom+Function  
  ----- ------------  ---------------      ----- ------------  ---------------
    66     -3.171783   3 C  s                35      3.036448   2 C  s         
    40     -2.685570   2 C  px               72      2.685150   3 C  py        
    24     -1.570675   1 O  d  2             36      1.376061   2 C  s         
    10      1.274759   1 O  py               67     -1.228070   3 C  s         
    19      1.014845   1 O  d  2             13      0.858788   1 O  py        
 
 Vector  157  Occ=0.000000D+00  E= 2.192429D+01
              MO Center=  6.3D-02,  8.0D-01,  7.4D-02, r^2= 1.2D+00
   Bfn.  Coefficient  Atom+Function         Bfn.  Coefficient  Atom+Function  
  ----- ------------  ---------------      ----- ------------  ---------------
    64      1.592347   3 C  s                65     -1.374890   3 C  s         
    63     -1.255703   3 C  s                67     -1.252353   3 C  s         
    98      1.041206   4 C  s                95     -0.724826   4 C  s         
    96      0.594306   4 C  s                94      0.573881   4 C  s         
    35      0.474970   2 C  s                40     -0.430287   2 C  px        
 
 Vector  158  Occ=0.000000D+00  E= 2.197850D+01
              MO Center=  9.3D-01, -2.8D-01, -7.8D-01, r^2= 1.1D+00
   Bfn.  Coefficient  Atom+Function         Bfn.  Coefficient  Atom+Function  
  ----- ------------  ---------------      ----- ------------  ---------------
    95      1.472680   4 C  s                96     -1.356201   4 C  s         
    98     -1.206386   4 C  s                94     -1.159080   4 C  s         
    34     -0.882432   2 C  s                36     -0.831260   2 C  s         
    33      0.811176   2 C  s                32     -0.633727   2 C  s         
    65     -0.619345   3 C  s                64      0.566109   3 C  s         
 
 Vector  159  Occ=0.000000D+00  E= 2.208365D+01
              MO Center=  5.9D-01, -1.0D-01, -3.6D-02, r^2= 6.5D-01
   Bfn.  Coefficient  Atom+Function         Bfn.  Coefficient  Atom+Function  
  ----- ------------  ---------------      ----- ------------  ---------------
    36      2.201328   2 C  s                33     -1.568878   2 C  s         
    34      1.565555   2 C  s                35     -1.418594   2 C  s         
    98     -1.238508   4 C  s                32      1.229400   2 C  s         
    67     -1.178974   3 C  s                97      0.752316   4 C  s         
    95      0.655971   4 C  s                96     -0.607553   4 C  s         
 
 Vector  160  Occ=0.000000D+00  E= 4.340803D+01
              MO Center= -8.8D-01, -1.8D-01,  2.0D-01, r^2= 1.2D-01
   Bfn.  Coefficient  Atom+Function         Bfn.  Coefficient  Atom+Function  
  ----- ------------  ---------------      ----- ------------  ---------------
     4      2.486883   1 O  s                 3     -1.869193   1 O  s         
     2      1.731138   1 O  s                 1     -1.395777   1 O  s         
     5     -0.889989   1 O  s                36      0.852250   2 C  s         
     9      0.556503   1 O  px               66     -0.492114   3 C  s         
    40      0.471888   2 C  px               72      0.426742   3 C  py        
 

 center of mass
 --------------
 x =   0.30619391 y =   0.09486537 z =  -0.27792509

 moments of inertia (a.u.)
 ------------------
         201.421825007421          45.515200351663          84.190588470903
          45.515200351663         249.314567001110         -53.012360770963
          84.190588470903         -53.012360770963         240.390887445626
 
     Multipole analysis of the density
     ---------------------------------
 
     L   x y z        total         alpha         beta         nuclear
     -   - - -        -----         -----         ----         -------
     0   0 0 0     -0.000000    -16.000000    -16.000000     32.000000
 
     1   1 0 0      0.692795     -6.215606     -6.215606     13.124007
     1   0 1 0      0.337460     -1.625649     -1.625649      3.588758
     1   0 0 1     -0.054865      5.327035      5.327035    -10.708935
 
     2   2 0 0    -20.045167    -54.530370    -54.530370     89.015574
     2   1 1 0     -1.107460     13.851539     13.851539    -28.810539
     2   1 0 1      0.149246     26.609137     26.609137    -53.069028
     2   0 2 0    -17.812956    -40.668961    -40.668961     63.524966
     2   0 1 1      0.271883    -15.514937    -15.514937     31.301757
     2   0 0 2    -18.196734    -45.970110    -45.970110     73.743487
 
 *** CALLING NEW AORESP DRIVER FOR CLOSED AND OPEN SHELLS ***
 Entering AOResponse driver routine


--------------------------------------------------------------------------------

          ****************
          *** RESPONSE ***
          ****************

 Response module for NWChem and dynamic CPKS solver
 developed by J. Autschbach and coworkers, SUNY Buffalo
 The methodology used in this program is described in 
 ChemPhysChem 12 (2011), 3224-3235 (main reference)
 J. Chem. Phys. 123 (2005), 114103
 J. Chem. Phys. 122 (2005), 224115
 J. Chem. Phys. 122 (2005), 074105
 Comp. Lett. 3 (2007), 131-150 (contact JA for a copy)
 Please cite this work in publications based on results
 obtained with this code. Thank you!

 For extension of response module to open shell
 calculations please acknowledge:
 F. Aquino, Northwestern University, Schatz Rsrch Group
 The update to the methodology is described in
 J. Phys. Chem. A 118 (2014) 517-525



          -----------------------------------------------
          Solving response equations for perturbing field
          -----------------------------------------------

 number of frequencies:     1
 frequency in a.u.:  0.9319600E-01
 Perturbing field: electric
 Using GIAO formalism for OptRot
 Adding quadrupole terms to OptRot
 to create an origin in dependent tensor.
 Using El. Dipole Length Gauge
 
 Applying DAMPING constant of  0.003700 a.u.
 
 Setting up CPKS
 with frequency omega =      0.09319600 a.u.
 and a damping of            0.00370000 a.u.

 
                            NWChem Dynamic CPHF Module
                            --------------------------
 
 
    scftype = RHF 
    nclosed =   16
      nopen =    0
  variables =     9216
  num. vecs =        3
  tolerance =   1.0D-07
  max. iter =  100

 SCF residual:   6.285935665253053E-006


Iterative solution of linear equations
  No. of variables     4608
  No. of equations        3
  Maximum subspace       99
       Convergence  1.0D-07
        Start time     85.2


   iter   nsub   residual    time 
   ----  ------  --------  --------- 
 dft_CPHF2_read: failed to open
 ./methyloxirane_blyp-def2-tzvp_488.9_31.inp.aoresp_fiao_f1
     1      3    3.76D+00     127.6
     2      6    2.76D+00     170.3
     3      9    2.45D-01     215.4
     4     12    5.83D-02     259.1
     5     15    1.10D-02     302.0
     6     18    1.32D-03     344.9
     7     21    1.46D-04     387.8
     8     24    1.40D-05     430.7
     9     27    1.27D-06     473.7
    10     30    4.88D-07     516.6
    11     33    1.84D-08     559.5

 Calculating some arrays needed for GIAO optical rotation

    0 giaofock schwarz done =      95.25%
    0 giaofock schwarz done =      93.07%
 aor_r1_tensor_giao: roadata output requested
 dip-quad polarizability Re:

              1        2        3        4        5        6      
    1   77.2694  -6.2827 -28.2358  -4.4886   1.5408   9.6989
    2  -11.9222  25.4059   3.7091  23.9340 -21.8520   3.6312
    3   -7.2109   1.4010  39.7505  -0.3467  13.6787 -40.7476
 traceless dip-quad polarizability:

              1        2        3      
    1   74.6643  -9.4240 -42.3537
    2   -9.4240 -47.9728   2.3112
    3  -42.3537   2.3112 -26.6914

              1        2        3      
    1  -25.7048  38.1089   5.5637
    2   38.1089  28.0795 -32.7779
    3    5.5637 -32.7779  -2.3747

              1        2        3      
    1   13.3363   2.1015  59.6257
    2    2.1015  23.6325  20.5181
    3   59.6257  20.5181 -36.9688

 roa begin

 alpha real:
 XX       0.4110040566324E+02
 XY      -0.5139871414979E+01
 XZ      -0.3047480454324E+01
 YX      -0.5139871425297E+01
 YY       0.4415583378888E+02
 YZ       0.3253157124931E+01
 ZX      -0.3047480467113E+01
 ZY       0.3253157122736E+01
 ZZ       0.4161157087943E+02

 alpha im:
 XX       0.1109545284630E+00
 XY      -0.2958233417965E-01
 XZ      -0.1121652184326E-01
 YX      -0.2958232944496E-01
 YY       0.1295705995820E+00
 YZ       0.1876448876053E-01
 ZX      -0.1121651816908E-01
 ZY       0.1876448639774E-01
 ZZ       0.1235897409914E+00

 beta real:
 XX      -0.1444621446268E+00
 XY       0.9387767995320E+00
 XZ       0.2050205719467E+00
 YX      -0.8870485719167E+00
 YY       0.1475260837210E+00
 YZ      -0.1536966340335E+01
 ZX      -0.4796211558344E+00
 ZY       0.1873889008079E+01
 ZZ      -0.3394800051119E-02

 G-prime = -omega beta(real):
 XX      -0.1444621446268E+00
 XY       0.9387767995320E+00
 XZ       0.2050205719467E+00
 YX      -0.8870485719167E+00
 YY       0.1475260837210E+00
 YZ      -0.1536966340335E+01
 ZX      -0.4796211558344E+00
 ZY       0.1873889008079E+01
 ZZ      -0.3394800051119E-02

 beta im:
 XX      -0.6203406184304E-02
 XY       0.1331118084518E-01
 XZ       0.2962379455190E-02
 YX      -0.7560888154878E-02
 YY       0.4827211705953E-02
 YZ      -0.2312561257138E-01
 ZX      -0.1320020772661E-01
 ZY       0.4040943101995E-01
 ZZ       0.7847143058909E-03

 G-prime = -omega beta(imag):
 XX      -0.6203406184304E-02
 XY       0.1331118084518E-01
 XZ       0.2962379455190E-02
 YX      -0.7560888154878E-02
 YY       0.4827211705953E-02
 YZ      -0.2312561257138E-01
 ZX      -0.1320020772661E-01
 ZY       0.4040943101995E-01
 ZZ       0.7847143058909E-03

 dipole-quadrupole real (Cartesian):
 XXX      0.7726940537368E+02
 XXY     -0.6282674072677E+01
 XXZ     -0.2823577436492E+02
 XYY     -0.4488648849617E+01
 XYZ      0.1540803686098E+01
 XZZ      0.9698945779504E+01
 YXX     -0.1192220360124E+02
 YXY      0.2540594352217E+02
 YXZ      0.3709102845947E+01
 YYY      0.2393395834032E+02
 YYZ     -0.2185195166388E+02
 YZZ      0.3631184681512E+01
 ZXX     -0.7210854160134E+01
 ZXY      0.1401001284821E+01
 ZXZ      0.3975048902480E+02
 ZYY     -0.3467372255915E+00
 ZYZ      0.1367874245926E+02
 ZZZ     -0.4074763242217E+02

 dipole-quadrupole imag (Cartesian):
 XXX      0.2689531702871E+00
 XXY     -0.3511884647345E-01
 XXZ     -0.7926888409742E-01
 XYY     -0.2817956090025E-01
 XYZ      0.3681750460822E-02
 XZZ      0.6366799550816E-01
 YXX     -0.5770802652094E-01
 YXY      0.6138756549529E-01
 YXZ      0.2095652378758E-01
 YYY      0.9473975044484E-01
 YYZ     -0.6062011556211E-01
 YZZ      0.7367491275684E-02
 ZXX     -0.3682022847755E-01
 ZXY      0.9898823564199E-03
 ZXZ      0.1488854713093E+00
 ZYY      0.5350591133267E-02
 ZYZ      0.6355971474334E-01
 ZZZ     -0.9541874610506E-01

 dipole-quadrupole (traceless):
 XXX      0.7466425690874E+02
 XXY     -0.9424011109015E+01
 XXZ     -0.4235366154738E+02
 XYY     -0.4797282442621E+02
 XYZ      0.2311205529147E+01
 XZZ     -0.2669143248253E+02
 YXX     -0.2570477511215E+02
 YXY      0.3810891528326E+02
 YXZ      0.5563654268921E+01
 YYY      0.2807946780018E+02
 YYZ     -0.3277792749582E+02
 YZZ     -0.2374692688026E+01
 ZXX      0.1333633066375E+02
 ZXY      0.2101501927232E+01
 ZXZ      0.5962573353720E+02
 ZYY      0.2363250606556E+02
 ZYZ      0.2051811368889E+02
 ZZZ     -0.3696883672931E+02

 roa end


 Electric Dipole Response Matrix (nonzero elements):

              1        2        3      
    1   41.1004  -5.1399  -3.0475
    2   -5.1399  44.1558   3.2532
    3   -3.0475   3.2532  41.6116
 
 Imaginary part:

              1        2        3      
    1    0.1110  -0.0296  -0.0112
    2   -0.0296   0.1296   0.0188
    3   -0.0112   0.0188   0.1236

 ------------------------------------------
 average:        42.28927 + I       0.12137


 DFT Linear Response polarizability / au 
 Frequency  =       0.0931960 / au
 Wavelength =     488.8981609 / nm
              X              Y              Z
 -----------------------------------------------
 X      41.1004057     -5.1398714     -3.0474805
 Y      -5.1398714     44.1558338      3.2531571
 Z      -3.0474805      3.2531571     41.6115709
 -----------------------------------------------
 Eigenvalues =      37.1717872     50.2632992     39.4327240
 Isotropic   =      42.2892701
 Anisotropic =       9.8961421
 -----------------------------------------------
 *************************

 DFT Linear Response IMAG polarizability / au 
 Frequency  =       0.0931960 / au
 Wavelength =     488.8981609 / nm
              X              Y              Z
 -----------------------------------------------
 X       0.1109545     -0.0295823     -0.0112165
 Y      -0.0295823      0.1295706      0.0187645
 Z      -0.0112165      0.0187645      0.1235897
 -----------------------------------------------
 Eigenvalues =       0.0890931      0.1632389      0.1117829
 Isotropic   =       0.1213716
 Anisotropic =       0.0537282
 -----------------------------------------------
 *************************

 Magnetic Dipole Response Matrix (nonzero elements):
 Optical rotation tensor Beta
 (Buckingham-Dunn version including dipole-quadrupole terms)

              1        2        3      
    1    2.7041  -0.3976   0.3712
    2   -0.3976  -1.6529  -1.7684
    3    0.3712  -1.7684  -1.0477
 
 Imaginary part:

              1        2        3      
    1    0.0666  -0.1428  -0.0318
    2    0.0811  -0.0518   0.2481
    3    0.1416  -0.4336  -0.0084

 ------------------------------------------
 average:         0.00118 + I       0.00212

 Principal components and PAS (Real part)
                 -3.14508
                  2.82724
                  0.32140
 ------------------------
 average:         0.00118

              1        2        3      
    1    0.0112   0.9752  -0.2210
    2    0.7654  -0.1505  -0.6256
    3    0.6434   0.1621   0.7482

 Chiral response tensor (Real part):

              1        2        3      
    1   -1.3503   0.1988  -0.1856
    2    0.1988   0.8282   0.8842
    3   -0.1856   0.8842   0.5256
 
 Principal components and PAS (Real part)
                  1.57432
                 -1.41184
                 -0.15892
 ------------------------
 average:         0.00118

              1        2        3      
    1    0.0112   0.9752  -0.2210
    2    0.7654  -0.1505  -0.6256
    3    0.6434   0.1621   0.7482
 Exiting AOResponse driver routine

 Task  times  cpu:      540.5s     wall:      552.5s
 
 
                                NWChem Input Module
                                -------------------
 
 
 Summary of allocated global arrays
-----------------------------------
  No active global arrays



                         GA Statistics for process    0
                         ------------------------------

       create   destroy   get      put      acc     scatter   gather  read&inc
calls: 3294     3294     8.48e+06 3.14e+06 7.24e+05 2694        0     1221     
number of processes/call 1.01e+00 1.03e+00 1.43e+00 0.00e+00 0.00e+00
bytes total:             1.75e+09 1.26e+08 1.73e+09 1.84e+02 0.00e+00 9.77e+03
bytes remote:            7.18e+08 3.29e+07 9.77e+08 0.00e+00 0.00e+00 0.00e+00
Max memory consumed for GA by this process: 11242192 bytes
 
MA_summarize_allocated_blocks: starting scan ...
MA_summarize_allocated_blocks: scan completed: 0 heap blocks, 0 stack blocks
MA usage statistics:

	allocation statistics:
					      heap	     stack
					      ----	     -----
	current number of blocks	         0	         0
	maximum number of blocks	        24	        52
	current total bytes		         0	         0
	maximum total bytes		   7519840	  48940600
	maximum total K-bytes		      7520	     48941
	maximum total M-bytes		         8	        49
 
 
                                     CITATION
                                     --------
                Please cite the following reference when publishing
                           results obtained with NWChem:
 
                 M. Valiev, E.J. Bylaska, N. Govind, K. Kowalski,
              T.P. Straatsma, H.J.J. van Dam, D. Wang, J. Nieplocha,
                        E. Apra, T.L. Windus, W.A. de Jong
                 "NWChem: a comprehensive and scalable open-source
                  solution for large scale molecular simulations"
                      Comput. Phys. Commun. 181, 1477 (2010)
                           doi:10.1016/j.cpc.2010.04.018
 
                                      AUTHORS
                                      -------
          E. Apra, E. J. Bylaska, W. A. de Jong, N. Govind, K. Kowalski,
       T. P. Straatsma, M. Valiev, H. J. J. van Dam, D. Wang, T. L. Windus,
        J. Hammond, J. Autschbach, K. Bhaskaran-Nair, J. Brabec, K. Lopata,
    S. A. Fischer, S. Krishnamoorthy, M. Jacquelin, W. Ma, M. Klemm, O. Villa,
      Y. Chen, V. Anisimov, F. Aquino, S. Hirata, M. T. Hackler, V. Konjkov,
            D. Mejia-Rodriguez, T. Risthaus, M. Malagoli, A. Marenich,
   A. Otero-de-la-Roza, J. Mullin, P. Nichols, R. Peverati, J. Pittner, Y. Zhao,
        P.-D. Fan, A. Fonari, M. J. Williamson, R. J. Harrison, J. R. Rehr,
      M. Dupuis, D. Silverstein, D. M. A. Smith, J. Nieplocha, V. Tipparaju,
    M. Krishnan, B. E. Van Kuiken, A. Vazquez-Mayagoitia, L. Jensen, M. Swart,
      Q. Wu, T. Van Voorhis, A. A. Auer, M. Nooijen, L. D. Crosby, E. Brown,
      G. Cisneros, G. I. Fann, H. Fruchtl, J. Garza, K. Hirao, R. A. Kendall,
      J. A. Nichols, K. Tsemekhman, K. Wolinski, J. Anchell, D. E. Bernholdt,
      P. Borowski, T. Clark, D. Clerc, H. Dachsel, M. J. O. Deegan, K. Dyall,
    D. Elwood, E. Glendening, M. Gutowski, A. C. Hess, J. Jaffe, B. G. Johnson,
     J. Ju, R. Kobayashi, R. Kutteh, Z. Lin, R. Littlefield, X. Long, B. Meng,
      T. Nakajima, S. Niu, L. Pollack, M. Rosing, K. Glaesemann, G. Sandrone,
      M. Stave, H. Taylor, G. Thomas, J. H. van Lenthe, A. T. Wong, Z. Zhang.

 Total times  cpu:      606.8s     wall:      620.4s
