 argument  1 = methyloxirane_blyp-def2-tzvp_488.9_11.inp
 


============================== echo of input deck ==============================
echo
start methyloxirane_blyp-def2-tzvp_488.9_11.inp
title "methyloxirane roa calculations at 488.9 nm, input generated in va  with delta_type=2"
charge 0



geometry units angstrom nocenter noautoz noautosym nucleus point;symmetry c1
 O -0.878558 -0.182053  0.206718
 C  0.575049 -0.154583  0.118687
 C -0.187979  1.089626  0.339663
 C  1.185856 -0.522817 -1.208761
 H  1.046569 -0.616988  0.992532
 H -0.224598  1.536660  1.336338
 H -0.305438  1.789619 -0.492889
 H  2.239519 -0.210132 -1.246647
 H  1.142960 -1.606557 -1.382800
 H  0.647317 -0.020483 -2.022296
end

basis spherical
* library def2-TZVP
end

 set prop:newaoresp 1
 set aor:roadata T
 set cphf:maxsub 100
 set cphf:acc 1.0d-10
 set cphf:maxiter 100

property
    response 1   0.093196
    bdtensor
    convergence 1e-7
    damping 0.0037
    giao
end

dft
 direct
 mult 1
 xc becke88 lyp
 iterations 250
 tolerances tight
 grid xfine
 convergence nolevelshifting
 convergence energy 1e-8
 convergence gradient 1e-7


end

task dft gradient
task dft property
================================================================================


                                         
                                         
 
 
              Northwest Computational Chemistry Package (NWChem) 6.8
              ------------------------------------------------------
 
 
                    Environmental Molecular Sciences Laboratory
                       Pacific Northwest National Laboratory
                                Richland, WA 99352
 
                              Copyright (c) 1994-2017
                       Pacific Northwest National Laboratory
                            Battelle Memorial Institute
 
             NWChem is an open-source computational chemistry package
                        distributed under the terms of the
                      Educational Community License (ECL) 2.0
             A copy of the license is included with this distribution
                              in the LICENSE.TXT file
 
                                  ACKNOWLEDGMENT
                                  --------------

            This software and its documentation were developed at the
            EMSL at Pacific Northwest National Laboratory, a multiprogram
            national laboratory, operated for the U.S. Department of Energy
            by Battelle under Contract Number DE-AC05-76RL01830. Support
            for this work was provided by the Department of Energy Office
            of Biological and Environmental Research, Office of Basic
            Energy Sciences, and the Office of Advanced Scientific Computing.


           Job information
           ---------------

    hostname        = cpn-f11-18-01.cbls.ccr.buffalo.edu
    program         = /util/academic/nwchem/nwchem-6.8/bin/LINUX64/nwchem
    date            = Fri Mar  1 10:04:45 2019

    compiled        = Tue_Nov_06_14:59:08_2018
    source          = /util/academic/nwchem/nwchem-6.8
    nwchem branch   = 6.8
    nwchem revision = v6.8-47-gdf6c956
    ga revision     = ga-5.6.3
    use scalapack   = F
    input           = methyloxirane_blyp-def2-tzvp_488.9_11.inp
    prefix          = methyloxirane_blyp-def2-tzvp_488.9_11.inp.
    data base       = ./methyloxirane_blyp-def2-tzvp_488.9_11.inp.db
    status          = startup
    nproc           =        7
    time left       =     -1s



           Memory information
           ------------------

    heap     =   13107200 doubles =    100.0 Mbytes
    stack    =   13107197 doubles =    100.0 Mbytes
    global   =   26214400 doubles =    200.0 Mbytes (distinct from heap & stack)
    total    =   52428797 doubles =    400.0 Mbytes
    verify   = yes
    hardfail = no 


           Directory information
           ---------------------
 
  0 permanent = .
  0 scratch   = .
 
 
 
 
                                NWChem Input Module
                                -------------------
 
 
                    methyloxirane roa calculations at 488.9 nm, input generated in va  with delta_type=2
                    ------------------------------------------

 Scaling coordinates for geometry "geometry" by  1.889725989
 (inverse scale =  0.529177249)

 
 
                             Geometry "geometry" -> ""
                             -------------------------
 
 Output coordinates in angstroms (scale by  1.889725989 to convert to a.u.)
 
  No.       Tag          Charge          X              Y              Z
 ---- ---------------- ---------- -------------- -------------- --------------
    1 O                    8.0000    -0.87855800    -0.18205300     0.20671800
    2 C                    6.0000     0.57504900    -0.15458300     0.11868700
    3 C                    6.0000    -0.18797900     1.08962600     0.33966300
    4 C                    6.0000     1.18585600    -0.52281700    -1.20876100
    5 H                    1.0000     1.04656900    -0.61698800     0.99253200
    6 H                    1.0000    -0.22459800     1.53666000     1.33633800
    7 H                    1.0000    -0.30543800     1.78961900    -0.49288900
    8 H                    1.0000     2.23951900    -0.21013200    -1.24664700
    9 H                    1.0000     1.14296000    -1.60655700    -1.38280000
   10 H                    1.0000     0.64731700    -0.02048300    -2.02229600
 
      Atomic Mass 
      ----------- 
 
      O                 15.994910
      C                 12.000000
      H                  1.007825
 

 Effective nuclear repulsion energy (a.u.)     123.5683409656

            Nuclear Dipole moment (a.u.) 
            ----------------------------
        X                 Y               Z
 ---------------- ---------------- ----------------
    13.1438398252     3.5697887685   -10.7043226267
 
 
            XYZ format geometry
            -------------------
    10
 geometry
 O                    -0.87855800    -0.18205300     0.20671800
 C                     0.57504900    -0.15458300     0.11868700
 C                    -0.18797900     1.08962600     0.33966300
 C                     1.18585600    -0.52281700    -1.20876100
 H                     1.04656900    -0.61698800     0.99253200
 H                    -0.22459800     1.53666000     1.33633800
 H                    -0.30543800     1.78961900    -0.49288900
 H                     2.23951900    -0.21013200    -1.24664700
 H                     1.14296000    -1.60655700    -1.38280000
 H                     0.64731700    -0.02048300    -2.02229600
 
 ==============================================================================
                                internuclear distances
 ------------------------------------------------------------------------------
       center one      |      center two      | atomic units |  angstroms
 ------------------------------------------------------------------------------
    2 C                |   1 O                |     2.75244  |     1.45653
    3 C                |   1 O                |     2.74612  |     1.45318
    3 C                |   2 C                |     2.78957  |     1.47618
    4 C                |   2 C                |     2.84766  |     1.50692
    5 H                |   2 C                |     2.06988  |     1.09533
    6 H                |   3 C                |     2.06538  |     1.09295
    7 H                |   3 C                |     2.06744  |     1.09404
    8 H                |   4 C                |     2.07819  |     1.09973
    9 H                |   4 C                |     2.07579  |     1.09846
   10 H                |   4 C                |     2.07371  |     1.09736
 ------------------------------------------------------------------------------
                         number of included internuclear distances:         10
 ==============================================================================



 ==============================================================================
                                 internuclear angles
 ------------------------------------------------------------------------------
        center 1       |       center 2       |       center 3       |  degrees
 ------------------------------------------------------------------------------
    2 C                |   1 O                |   3 C                |    60.97
    2 C                |   1 O                |   3 C                |    60.97
    1 O                |   2 C                |   4 C                |   116.95
    1 O                |   2 C                |   5 H                |   111.93
    3 C                |   2 C                |   4 C                |   123.19
    3 C                |   2 C                |   5 H                |   117.32
    4 C                |   2 C                |   5 H                |   115.16
    3 C                |   1 O                |   2 C                |    60.97
    1 O                |   3 C                |   6 H                |   115.18
    1 O                |   3 C                |   7 H                |   116.06
    2 C                |   3 C                |   6 H                |   119.91
    2 C                |   3 C                |   7 H                |   118.74
    6 H                |   3 C                |   7 H                |   115.38
    2 C                |   4 C                |   8 H                |   110.44
    2 C                |   4 C                |   9 H                |   111.40
    2 C                |   4 C                |  10 H                |   110.02
    8 H                |   4 C                |   9 H                |   108.21
    8 H                |   4 C                |  10 H                |   108.33
    9 H                |   4 C                |  10 H                |   108.36
 ------------------------------------------------------------------------------
                            number of included internuclear angles:         19
 ==============================================================================



  warning:::::::::::::: from_environment
  NWCHEM_BASIS_LIBRARY set to: <
 /util/academic/nwchem/nwchem-6.8/src/basis/libraries>
  but file does not exist !
  using .nwchemrc or compiled library


 Summary of "ao basis" -> "" (spherical)
 ------------------------------------------------------------------------------
       Tag                 Description            Shells   Functions and Types
 ---------------- ------------------------------  ------  ---------------------
 *                         def2-TZVP                  on all atoms 


 
                                 NWChem DFT Module
                                 -----------------
 
 
                    methyloxirane roa calculations at 488.9 nm, input generated in va  with delta_type=2
 
 
                      Basis "ao basis" -> "ao basis" (spherical)
                      -----
  O (Oxygen)
  ----------
            Exponent  Coefficients 
       -------------- ---------------------------------------------------------
  1 S  2.70323826E+04  0.000217
  1 S  4.05238714E+03  0.001684
  1 S  9.22327227E+02  0.008740
  1 S  2.61240710E+02  0.035240
  1 S  8.53546414E+01  0.111535
  1 S  3.10350352E+01  0.255890
 
  2 S  1.22608607E+01  0.397687
  2 S  4.99870760E+00  0.246278
 
  3 S  1.17031082E+00  1.000000
 
  4 S  4.64747410E-01  1.000000
 
  5 S  1.85045364E-01  1.000000
 
  6 P  6.32749548E+01  0.006069
  6 P  1.46270494E+01  0.041913
  6 P  4.45012235E+00  0.161538
  6 P  1.52757996E+00  0.357070
 
  7 P  5.29351179E-01  1.000000
 
  8 P  1.74784213E-01  1.000000
 
  9 D  2.31400000E+00  1.000000
 
 10 D  6.45000000E-01  1.000000
 
 11 F  1.42800000E+00  1.000000
 
  C (Carbon)
  ----------
            Exponent  Coefficients 
       -------------- ---------------------------------------------------------
  1 S  1.35753497E+04  0.000222
  1 S  2.03523337E+03  0.001723
  1 S  4.63225624E+02  0.008926
  1 S  1.31200196E+02  0.035728
  1 S  4.28530159E+01  0.110763
  1 S  1.55841858E+01  0.242956
 
  2 S  6.20671385E+00  0.414403
  2 S  2.57648965E+00  0.237450
 
  3 S  5.76963394E-01  1.000000
 
  4 S  2.29728314E-01  1.000000
 
  5 S  9.51644400E-02  1.000000
 
  6 P  3.46972322E+01  0.005333
  6 P  7.95826228E+00  0.035864
  6 P  2.37808269E+00  0.142159
  6 P  8.14332082E-01  0.342705
 
  7 P  2.88875473E-01  1.000000
 
  8 P  1.00568237E-01  1.000000
 
  9 D  1.09700000E+00  1.000000
 
 10 D  3.18000000E-01  1.000000
 
 11 F  7.61000000E-01  1.000000
 
  H (Hydrogen)
  ------------
            Exponent  Coefficients 
       -------------- ---------------------------------------------------------
  1 S  3.40613410E+01  0.006025
  1 S  5.12357460E+00  0.045021
  1 S  1.16466260E+00  0.201897
 
  2 S  3.27230410E-01  1.000000
 
  3 S  1.03072410E-01  1.000000
 
  4 P  8.00000000E-01  1.000000
 


 Summary of "ao basis" -> "ao basis" (spherical)
 ------------------------------------------------------------------------------
       Tag                 Description            Shells   Functions and Types
 ---------------- ------------------------------  ------  ---------------------
 O                         def2-TZVP                11       31   5s3p2d1f
 C                         def2-TZVP                11       31   5s3p2d1f
 H                         def2-TZVP                 4        6   3s1p




 Summary of "ao basis" -> "ao basis" (spherical)
 ------------------------------------------------------------------------------
       Tag                 Description            Shells   Functions and Types
 ---------------- ------------------------------  ------  ---------------------
 O                         def2-TZVP                11       31   5s3p2d1f
 C                         def2-TZVP                11       31   5s3p2d1f
 H                         def2-TZVP                 4        6   3s1p


  Caching 1-el integrals 
  itol2e modified to match energy
  convergence criterion.
  tol_rho modified to match energy
  convergence criterion.
 
            General Information
            -------------------
          SCF calculation type: DFT
          Wavefunction type:  closed shell.
          No. of atoms     :    10
          No. of electrons :    32
           Alpha electrons :    16
            Beta electrons :    16
          Charge           :     0
          Spin multiplicity:     1
          Use of symmetry is: off; symmetry adaption is: off
          Maximum number of iterations: 250
          This is a Direct SCF calculation.
          AO basis - number of functions:   160
                     number of shells:    68
          Convergence on energy requested:  1.00D-08
          Convergence on density requested:  1.00D-05
          Convergence on gradient requested:  1.00D-07
 
              XC Information
              --------------
                    Becke 1988 Exchange Functional  1.000          
              Lee-Yang-Parr Correlation Functional  1.000          
 
             Grid Information
             ----------------
          Grid used for XC integration:  xfine     
          Radial quadrature: Mura-Knowles        
          Angular quadrature: Lebedev. 
          Tag              B.-S. Rad. Rad. Pts. Rad. Cut. Ang. Pts.
          ---              ---------- --------- --------- ---------
          O                   0.60      100          11.0      1454
          C                   0.70      100          11.0      1454
          H                   0.35      100          12.0      1202
          Grid pruning is: on 
          Number of quadrature shells:  1000
          Spatial weights used:  Erf1
 
          Convergence Information
          -----------------------
          Convergence aids based upon iterative change in 
          total energy or number of iterations. 
          Levelshifting, if invoked, occurs when the 
          HOMO/LUMO gap drops below (HL_TOL):  1.00D-02
          DIIS, if invoked, will attempt to extrapolate 
          using up to (NFOCK): 10 stored Fock matrices.

                    Damping( 0%)  Levelshifting(0.0)       DIIS
                  --------------- ------------------- ---------------
          dE  on:    start             N/A                start   
          dE off:    2 iters           N/A              250 iters 

 
      Screening Tolerance Information
      -------------------------------
          Density screening/tol_rho:  1.00D-11
          AO Gaussian exp screening on grid/accAOfunc:  18
          CD Gaussian exp screening on grid/accCDfunc:  20
          XC Gaussian exp screening on grid/accXCfunc:  20
          Schwarz screening/accCoul:  1.00D-09

 
      Superposition of Atomic Density Guess
      -------------------------------------
 
 Sum of atomic energies:        -190.79714706
 
      Non-variational initial energy
      ------------------------------

 Total energy =    -193.165928
 1-e energy   =    -502.096402
 2-e energy   =     185.362133
 HOMO         =      -0.352303
 LUMO         =       0.089687
 
   Time after variat. SCF:      0.6
   Time prior to 1st pass:      0.6

 Grid_pts file          = ./methyloxirane_blyp-def2-tzvp_488.9_11.inp.gridpts.0
 Record size in doubles =  12289        No. of grid_pts per rec  =   3070
 Max. records in memory =     76        Max. recs in file   =    554552


           Memory utilization after 1st SCF pass: 
           Heap Space remaining (MW):       12.17            12167544
          Stack Space remaining (MW):       13.11            13106116

   convergence    iter        energy       DeltaE   RMS-Dens  Diis-err    time
 ---------------- ----- ----------------- --------- --------- ---------  ------
 d= 0,ls=0.0,diis     1   -193.0200577500 -3.17D+02  9.20D-03  1.06D+00     6.5
 d= 0,ls=0.0,diis     2   -192.8575598248  1.62D-01  7.60D-03  2.56D+00    12.0
 d= 0,ls=0.0,diis     3   -193.0768744088 -2.19D-01  1.83D-03  3.88D-01    17.5
 d= 0,ls=0.0,diis     4   -193.1071489494 -3.03D-02  6.84D-04  1.82D-02    23.0
 d= 0,ls=0.0,diis     5   -193.1088229338 -1.67D-03  2.93D-04  2.71D-03    28.6
 d= 0,ls=0.0,diis     6   -193.1091606918 -3.38D-04  3.09D-05  3.53D-05    34.1
 d= 0,ls=0.0,diis     7   -193.1091648947 -4.20D-06  9.83D-06  4.13D-06    39.6
 d= 0,ls=0.0,diis     8   -193.1091653686 -4.74D-07  2.25D-06  3.54D-07    45.1
 d= 0,ls=0.0,diis     9   -193.1091654086 -4.00D-08  6.33D-07  2.73D-08    50.6
 d= 0,ls=0.0,diis    10   -193.1091654114 -2.80D-09  2.20D-07  3.07D-09    56.2


         Total DFT energy =     -193.109165411398
      One electron energy =     -505.751069946129
           Coulomb energy =      216.095050836108
    Exchange-Corr. energy =      -27.021487266961
 Nuclear repulsion energy =      123.568340965584

 Numeric. integr. density =       31.999999938663

     Total iterative time =     55.5s


 
                       DFT Final Molecular Orbital Analysis
                       ------------------------------------
 
 Vector    1  Occ=2.000000D+00  E=-1.877979D+01
              MO Center= -8.8D-01, -1.8D-01,  2.1D-01, r^2= 1.5D-02
   Bfn.  Coefficient  Atom+Function         Bfn.  Coefficient  Atom+Function  
  ----- ------------  ---------------      ----- ------------  ---------------
     2      0.638478   1 O  s                 1      0.435422   1 O  s         
     3      0.039874   1 O  s                 4     -0.033191   1 O  s         
 
 Vector    2  Occ=2.000000D+00  E=-9.962494D+00
              MO Center=  5.7D-01, -1.5D-01,  1.2D-01, r^2= 2.8D-02
   Bfn.  Coefficient  Atom+Function         Bfn.  Coefficient  Atom+Function  
  ----- ------------  ---------------      ----- ------------  ---------------
    33      0.606886   2 C  s                32      0.467244   2 C  s         
    34      0.042603   2 C  s                36      0.037770   2 C  s         
    35     -0.027508   2 C  s         
 
 Vector    3  Occ=2.000000D+00  E=-9.956279D+00
              MO Center= -1.9D-01,  1.1D+00,  3.4D-01, r^2= 2.8D-02
   Bfn.  Coefficient  Atom+Function         Bfn.  Coefficient  Atom+Function  
  ----- ------------  ---------------      ----- ------------  ---------------
    64      0.607010   3 C  s                63      0.467210   3 C  s         
    65      0.039686   3 C  s         
 
 Vector    4  Occ=2.000000D+00  E=-9.907822D+00
              MO Center=  1.2D+00, -5.2D-01, -1.2D+00, r^2= 2.8D-02
   Bfn.  Coefficient  Atom+Function         Bfn.  Coefficient  Atom+Function  
  ----- ------------  ---------------      ----- ------------  ---------------
    95      0.606955   4 C  s                94      0.467213   4 C  s         
    96      0.040573   4 C  s                98      0.036115   4 C  s         
 
 Vector    5  Occ=2.000000D+00  E=-9.619911D-01
              MO Center= -4.7D-01,  5.5D-02,  2.1D-01, r^2= 6.5D-01
   Bfn.  Coefficient  Atom+Function         Bfn.  Coefficient  Atom+Function  
  ----- ------------  ---------------      ----- ------------  ---------------
     4      0.375295   1 O  s                 3      0.277500   1 O  s         
     2     -0.192814   1 O  s                34      0.139779   2 C  s         
    65      0.139013   3 C  s                 5      0.122834   1 O  s         
    35      0.105486   2 C  s                66      0.093533   3 C  s         
     6      0.092991   1 O  px               69     -0.091322   3 C  py        
 
 Vector    6  Occ=2.000000D+00  E=-6.706564D-01
              MO Center=  9.4D-01, -3.9D-01, -7.7D-01, r^2= 1.5D+00
   Bfn.  Coefficient  Atom+Function         Bfn.  Coefficient  Atom+Function  
  ----- ------------  ---------------      ----- ------------  ---------------
    97      0.284998   4 C  s                96      0.276467   4 C  s         
    35      0.184855   2 C  s                34      0.174433   2 C  s         
    95     -0.174115   4 C  s                 4     -0.147526   1 O  s         
    33     -0.109049   2 C  s                 3     -0.103249   1 O  s         
    94     -0.083429   4 C  s                 5     -0.073175   1 O  s         
 
 Vector    7  Occ=2.000000D+00  E=-5.902581D-01
              MO Center= -1.3D-01,  7.3D-01,  2.2D-01, r^2= 1.9D+00
   Bfn.  Coefficient  Atom+Function         Bfn.  Coefficient  Atom+Function  
  ----- ------------  ---------------      ----- ------------  ---------------
    66      0.326957   3 C  s                65      0.278921   3 C  s         
     4     -0.237470   1 O  s                64     -0.172361   3 C  s         
     3     -0.167747   1 O  s                 5     -0.147149   1 O  s         
     2      0.110760   1 O  s                38      0.105274   2 C  py        
   132      0.102902   6 H  s                97     -0.098733   4 C  s         
 
 Vector    8  Occ=2.000000D+00  E=-5.293002D-01
              MO Center=  4.2D-01,  9.1D-04, -1.0D-01, r^2= 2.7D+00
   Bfn.  Coefficient  Atom+Function         Bfn.  Coefficient  Atom+Function  
  ----- ------------  ---------------      ----- ------------  ---------------
    35      0.303727   2 C  s                34      0.225526   2 C  s         
    97     -0.155598   4 C  s                66     -0.150581   3 C  s         
    33     -0.138726   2 C  s               126      0.133318   5 H  s         
    96     -0.128697   4 C  s                 6      0.107759   1 O  px        
   125      0.106712   5 H  s               101      0.098310   4 C  pz        
 
 Vector    9  Occ=2.000000D+00  E=-4.479839D-01
              MO Center=  1.2D-01,  2.8D-01,  2.4D-01, r^2= 2.5D+00
   Bfn.  Coefficient  Atom+Function         Bfn.  Coefficient  Atom+Function  
  ----- ------------  ---------------      ----- ------------  ---------------
    70      0.210570   3 C  pz               39      0.155114   2 C  pz        
   132      0.145773   6 H  s                73      0.132093   3 C  pz        
     8      0.127286   1 O  pz              126      0.115119   5 H  s         
     6     -0.108040   1 O  px              131      0.108128   6 H  s         
    38     -0.106949   2 C  py               11      0.103141   1 O  pz        
 
 Vector   10  Occ=2.000000D+00  E=-4.136348D-01
              MO Center=  4.0D-02,  2.9D-01, -2.3D-01, r^2= 2.6D+00
   Bfn.  Coefficient  Atom+Function         Bfn.  Coefficient  Atom+Function  
  ----- ------------  ---------------      ----- ------------  ---------------
    69      0.218158   3 C  py              138      0.154490   7 H  s         
   101      0.153082   4 C  pz                6     -0.143644   1 O  px        
    38     -0.140369   2 C  py               37      0.127546   2 C  px        
     7     -0.125953   1 O  py               72      0.122727   3 C  py        
     9     -0.114641   1 O  px               70     -0.114408   3 C  pz        
 
 Vector   11  Occ=2.000000D+00  E=-3.772641D-01
              MO Center=  9.3D-01, -3.5D-01, -7.7D-01, r^2= 2.6D+00
   Bfn.  Coefficient  Atom+Function         Bfn.  Coefficient  Atom+Function  
  ----- ------------  ---------------      ----- ------------  ---------------
    99      0.207281   4 C  px              144      0.185217   8 H  s         
   100      0.173030   4 C  py              150     -0.146963   9 H  s         
   102      0.132961   4 C  px               37      0.129015   2 C  px        
   143      0.129603   8 H  s                 6     -0.119616   1 O  px        
   103      0.113975   4 C  py                7      0.108739   1 O  py        
 
 Vector   12  Occ=2.000000D+00  E=-3.562561D-01
              MO Center=  5.9D-01, -3.1D-01, -8.5D-01, r^2= 2.9D+00
   Bfn.  Coefficient  Atom+Function         Bfn.  Coefficient  Atom+Function  
  ----- ------------  ---------------      ----- ------------  ---------------
   100      0.251352   4 C  py              150     -0.181676   9 H  s         
   156      0.177255  10 H  s                 7     -0.167193   1 O  py        
   103      0.162566   4 C  py               10     -0.133975   1 O  py        
    70      0.126879   3 C  pz              149     -0.126560   9 H  s         
   155      0.125448  10 H  s                99     -0.102950   4 C  px        
 
 Vector   13  Occ=2.000000D+00  E=-3.302362D-01
              MO Center=  3.1D-01,  2.3D-01, -2.4D-01, r^2= 2.7D+00
   Bfn.  Coefficient  Atom+Function         Bfn.  Coefficient  Atom+Function  
  ----- ------------  ---------------      ----- ------------  ---------------
    39     -0.205705   2 C  pz                7      0.187487   1 O  py        
   101      0.186165   4 C  pz               70      0.161285   3 C  pz        
   138     -0.158381   7 H  s                10      0.151388   1 O  py        
    99     -0.141612   4 C  px               42     -0.139226   2 C  pz        
   104      0.130672   4 C  pz              137     -0.106371   7 H  s         
 
 Vector   14  Occ=2.000000D+00  E=-3.197631D-01
              MO Center=  4.2D-01, -4.4D-02, -2.2D-01, r^2= 3.0D+00
   Bfn.  Coefficient  Atom+Function         Bfn.  Coefficient  Atom+Function  
  ----- ------------  ---------------      ----- ------------  ---------------
     7      0.189321   1 O  py              126      0.169636   5 H  s         
   156      0.157666  10 H  s                10      0.155361   1 O  py        
    39      0.147805   2 C  pz               99     -0.146112   4 C  px        
     6     -0.142513   1 O  px              101     -0.134969   4 C  pz        
    37      0.125875   2 C  px              144     -0.122591   8 H  s         
 
 Vector   15  Occ=2.000000D+00  E=-2.635026D-01
              MO Center=  1.4D-02,  1.5D-01,  3.9D-02, r^2= 2.3D+00
   Bfn.  Coefficient  Atom+Function         Bfn.  Coefficient  Atom+Function  
  ----- ------------  ---------------      ----- ------------  ---------------
    68      0.263268   3 C  px               38      0.256527   2 C  py        
     6     -0.238951   1 O  px               41      0.199824   2 C  py        
    71      0.195948   3 C  px                9     -0.186960   1 O  px        
    12     -0.157982   1 O  px              150      0.113869   9 H  s         
   100     -0.108834   4 C  py               67      0.106440   3 C  s         
 
 Vector   16  Occ=2.000000D+00  E=-2.197223D-01
              MO Center= -5.8D-01, -3.0D-02,  2.0D-01, r^2= 1.6D+00
   Bfn.  Coefficient  Atom+Function         Bfn.  Coefficient  Atom+Function  
  ----- ------------  ---------------      ----- ------------  ---------------
     8      0.449275   1 O  pz               11      0.357865   1 O  pz        
    14      0.296370   1 O  pz              133     -0.131236   6 H  s         
   139      0.120940   7 H  s               138      0.104158   7 H  s         
   132     -0.102557   6 H  s               145     -0.102153   8 H  s         
   126     -0.097377   5 H  s                98      0.084928   4 C  s         
 
 Vector   17  Occ=0.000000D+00  E= 2.555048D-02
              MO Center=  1.2D+00, -4.8D-02, -6.3D-01, r^2= 7.3D+00
   Bfn.  Coefficient  Atom+Function         Bfn.  Coefficient  Atom+Function  
  ----- ------------  ---------------      ----- ------------  ---------------
    98      4.467174   4 C  s               145     -1.527491   8 H  s         
   151     -1.478558   9 H  s               157     -1.353091  10 H  s         
   127     -1.188867   5 H  s                45      1.102545   2 C  pz        
   139     -0.915567   7 H  s                67      0.735948   3 C  s         
   133     -0.613243   6 H  s                75      0.332895   3 C  py        
 
 Vector   18  Occ=0.000000D+00  E= 4.198888D-02
              MO Center= -9.9D-02,  6.3D-01,  8.6D-02, r^2= 4.6D+00
   Bfn.  Coefficient  Atom+Function         Bfn.  Coefficient  Atom+Function  
  ----- ------------  ---------------      ----- ------------  ---------------
    98      2.174563   4 C  s                36     -1.748091   2 C  s         
     5      1.270496   1 O  s                74      0.902821   3 C  px        
   151     -0.849804   9 H  s                45      0.573144   2 C  pz        
    13      0.446667   1 O  py              145     -0.405310   8 H  s         
    44     -0.379773   2 C  py               66     -0.371851   3 C  s         
 
 Vector   19  Occ=0.000000D+00  E= 4.963178D-02
              MO Center=  3.9D-01,  4.1D-01, -9.9D-02, r^2= 6.4D+00
   Bfn.  Coefficient  Atom+Function         Bfn.  Coefficient  Atom+Function  
  ----- ------------  ---------------      ----- ------------  ---------------
    36      2.905104   2 C  s                67     -2.589351   3 C  s         
   127     -1.821006   5 H  s               139      1.535763   7 H  s         
   157      0.884568  10 H  s                98     -0.755576   4 C  s         
    45      0.512584   2 C  pz               74     -0.513045   3 C  px        
    76      0.512491   3 C  pz               43      0.441730   2 C  px        
 
 Vector   20  Occ=0.000000D+00  E= 5.142261D-02
              MO Center=  5.7D-01,  6.1D-01,  4.6D-01, r^2= 7.6D+00
   Bfn.  Coefficient  Atom+Function         Bfn.  Coefficient  Atom+Function  
  ----- ------------  ---------------      ----- ------------  ---------------
    98      3.369766   4 C  s                67     -2.802242   3 C  s         
   133      1.897108   6 H  s               145     -1.205511   8 H  s         
   127      1.117714   5 H  s                44      1.110595   2 C  py        
   157     -1.056422  10 H  s                36     -0.767408   2 C  s         
   151     -0.692644   9 H  s                43     -0.642719   2 C  px        
 
 Vector   21  Occ=0.000000D+00  E= 6.472596D-02
              MO Center=  2.7D-01,  1.3D-01, -2.0D-01, r^2= 4.9D+00
   Bfn.  Coefficient  Atom+Function         Bfn.  Coefficient  Atom+Function  
  ----- ------------  ---------------      ----- ------------  ---------------
   139      1.287462   7 H  s                98      1.119047   4 C  s         
    67     -1.069663   3 C  s               151     -0.974183   9 H  s         
     5     -0.925977   1 O  s                43     -0.823495   2 C  px        
    75     -0.574692   3 C  py              133      0.557842   6 H  s         
    12     -0.488426   1 O  px              127     -0.478135   5 H  s         
 
 Vector   22  Occ=0.000000D+00  E= 8.564052D-02
              MO Center=  1.3D+00,  1.9D-01, -5.3D-01, r^2= 7.0D+00
   Bfn.  Coefficient  Atom+Function         Bfn.  Coefficient  Atom+Function  
  ----- ------------  ---------------      ----- ------------  ---------------
    36      2.842378   2 C  s               145      2.019336   8 H  s         
    67     -1.405754   3 C  s               157     -1.345502  10 H  s         
   127     -1.292050   5 H  s               133      1.142844   6 H  s         
   107     -1.098198   4 C  pz              105     -1.028238   4 C  px        
    98     -0.936670   4 C  s                75      0.764067   3 C  py        
 
 Vector   23  Occ=0.000000D+00  E= 9.189117D-02
              MO Center=  1.2D+00, -6.9D-01, -5.7D-01, r^2= 6.4D+00
   Bfn.  Coefficient  Atom+Function         Bfn.  Coefficient  Atom+Function  
  ----- ------------  ---------------      ----- ------------  ---------------
    36      2.566714   2 C  s               151      2.114710   9 H  s         
   145     -1.542793   8 H  s                98     -1.355813   4 C  s         
   106      1.189077   4 C  py              105      1.101771   4 C  px        
    67     -0.900413   3 C  s               133      0.853015   6 H  s         
   127     -0.839039   5 H  s               107     -0.714833   4 C  pz        
 
 Vector   24  Occ=0.000000D+00  E= 1.031086D-01
              MO Center=  4.1D-01,  5.0D-01, -1.0D+00, r^2= 6.9D+00
   Bfn.  Coefficient  Atom+Function         Bfn.  Coefficient  Atom+Function  
  ----- ------------  ---------------      ----- ------------  ---------------
   157      2.007133  10 H  s               133      1.652771   6 H  s         
    98     -1.572919   4 C  s               139     -1.560161   7 H  s         
    36      1.449326   2 C  s               106     -1.442746   4 C  py        
   151     -1.335023   9 H  s                76     -1.198656   3 C  pz        
   105      0.985473   4 C  px               45     -0.509090   2 C  pz        
 
 Vector   25  Occ=0.000000D+00  E= 1.389585D-01
              MO Center=  8.1D-01,  1.6D-01, -4.5D-01, r^2= 7.9D+00
   Bfn.  Coefficient  Atom+Function         Bfn.  Coefficient  Atom+Function  
  ----- ------------  ---------------      ----- ------------  ---------------
    36      4.710997   2 C  s                98     -3.590068   4 C  s         
    45     -3.398581   2 C  pz               67     -2.805396   3 C  s         
   127      2.713339   5 H  s                76      2.155254   3 C  pz        
   105      2.085809   4 C  px              133     -1.767947   6 H  s         
   139      1.669025   7 H  s               107     -1.567136   4 C  pz        
 
 Vector   26  Occ=0.000000D+00  E= 1.699081D-01
              MO Center=  4.3D-01,  5.5D-01, -1.3D-01, r^2= 7.3D+00
   Bfn.  Coefficient  Atom+Function         Bfn.  Coefficient  Atom+Function  
  ----- ------------  ---------------      ----- ------------  ---------------
    75      2.352042   3 C  py              107      1.627675   4 C  pz        
    67     -1.592606   3 C  s                36      1.562754   2 C  s         
   139     -1.204309   7 H  s               157      1.075718  10 H  s         
    74     -0.956199   3 C  px               44      0.760054   2 C  py        
    43     -0.650965   2 C  px              106     -0.584227   4 C  py        
 
 Vector   27  Occ=0.000000D+00  E= 1.977576D-01
              MO Center=  8.6D-01, -4.2D-02, -9.5D-01, r^2= 5.2D+00
   Bfn.  Coefficient  Atom+Function         Bfn.  Coefficient  Atom+Function  
  ----- ------------  ---------------      ----- ------------  ---------------
    67      3.008676   3 C  s                44     -2.623356   2 C  py        
   106      2.077022   4 C  py               36     -1.452265   2 C  s         
    43      0.972058   2 C  px               74      0.732200   3 C  px        
   157     -0.659050  10 H  s                45     -0.646472   2 C  pz        
   150      0.648694   9 H  s               105      0.601032   4 C  px        
 
 Vector   28  Occ=0.000000D+00  E= 2.015757D-01
              MO Center=  9.2D-01, -4.9D-01, -7.3D-01, r^2= 6.6D+00
   Bfn.  Coefficient  Atom+Function         Bfn.  Coefficient  Atom+Function  
  ----- ------------  ---------------      ----- ------------  ---------------
    36      2.509026   2 C  s                75      1.649055   3 C  py        
   105     -1.511035   4 C  px              133     -1.176576   6 H  s         
   107     -0.868602   4 C  pz               45      0.813276   2 C  pz        
   139     -0.731712   7 H  s               156     -0.720232  10 H  s         
   106      0.662516   4 C  py               76      0.626531   3 C  pz        
 
 Vector   29  Occ=0.000000D+00  E= 2.361862D-01
              MO Center= -3.0D-01,  4.1D-01, -5.9D-02, r^2= 5.4D+00
   Bfn.  Coefficient  Atom+Function         Bfn.  Coefficient  Atom+Function  
  ----- ------------  ---------------      ----- ------------  ---------------
    67      4.570712   3 C  s                36     -3.113225   2 C  s         
   139     -1.495130   7 H  s                66     -1.443381   3 C  s         
   133     -1.273392   6 H  s                98      1.257105   4 C  s         
   107      0.966313   4 C  pz              106      0.806083   4 C  py        
     5     -0.752868   1 O  s                74     -0.753019   3 C  px        
 
 Vector   30  Occ=0.000000D+00  E= 2.487774D-01
              MO Center=  5.5D-01,  1.2D-03, -7.6D-02, r^2= 5.8D+00
   Bfn.  Coefficient  Atom+Function         Bfn.  Coefficient  Atom+Function  
  ----- ------------  ---------------      ----- ------------  ---------------
    67      6.039247   3 C  s                43      4.232159   2 C  px        
    75     -3.027557   3 C  py               44     -2.682763   2 C  py        
    36     -2.165141   2 C  s               107     -2.071875   4 C  pz        
   157     -1.816575  10 H  s                45     -1.584085   2 C  pz        
    98     -1.436692   4 C  s               105     -1.134354   4 C  px        
 
 Vector   31  Occ=0.000000D+00  E= 2.687208D-01
              MO Center=  2.8D-01, -1.5D-01,  2.4D-01, r^2= 5.7D+00
   Bfn.  Coefficient  Atom+Function         Bfn.  Coefficient  Atom+Function  
  ----- ------------  ---------------      ----- ------------  ---------------
    36      4.387911   2 C  s                67      2.309091   3 C  s         
     5     -2.259104   1 O  s                43     -1.561188   2 C  px        
   105      1.526573   4 C  px               66     -1.189990   3 C  s         
    98     -1.176422   4 C  s               139     -0.959166   7 H  s         
   133     -0.912907   6 H  s               127     -0.879150   5 H  s         
 
 Vector   32  Occ=0.000000D+00  E= 2.775822D-01
              MO Center=  4.2D-01,  3.4D-01,  3.0D-01, r^2= 4.2D+00
   Bfn.  Coefficient  Atom+Function         Bfn.  Coefficient  Atom+Function  
  ----- ------------  ---------------      ----- ------------  ---------------
    36      2.441875   2 C  s                 5     -1.704266   1 O  s         
    67     -1.605549   3 C  s                43     -1.191480   2 C  px        
    98     -0.801880   4 C  s                45     -0.778490   2 C  pz        
    74     -0.735323   3 C  px              145      0.589344   8 H  s         
     4      0.496654   1 O  s                66      0.425826   3 C  s         
 
 Vector   33  Occ=0.000000D+00  E= 3.000872D-01
              MO Center=  4.2D-01,  3.5D-01, -3.9D-01, r^2= 5.0D+00
   Bfn.  Coefficient  Atom+Function         Bfn.  Coefficient  Atom+Function  
  ----- ------------  ---------------      ----- ------------  ---------------
    43      1.804700   2 C  px              106      1.780881   4 C  py        
   151      1.685035   9 H  s                36     -1.539922   2 C  s         
    76      1.397136   3 C  pz               98     -1.391411   4 C  s         
    44     -1.199571   2 C  py               66      1.018008   3 C  s         
   139      0.950497   7 H  s               107     -0.901626   4 C  pz        
 
 Vector   34  Occ=0.000000D+00  E= 3.368669D-01
              MO Center= -2.9D-03,  4.9D-01, -3.4D-01, r^2= 5.8D+00
   Bfn.  Coefficient  Atom+Function         Bfn.  Coefficient  Atom+Function  
  ----- ------------  ---------------      ----- ------------  ---------------
    67      4.378644   3 C  s                76     -4.322518   3 C  pz        
   139     -3.273754   7 H  s                36     -2.475801   2 C  s         
   133      2.243279   6 H  s               157     -1.701504  10 H  s         
   107     -1.656136   4 C  pz               43      1.418393   2 C  px        
    98      1.296507   4 C  s                44     -1.190073   2 C  py        
 
 Vector   35  Occ=0.000000D+00  E= 3.618014D-01
              MO Center=  8.0D-01, -6.7D-02, -4.8D-01, r^2= 6.7D+00
   Bfn.  Coefficient  Atom+Function         Bfn.  Coefficient  Atom+Function  
  ----- ------------  ---------------      ----- ------------  ---------------
    98      8.237233   4 C  s                97     -3.357072   4 C  s         
   145     -3.271172   8 H  s                76      3.065430   3 C  pz        
   133     -2.298020   6 H  s               151     -2.100230   9 H  s         
    45     -1.810209   2 C  pz              157     -1.670182  10 H  s         
    44      1.451970   2 C  py              139      1.254501   7 H  s         
 
 Vector   36  Occ=0.000000D+00  E= 3.712366D-01
              MO Center=  5.1D-01,  2.9D-01,  5.3D-02, r^2= 6.2D+00
   Bfn.  Coefficient  Atom+Function         Bfn.  Coefficient  Atom+Function  
  ----- ------------  ---------------      ----- ------------  ---------------
    36     12.474492   2 C  s                67     -8.405162   3 C  s         
    98     -7.421198   4 C  s               127     -3.192406   5 H  s         
    97      2.066097   4 C  s               157      2.057691  10 H  s         
    44      1.996401   2 C  py               35     -1.922861   2 C  s         
    74     -1.667964   3 C  px               75      1.647065   3 C  py        
 
 Vector   37  Occ=0.000000D+00  E= 3.853270D-01
              MO Center=  9.2D-01, -3.4D-01, -1.2D-01, r^2= 6.2D+00
   Bfn.  Coefficient  Atom+Function         Bfn.  Coefficient  Atom+Function  
  ----- ------------  ---------------      ----- ------------  ---------------
    36      5.786608   2 C  s                98      5.237060   4 C  s         
   127     -4.152161   5 H  s                45      3.318258   2 C  pz        
    67     -2.990701   3 C  s               151     -2.289559   9 H  s         
   145     -2.246521   8 H  s                76     -2.194731   3 C  pz        
    35     -2.166142   2 C  s               133      1.858773   6 H  s         
 
 Vector   38  Occ=0.000000D+00  E= 3.958122D-01
              MO Center=  2.5D-01,  1.4D-01, -1.6D-01, r^2= 6.3D+00
   Bfn.  Coefficient  Atom+Function         Bfn.  Coefficient  Atom+Function  
  ----- ------------  ---------------      ----- ------------  ---------------
    98     12.261118   4 C  s                67     -5.524248   3 C  s         
    45      5.007235   2 C  pz               36     -2.910247   2 C  s         
    76     -2.731584   3 C  pz              157     -2.684715  10 H  s         
    44      2.367264   2 C  py              133      2.344845   6 H  s         
    43     -2.089196   2 C  px              107      1.795798   4 C  pz        
 
 Vector   39  Occ=0.000000D+00  E= 4.020180D-01
              MO Center= -2.2D-01,  2.3D-01,  2.4D-01, r^2= 6.4D+00
   Bfn.  Coefficient  Atom+Function         Bfn.  Coefficient  Atom+Function  
  ----- ------------  ---------------      ----- ------------  ---------------
    67    -12.638828   3 C  s                36     12.521959   2 C  s         
    98     -5.424444   4 C  s                45     -5.040311   2 C  pz        
    44      4.085332   2 C  py              127      2.838890   5 H  s         
    66      2.703866   3 C  s                43     -2.460028   2 C  px        
   139      2.300373   7 H  s               105      2.273458   4 C  px        
 
 Vector   40  Occ=0.000000D+00  E= 4.154129D-01
              MO Center=  8.1D-01, -3.9D-01, -8.8D-01, r^2= 5.8D+00
   Bfn.  Coefficient  Atom+Function         Bfn.  Coefficient  Atom+Function  
  ----- ------------  ---------------      ----- ------------  ---------------
    98      7.491066   4 C  s                36     -3.594896   2 C  s         
    45      3.188553   2 C  pz              105     -2.606664   4 C  px        
   151     -2.427975   9 H  s               157     -2.119265  10 H  s         
   145      1.744499   8 H  s                97     -1.208131   4 C  s         
   127     -0.988567   5 H  s               144     -0.968273   8 H  s         
 
 Vector   41  Occ=0.000000D+00  E= 4.263281D-01
              MO Center=  4.6D-01,  2.4D-01, -1.3D-01, r^2= 6.8D+00
   Bfn.  Coefficient  Atom+Function         Bfn.  Coefficient  Atom+Function  
  ----- ------------  ---------------      ----- ------------  ---------------
    36      9.505512   2 C  s                67     -4.606794   3 C  s         
    98     -4.410663   4 C  s                75      2.616329   3 C  py        
    44      2.552077   2 C  py              151      2.382676   9 H  s         
    43     -1.705426   2 C  px               45     -1.494543   2 C  pz        
    74     -1.457557   3 C  px               35     -1.328321   2 C  s         
 
 Vector   42  Occ=0.000000D+00  E= 4.472580D-01
              MO Center=  7.9D-02, -9.1D-02, -3.0D-01, r^2= 6.1D+00
   Bfn.  Coefficient  Atom+Function         Bfn.  Coefficient  Atom+Function  
  ----- ------------  ---------------      ----- ------------  ---------------
    36     10.011105   2 C  s                98     -9.389477   4 C  s         
    45     -5.392292   2 C  pz               67     -3.014732   3 C  s         
   127      2.549030   5 H  s                76      2.366906   3 C  pz        
   157      2.263230  10 H  s                44      2.167321   2 C  py        
   106     -2.157329   4 C  py               35     -2.000825   2 C  s         
 
 Vector   43  Occ=0.000000D+00  E= 4.588065D-01
              MO Center=  1.2D-01,  7.2D-01, -5.2D-01, r^2= 5.2D+00
   Bfn.  Coefficient  Atom+Function         Bfn.  Coefficient  Atom+Function  
  ----- ------------  ---------------      ----- ------------  ---------------
   139      3.220952   7 H  s               107     -2.412158   4 C  pz        
   157     -2.272546  10 H  s                45     -2.172171   2 C  pz        
    75     -2.033530   3 C  py               98     -1.569263   4 C  s         
    43      1.531676   2 C  px               44     -1.411173   2 C  py        
   138     -1.361989   7 H  s                76      1.263299   3 C  pz        
 
 Vector   44  Occ=0.000000D+00  E= 4.668118D-01
              MO Center=  5.0D-01,  1.9D-01,  7.8D-02, r^2= 5.7D+00
   Bfn.  Coefficient  Atom+Function         Bfn.  Coefficient  Atom+Function  
  ----- ------------  ---------------      ----- ------------  ---------------
    98      4.270413   4 C  s                36     -3.753901   2 C  s         
   133     -1.756361   6 H  s               145     -1.635740   8 H  s         
    45      1.467192   2 C  pz              107      1.471264   4 C  pz        
   127      1.351874   5 H  s               132      1.190054   6 H  s         
    43     -1.159733   2 C  px              157      1.157183  10 H  s         
 
 Vector   45  Occ=0.000000D+00  E= 5.069623D-01
              MO Center=  9.0D-01, -3.8D-01, -9.4D-01, r^2= 4.8D+00
   Bfn.  Coefficient  Atom+Function         Bfn.  Coefficient  Atom+Function  
  ----- ------------  ---------------      ----- ------------  ---------------
    98     11.196744   4 C  s                36     -7.251547   2 C  s         
    45      4.427546   2 C  pz              107      3.038491   4 C  pz        
   106      1.356050   4 C  py              144     -1.356057   8 H  s         
   156     -1.222016  10 H  s               127     -1.072802   5 H  s         
   150     -1.064264   9 H  s                43     -1.054349   2 C  px        
 
 Vector   46  Occ=0.000000D+00  E= 5.420702D-01
              MO Center=  9.8D-02, -4.1D-01, -4.8D-01, r^2= 4.4D+00
   Bfn.  Coefficient  Atom+Function         Bfn.  Coefficient  Atom+Function  
  ----- ------------  ---------------      ----- ------------  ---------------
    98     -7.537091   4 C  s                36      6.892897   2 C  s         
    45     -3.686978   2 C  pz               76      3.311482   3 C  pz        
   133     -1.827022   6 H  s               139      1.531088   7 H  s         
   107     -1.522578   4 C  pz              105      1.512779   4 C  px        
    14     -1.185412   1 O  pz                5     -1.171251   1 O  s         
 
 Vector   47  Occ=0.000000D+00  E= 6.571675D-01
              MO Center= -3.9D-01,  2.6D-02, -2.7D-02, r^2= 4.3D+00
   Bfn.  Coefficient  Atom+Function         Bfn.  Coefficient  Atom+Function  
  ----- ------------  ---------------      ----- ------------  ---------------
    36     11.650505   2 C  s                67     -9.124368   3 C  s         
    98     -3.855722   4 C  s                43     -2.603219   2 C  px        
    75      2.501957   3 C  py               13      2.280991   1 O  py        
    76      1.937495   3 C  pz              105      1.552571   4 C  px        
   139      1.462751   7 H  s                44      1.437039   2 C  py        
 
 Vector   48  Occ=0.000000D+00  E= 6.737830D-01
              MO Center= -2.4D-01,  3.4D-01,  1.1D-01, r^2= 3.9D+00
   Bfn.  Coefficient  Atom+Function         Bfn.  Coefficient  Atom+Function  
  ----- ------------  ---------------      ----- ------------  ---------------
    36      7.591989   2 C  s                67     -7.251638   3 C  s         
     5      2.997930   1 O  s                75      2.419752   3 C  py        
    98     -2.168900   4 C  s                13      2.007966   1 O  py        
    45     -1.215739   2 C  pz                4     -1.103406   1 O  s         
    43     -1.063831   2 C  px               72      0.802828   3 C  py        
 
 Vector   49  Occ=0.000000D+00  E= 7.058420D-01
              MO Center=  1.6D-01, -3.2D-01, -2.7D-01, r^2= 4.5D+00
   Bfn.  Coefficient  Atom+Function         Bfn.  Coefficient  Atom+Function  
  ----- ------------  ---------------      ----- ------------  ---------------
    67      9.680791   3 C  s                36     -7.649843   2 C  s         
    43      3.609635   2 C  px               44     -3.512205   2 C  py        
    75     -2.815870   3 C  py               98     -2.382485   4 C  s         
     5      2.199751   1 O  s                12      1.700859   1 O  px        
   106      1.677450   4 C  py               13     -1.337358   1 O  py        
 
 Vector   50  Occ=0.000000D+00  E= 7.629414D-01
              MO Center=  6.2D-01,  2.5D-02, -3.1D-01, r^2= 4.0D+00
   Bfn.  Coefficient  Atom+Function         Bfn.  Coefficient  Atom+Function  
  ----- ------------  ---------------      ----- ------------  ---------------
    45      2.422275   2 C  pz              127     -1.673636   5 H  s         
   105     -1.600392   4 C  px               43      1.505220   2 C  px        
   126     -1.353463   5 H  s               144      1.285657   8 H  s         
     5     -1.273776   1 O  s                36      1.098489   2 C  s         
    67      1.091658   3 C  s                76     -1.065626   3 C  pz        
 
 Vector   51  Occ=0.000000D+00  E= 7.969261D-01
              MO Center=  2.4D-01,  1.7D-02, -1.6D-01, r^2= 4.4D+00
   Bfn.  Coefficient  Atom+Function         Bfn.  Coefficient  Atom+Function  
  ----- ------------  ---------------      ----- ------------  ---------------
     5      4.417580   1 O  s                36     -3.109770   2 C  s         
    76     -2.429287   3 C  pz                4     -1.706157   1 O  s         
    45      1.495700   2 C  pz               12      1.413917   1 O  px        
   133      1.292657   6 H  s                43      1.283584   2 C  px        
    66     -1.048939   3 C  s                35     -0.998583   2 C  s         
 
 Vector   52  Occ=0.000000D+00  E= 8.319470D-01
              MO Center=  3.2D-01,  1.7D-01, -2.0D-02, r^2= 4.4D+00
   Bfn.  Coefficient  Atom+Function         Bfn.  Coefficient  Atom+Function  
  ----- ------------  ---------------      ----- ------------  ---------------
    36      6.767969   2 C  s                98     -4.131041   4 C  s         
     5     -3.912031   1 O  s                43     -2.564446   2 C  px        
   105      1.957202   4 C  px               35     -1.902876   2 C  s         
    45     -1.799615   2 C  pz               44      1.520546   2 C  py        
    66     -1.176804   3 C  s                97      1.062330   4 C  s         
 
 Vector   53  Occ=0.000000D+00  E= 8.531055D-01
              MO Center=  6.0D-01,  1.4D-01, -3.8D-01, r^2= 4.2D+00
   Bfn.  Coefficient  Atom+Function         Bfn.  Coefficient  Atom+Function  
  ----- ------------  ---------------      ----- ------------  ---------------
    98     -4.685747   4 C  s                45     -4.546875   2 C  pz        
    36      4.457470   2 C  s                76      2.070836   3 C  pz        
   127      1.778396   5 H  s               106     -1.591101   4 C  py        
    44      1.448382   2 C  py              105      1.283436   4 C  px        
   150     -1.237810   9 H  s               139      1.116826   7 H  s         
 
 Vector   54  Occ=0.000000D+00  E= 8.733490D-01
              MO Center=  2.1D-01, -4.6D-02, -1.5D-01, r^2= 4.3D+00
   Bfn.  Coefficient  Atom+Function         Bfn.  Coefficient  Atom+Function  
  ----- ------------  ---------------      ----- ------------  ---------------
     5      4.461017   1 O  s                36     -1.621728   2 C  s         
     4     -1.520990   1 O  s               138      1.431048   7 H  s         
    76      1.384430   3 C  pz               67     -1.200156   3 C  s         
    12      1.168477   1 O  px               66     -1.162357   3 C  s         
    98     -1.136486   4 C  s                97      0.879891   4 C  s         
 
 Vector   55  Occ=0.000000D+00  E= 9.194762D-01
              MO Center=  4.9D-01,  3.2D-01, -4.6D-01, r^2= 4.5D+00
   Bfn.  Coefficient  Atom+Function         Bfn.  Coefficient  Atom+Function  
  ----- ------------  ---------------      ----- ------------  ---------------
    35      4.948175   2 C  s                36     -1.714971   2 C  s         
    67      1.490386   3 C  s               132     -1.359450   6 H  s         
    72      1.250834   3 C  py               66     -1.194082   3 C  s         
    84      1.167795   3 C  d  0             41      1.109408   2 C  py        
    98     -1.089054   4 C  s               156     -1.068685  10 H  s         
 
 Vector   56  Occ=0.000000D+00  E= 9.598939D-01
              MO Center=  4.4D-01,  3.1D-01, -5.3D-01, r^2= 4.7D+00
   Bfn.  Coefficient  Atom+Function         Bfn.  Coefficient  Atom+Function  
  ----- ------------  ---------------      ----- ------------  ---------------
    35      4.248644   2 C  s                67      2.642683   3 C  s         
   138     -2.355828   7 H  s                76     -1.866675   3 C  pz        
    36     -1.718515   2 C  s                42     -1.715795   2 C  pz        
    83     -1.658174   3 C  d -1            115     -1.467543   4 C  d  0      
   132      1.365092   6 H  s               107     -1.241902   4 C  pz        
 
 Vector   57  Occ=0.000000D+00  E= 9.894138D-01
              MO Center=  3.1D-01,  5.5D-01, -8.3D-02, r^2= 4.0D+00
   Bfn.  Coefficient  Atom+Function         Bfn.  Coefficient  Atom+Function  
  ----- ------------  ---------------      ----- ------------  ---------------
    36      6.998815   2 C  s                98     -4.654103   4 C  s         
    67     -3.612322   3 C  s                45     -3.462664   2 C  pz        
    43     -2.163883   2 C  px               44      2.038828   2 C  py        
    66     -1.606020   3 C  s               127      1.453545   5 H  s         
    75      1.417633   3 C  py              126      1.270906   5 H  s         
 
 Vector   58  Occ=0.000000D+00  E= 1.011990D+00
              MO Center=  4.0D-01,  5.0D-01, -7.9D-02, r^2= 4.4D+00
   Bfn.  Coefficient  Atom+Function         Bfn.  Coefficient  Atom+Function  
  ----- ------------  ---------------      ----- ------------  ---------------
    36      6.147086   2 C  s                67     -4.846323   3 C  s         
    45     -2.381477   2 C  pz               98     -2.135678   4 C  s         
    44      2.073415   2 C  py              156     -1.546300  10 H  s         
    43     -1.465100   2 C  px               41      1.384073   2 C  py        
    74     -1.390396   3 C  px              144      1.390328   8 H  s         
 
 Vector   59  Occ=0.000000D+00  E= 1.043435D+00
              MO Center=  7.0D-01, -1.6D-01, -4.7D-01, r^2= 4.2D+00
   Bfn.  Coefficient  Atom+Function         Bfn.  Coefficient  Atom+Function  
  ----- ------------  ---------------      ----- ------------  ---------------
    35      2.659481   2 C  s                36      2.284021   2 C  s         
    66     -2.268538   3 C  s               150      1.974296   9 H  s         
   144     -1.919911   8 H  s                 5     -1.792047   1 O  s         
   117      1.733251   4 C  d  2             41      1.501200   2 C  py        
    44      1.226359   2 C  py               72      1.194909   3 C  py        
 
 Vector   60  Occ=0.000000D+00  E= 1.080527D+00
              MO Center=  6.7D-01,  1.8D-02, -7.6D-02, r^2= 4.1D+00
   Bfn.  Coefficient  Atom+Function         Bfn.  Coefficient  Atom+Function  
  ----- ------------  ---------------      ----- ------------  ---------------
    98     -4.256239   4 C  s                66      4.109588   3 C  s         
    97     -3.858131   4 C  s                45     -3.814809   2 C  pz        
    36      3.492068   2 C  s                41     -2.629490   2 C  py        
   104     -2.583737   4 C  pz               42     -2.451949   2 C  pz        
    72     -2.381829   3 C  py               40      2.265021   2 C  px        
 
 Vector   61  Occ=0.000000D+00  E= 1.106496D+00
              MO Center=  3.6D-01,  7.2D-02,  5.9D-02, r^2= 3.8D+00
   Bfn.  Coefficient  Atom+Function         Bfn.  Coefficient  Atom+Function  
  ----- ------------  ---------------      ----- ------------  ---------------
    36      7.761035   2 C  s                67     -5.421210   3 C  s         
    98     -3.008627   4 C  s               126     -2.014167   5 H  s         
    45     -1.946512   2 C  pz               66      1.933860   3 C  s         
   132      1.676907   6 H  s                72     -1.497352   3 C  py        
    41     -1.399657   2 C  py               97     -1.398361   4 C  s         
 
 Vector   62  Occ=0.000000D+00  E= 1.148254D+00
              MO Center=  6.4D-01, -5.2D-03, -4.9D-02, r^2= 3.5D+00
   Bfn.  Coefficient  Atom+Function         Bfn.  Coefficient  Atom+Function  
  ----- ------------  ---------------      ----- ------------  ---------------
    67      5.074296   3 C  s                36     -3.848208   2 C  s         
    44     -2.329569   2 C  py              126      1.861294   5 H  s         
    97     -1.785912   4 C  s                54      1.573864   2 C  d  1      
    43      1.514850   2 C  px               55      1.498045   2 C  d  2      
    42     -1.432545   2 C  pz               75     -1.385822   3 C  py        
 
 Vector   63  Occ=0.000000D+00  E= 1.214791D+00
              MO Center=  5.7D-01,  2.0D-01, -1.5D-01, r^2= 3.8D+00
   Bfn.  Coefficient  Atom+Function         Bfn.  Coefficient  Atom+Function  
  ----- ------------  ---------------      ----- ------------  ---------------
    36      6.743588   2 C  s                66     -5.071255   3 C  s         
    97     -3.449550   4 C  s                35      3.299586   2 C  s         
    67     -3.250839   3 C  s                72      1.952406   3 C  py        
    51     -1.790957   2 C  d -2             52      1.709151   2 C  d -1      
   138      1.613914   7 H  s               104     -1.560181   4 C  pz        
 
 Vector   64  Occ=0.000000D+00  E= 1.349554D+00
              MO Center=  3.4D-01,  5.4D-01,  2.3D-01, r^2= 3.6D+00
   Bfn.  Coefficient  Atom+Function         Bfn.  Coefficient  Atom+Function  
  ----- ------------  ---------------      ----- ------------  ---------------
    66      4.739131   3 C  s                35      3.931009   2 C  s         
    67     -3.053521   3 C  s                36     -2.828327   2 C  s         
    65     -2.416829   3 C  s               132     -2.071147   6 H  s         
    34     -1.441189   2 C  s               133      1.448108   6 H  s         
    72      1.342857   3 C  py              139      1.066838   7 H  s         
 
 Vector   65  Occ=0.000000D+00  E= 1.415763D+00
              MO Center=  1.6D-01,  5.2D-01, -5.7D-02, r^2= 3.4D+00
   Bfn.  Coefficient  Atom+Function         Bfn.  Coefficient  Atom+Function  
  ----- ------------  ---------------      ----- ------------  ---------------
    36      4.261588   2 C  s                66      3.987530   3 C  s         
    67     -3.898418   3 C  s                35     -3.792896   2 C  s         
    73     -2.272442   3 C  pz              138     -2.251776   7 H  s         
   139      2.172124   7 H  s               126      1.785035   5 H  s         
    65     -1.621448   3 C  s                76      1.585264   3 C  pz        
 
 Vector   66  Occ=0.000000D+00  E= 1.433007D+00
              MO Center=  1.0D+00, -4.1D-01, -1.1D+00, r^2= 3.6D+00
   Bfn.  Coefficient  Atom+Function         Bfn.  Coefficient  Atom+Function  
  ----- ------------  ---------------      ----- ------------  ---------------
    98      9.821933   4 C  s                97     -7.421172   4 C  s         
    96      2.996611   4 C  s                36     -2.898141   2 C  s         
   145     -2.387698   8 H  s               151     -2.132335   9 H  s         
   157     -2.079449  10 H  s               144      1.780543   8 H  s         
   150      1.470695   9 H  s               104      1.448534   4 C  pz        
 
 Vector   67  Occ=0.000000D+00  E= 1.441180D+00
              MO Center=  3.7D-01, -3.9D-02, -1.9D-01, r^2= 4.3D+00
   Bfn.  Coefficient  Atom+Function         Bfn.  Coefficient  Atom+Function  
  ----- ------------  ---------------      ----- ------------  ---------------
    98      4.259768   4 C  s                66      4.166382   3 C  s         
    35     -3.016462   2 C  s                67     -2.984543   3 C  s         
    97     -2.223811   4 C  s               133      1.949420   6 H  s         
    45      1.936331   2 C  pz               76     -1.781252   3 C  pz        
   151     -1.627382   9 H  s               150      1.617445   9 H  s         
 
 Vector   68  Occ=0.000000D+00  E= 1.446681D+00
              MO Center=  3.4D-01, -1.2D-02, -1.5D-01, r^2= 3.1D+00
   Bfn.  Coefficient  Atom+Function         Bfn.  Coefficient  Atom+Function  
  ----- ------------  ---------------      ----- ------------  ---------------
    98      4.897867   4 C  s                97     -2.724019   4 C  s         
    36     -2.666300   2 C  s                 5      2.018274   1 O  s         
    45      1.983378   2 C  pz              127     -1.328157   5 H  s         
    35     -1.199135   2 C  s                96      1.133585   4 C  s         
    44     -1.067538   2 C  py               42     -1.000469   2 C  pz        
 
 Vector   69  Occ=0.000000D+00  E= 1.474478D+00
              MO Center=  9.0D-01, -2.3D-01, -9.6D-01, r^2= 3.5D+00
   Bfn.  Coefficient  Atom+Function         Bfn.  Coefficient  Atom+Function  
  ----- ------------  ---------------      ----- ------------  ---------------
    66      2.201355   3 C  s                36      1.630815   2 C  s         
    67     -1.535368   3 C  s                 5     -1.267514   1 O  s         
   103      0.975352   4 C  py               65     -0.930077   3 C  s         
    71     -0.898726   3 C  px              133      0.875097   6 H  s         
   132     -0.835825   6 H  s                98     -0.808679   4 C  s         
 
 Vector   70  Occ=0.000000D+00  E= 1.478505D+00
              MO Center=  9.5D-01, -3.9D-01, -1.0D+00, r^2= 3.4D+00
   Bfn.  Coefficient  Atom+Function         Bfn.  Coefficient  Atom+Function  
  ----- ------------  ---------------      ----- ------------  ---------------
    36      2.795811   2 C  s               156     -2.664542  10 H  s         
   157      2.056609  10 H  s               102     -2.027422   4 C  px        
   104     -1.761862   4 C  pz              126      1.695103   5 H  s         
    66     -1.675036   3 C  s               103      1.639736   4 C  py        
   127     -1.305248   5 H  s               144      1.270453   8 H  s         
 
 Vector   71  Occ=0.000000D+00  E= 1.509525D+00
              MO Center=  3.2D-01,  1.8D-01, -3.0D-01, r^2= 4.0D+00
   Bfn.  Coefficient  Atom+Function         Bfn.  Coefficient  Atom+Function  
  ----- ------------  ---------------      ----- ------------  ---------------
    98      2.811545   4 C  s               144      1.857305   8 H  s         
   102     -1.557106   4 C  px              145     -1.439085   8 H  s         
   103     -1.350901   4 C  py               97     -1.311753   4 C  s         
    45      1.263305   2 C  pz               36     -1.055226   2 C  s         
   150     -0.925950   9 H  s               106      0.809714   4 C  py        
 
 Vector   72  Occ=0.000000D+00  E= 1.541753D+00
              MO Center=  4.2D-01,  4.0D-01, -2.5D-01, r^2= 4.7D+00
   Bfn.  Coefficient  Atom+Function         Bfn.  Coefficient  Atom+Function  
  ----- ------------  ---------------      ----- ------------  ---------------
    36      4.135831   2 C  s                35     -3.554613   2 C  s         
    98     -3.425998   4 C  s                97      3.043291   4 C  s         
    67     -2.348297   3 C  s                73      2.140481   3 C  pz        
   132     -1.757186   6 H  s               102     -1.509756   4 C  px        
   133      1.443183   6 H  s               138      1.340331   7 H  s         
 
 Vector   73  Occ=0.000000D+00  E= 1.576677D+00
              MO Center=  4.9D-01, -4.0D-02, -8.7D-02, r^2= 3.2D+00
   Bfn.  Coefficient  Atom+Function         Bfn.  Coefficient  Atom+Function  
  ----- ------------  ---------------      ----- ------------  ---------------
    35      3.509394   2 C  s                36     -2.925831   2 C  s         
    40     -2.042768   2 C  px               97     -2.044686   4 C  s         
    67      1.754998   3 C  s               126      1.757909   5 H  s         
    72      1.516667   3 C  py               42     -1.504441   2 C  pz        
    98      1.509670   4 C  s                34     -1.473838   2 C  s         
 
 Vector   74  Occ=0.000000D+00  E= 1.598019D+00
              MO Center=  3.4D-01,  3.9D-01, -1.4D-01, r^2= 3.4D+00
   Bfn.  Coefficient  Atom+Function         Bfn.  Coefficient  Atom+Function  
  ----- ------------  ---------------      ----- ------------  ---------------
    66     -5.438149   3 C  s                36     -5.306159   2 C  s         
    35      5.105559   2 C  s                67      3.952590   3 C  s         
    41      3.835814   2 C  py               71     -2.563745   3 C  px        
    72      2.530373   3 C  py               40     -2.160505   2 C  px        
    98      1.805117   4 C  s                82      1.681737   3 C  d -2      
 
 Vector   75  Occ=0.000000D+00  E= 1.644372D+00
              MO Center=  4.7D-01,  1.7D-01, -9.6D-03, r^2= 3.6D+00
   Bfn.  Coefficient  Atom+Function         Bfn.  Coefficient  Atom+Function  
  ----- ------------  ---------------      ----- ------------  ---------------
    66      2.614876   3 C  s                35      2.283073   2 C  s         
    98      2.077174   4 C  s                 5     -1.804876   1 O  s         
    97     -1.628885   4 C  s                67     -1.447285   3 C  s         
   104     -1.125987   4 C  pz              144      1.064873   8 H  s         
   150     -1.044367   9 H  s               103     -1.022736   4 C  py        
 
 Vector   76  Occ=0.000000D+00  E= 1.694248D+00
              MO Center=  5.1D-01,  2.2D-01, -4.0D-01, r^2= 3.8D+00
   Bfn.  Coefficient  Atom+Function         Bfn.  Coefficient  Atom+Function  
  ----- ------------  ---------------      ----- ------------  ---------------
    97     -5.868929   4 C  s                35      5.620854   2 C  s         
    42     -3.049270   2 C  pz              104     -3.043670   4 C  pz        
   102      1.846175   4 C  px               34     -1.657781   2 C  s         
    40      1.560486   2 C  px               96      1.550170   4 C  s         
    72     -1.538452   3 C  py               66     -1.388631   3 C  s         
 
 Vector   77  Occ=0.000000D+00  E= 1.704155D+00
              MO Center=  2.2D-04,  1.9D-01, -8.8D-02, r^2= 3.6D+00
   Bfn.  Coefficient  Atom+Function         Bfn.  Coefficient  Atom+Function  
  ----- ------------  ---------------      ----- ------------  ---------------
     5      3.771685   1 O  s                72      3.048697   3 C  py        
    36     -2.378926   2 C  s                66     -2.076963   3 C  s         
   138     -1.752388   7 H  s                12      1.451082   1 O  px        
    41      1.303856   2 C  py               43      1.194293   2 C  px        
    42      1.092956   2 C  pz               97      1.040053   4 C  s         
 
 Vector   78  Occ=0.000000D+00  E= 1.790699D+00
              MO Center=  3.9D-01,  2.7D-01, -1.6D-03, r^2= 3.5D+00
   Bfn.  Coefficient  Atom+Function         Bfn.  Coefficient  Atom+Function  
  ----- ------------  ---------------      ----- ------------  ---------------
    35      3.104000   2 C  s                97     -2.794532   4 C  s         
    36      1.842079   2 C  s                45     -1.296747   2 C  pz        
   104     -1.156871   4 C  pz               42     -1.086504   2 C  pz        
    67     -1.086744   3 C  s                72      0.977399   3 C  py        
   102      0.962661   4 C  px              103     -0.948253   4 C  py        
 
 Vector   79  Occ=0.000000D+00  E= 1.816895D+00
              MO Center= -6.1D-01,  1.8D-01,  1.9D-01, r^2= 2.6D+00
   Bfn.  Coefficient  Atom+Function         Bfn.  Coefficient  Atom+Function  
  ----- ------------  ---------------      ----- ------------  ---------------
    35      4.003062   2 C  s                 5     -3.230757   1 O  s         
    40     -2.429854   2 C  px               41      2.080066   2 C  py        
    72      1.987376   3 C  py               66     -1.772121   3 C  s         
    71     -1.624101   3 C  px               12     -1.359359   1 O  px        
   132     -1.055437   6 H  s               138     -1.052487   7 H  s         
 
 Vector   80  Occ=0.000000D+00  E= 1.839300D+00
              MO Center=  1.1D-01,  2.4D-01, -7.9D-02, r^2= 3.7D+00
   Bfn.  Coefficient  Atom+Function         Bfn.  Coefficient  Atom+Function  
  ----- ------------  ---------------      ----- ------------  ---------------
    35      1.925500   2 C  s                36     -1.057956   2 C  s         
   156     -0.968259  10 H  s               104     -0.884483   4 C  pz        
    97     -0.814807   4 C  s                71     -0.734409   3 C  px        
   157      0.669244  10 H  s               126     -0.665448   5 H  s         
    41     -0.659526   2 C  py              150      0.635570   9 H  s         
 
 Vector   81  Occ=0.000000D+00  E= 1.868464D+00
              MO Center=  5.1D-01,  1.8D-01, -4.3D-01, r^2= 4.0D+00
   Bfn.  Coefficient  Atom+Function         Bfn.  Coefficient  Atom+Function  
  ----- ------------  ---------------      ----- ------------  ---------------
    35      6.637588   2 C  s                66     -4.362358   3 C  s         
    72      3.474689   3 C  py               97     -3.365138   4 C  s         
    36      2.139709   2 C  s               104     -1.896393   4 C  pz        
    34     -1.658176   2 C  s                67     -1.548038   3 C  s         
    41      1.501380   2 C  py               45     -1.352684   2 C  pz        
 
 Vector   82  Occ=0.000000D+00  E= 1.921605D+00
              MO Center=  3.1D-01, -1.5D-01, -3.0D-01, r^2= 3.2D+00
   Bfn.  Coefficient  Atom+Function         Bfn.  Coefficient  Atom+Function  
  ----- ------------  ---------------      ----- ------------  ---------------
    36      1.551968   2 C  s                98     -1.433372   4 C  s         
    45     -1.269674   2 C  pz              103     -1.220061   4 C  py        
    97     -1.139575   4 C  s                35      0.955212   2 C  s         
    66     -0.832565   3 C  s                42     -0.777540   2 C  pz        
   150     -0.773086   9 H  s                41      0.740308   2 C  py        
 
 Vector   83  Occ=0.000000D+00  E= 1.991947D+00
              MO Center=  4.3D-01,  2.6D-02, -2.4D-01, r^2= 3.2D+00
   Bfn.  Coefficient  Atom+Function         Bfn.  Coefficient  Atom+Function  
  ----- ------------  ---------------      ----- ------------  ---------------
    36      2.405465   2 C  s                67     -2.003849   3 C  s         
    40     -1.750438   2 C  px               45     -1.435244   2 C  pz        
     5     -1.234949   1 O  s                66     -1.192682   3 C  s         
    43     -1.106423   2 C  px               44      1.091653   2 C  py        
    71     -1.065560   3 C  px              126      0.994518   5 H  s         
 
 Vector   84  Occ=0.000000D+00  E= 1.993716D+00
              MO Center=  1.0D+00, -3.6D-01, -8.8D-01, r^2= 3.2D+00
   Bfn.  Coefficient  Atom+Function         Bfn.  Coefficient  Atom+Function  
  ----- ------------  ---------------      ----- ------------  ---------------
    98      5.316957   4 C  s                36     -4.023766   2 C  s         
    35      3.888342   2 C  s                66     -2.407808   3 C  s         
    72      1.625249   3 C  py              107      1.559794   4 C  pz        
    40     -1.495104   2 C  px               41      1.493072   2 C  py        
    45      1.423851   2 C  pz               34     -1.291476   2 C  s         
 
 Vector   85  Occ=0.000000D+00  E= 2.087802D+00
              MO Center= -1.5D-01,  2.6D-01,  5.9D-02, r^2= 3.4D+00
   Bfn.  Coefficient  Atom+Function         Bfn.  Coefficient  Atom+Function  
  ----- ------------  ---------------      ----- ------------  ---------------
    36      3.111713   2 C  s                98     -2.031037   4 C  s         
    67     -1.436811   3 C  s                35     -0.918376   2 C  s         
   138     -0.773021   7 H  s               156      0.664772  10 H  s         
    40     -0.651139   2 C  px               13      0.619512   1 O  py        
   139      0.540983   7 H  s               144      0.538371   8 H  s         
 
 Vector   86  Occ=0.000000D+00  E= 2.098924D+00
              MO Center= -3.2D-01,  7.3D-02,  4.2D-02, r^2= 3.0D+00
   Bfn.  Coefficient  Atom+Function         Bfn.  Coefficient  Atom+Function  
  ----- ------------  ---------------      ----- ------------  ---------------
    67     -5.448345   3 C  s                36      5.282228   2 C  s         
    66      3.199783   3 C  s                35     -3.123243   2 C  s         
    41     -3.050171   2 C  py               71      2.672243   3 C  px        
    13      1.778070   1 O  py               82     -1.415100   3 C  d -2      
    75      1.330874   3 C  py               43     -1.316490   2 C  px        
 
 Vector   87  Occ=0.000000D+00  E= 2.166203D+00
              MO Center=  5.1D-01, -1.9D-02, -5.0D-01, r^2= 3.2D+00
   Bfn.  Coefficient  Atom+Function         Bfn.  Coefficient  Atom+Function  
  ----- ------------  ---------------      ----- ------------  ---------------
    98      2.257842   4 C  s                67     -1.680266   3 C  s         
    35     -1.155647   2 C  s                73      1.009158   3 C  pz        
    40      0.884888   2 C  px               42     -0.875046   2 C  pz        
   156     -0.846044  10 H  s                43     -0.801873   2 C  px        
    44      0.805076   2 C  py               45      0.756056   2 C  pz        
 
 Vector   88  Occ=0.000000D+00  E= 2.202096D+00
              MO Center=  4.2D-01,  1.5D-01, -2.7D-01, r^2= 3.6D+00
   Bfn.  Coefficient  Atom+Function         Bfn.  Coefficient  Atom+Function  
  ----- ------------  ---------------      ----- ------------  ---------------
    98      2.459006   4 C  s                36     -2.171370   2 C  s         
    45      1.192695   2 C  pz               76     -1.044761   3 C  pz        
    67      0.812085   3 C  s               132      0.760129   6 H  s         
   117     -0.692545   4 C  d  2             55      0.582623   2 C  d  2      
    71      0.583375   3 C  px              103     -0.549646   4 C  py        
 
 Vector   89  Occ=0.000000D+00  E= 2.226116D+00
              MO Center=  7.0D-01, -6.4D-02, -1.8D-01, r^2= 3.5D+00
   Bfn.  Coefficient  Atom+Function         Bfn.  Coefficient  Atom+Function  
  ----- ------------  ---------------      ----- ------------  ---------------
    36      3.056929   2 C  s                67     -1.714464   3 C  s         
    42     -1.161682   2 C  pz                5     -1.078855   1 O  s         
    98     -1.027016   4 C  s                72     -0.954396   3 C  py        
    66      0.845844   3 C  s                35     -0.741420   2 C  s         
    97     -0.725339   4 C  s                43     -0.714133   2 C  px        
 
 Vector   90  Occ=0.000000D+00  E= 2.245618D+00
              MO Center=  7.6D-01, -2.5D-01, -7.8D-01, r^2= 3.6D+00
   Bfn.  Coefficient  Atom+Function         Bfn.  Coefficient  Atom+Function  
  ----- ------------  ---------------      ----- ------------  ---------------
   150      1.333726   9 H  s                36      1.206638   2 C  s         
   144     -0.947248   8 H  s                66     -0.897176   3 C  s         
    98     -0.891657   4 C  s                72      0.802315   3 C  py        
    67     -0.792461   3 C  s               117      0.775629   4 C  d  2      
   138      0.513193   7 H  s               149     -0.504658   9 H  s         
 
 Vector   91  Occ=0.000000D+00  E= 2.266941D+00
              MO Center=  1.0D+00, -3.5D-01, -1.1D+00, r^2= 2.9D+00
   Bfn.  Coefficient  Atom+Function         Bfn.  Coefficient  Atom+Function  
  ----- ------------  ---------------      ----- ------------  ---------------
    66      2.796056   3 C  s                41     -1.740933   2 C  py        
    35     -1.344470   2 C  s                36      1.347996   2 C  s         
    72     -1.339845   3 C  py               67     -1.228442   3 C  s         
    71      1.041868   3 C  px              126     -1.043934   5 H  s         
   156      1.043036  10 H  s                40      0.713083   2 C  px        
 
 Vector   92  Occ=0.000000D+00  E= 2.284165D+00
              MO Center=  4.4D-01,  2.2D-01, -1.9D-01, r^2= 3.5D+00
   Bfn.  Coefficient  Atom+Function         Bfn.  Coefficient  Atom+Function  
  ----- ------------  ---------------      ----- ------------  ---------------
    98      3.768905   4 C  s                36     -2.582123   2 C  s         
[...]
    36      0.872039   2 C  s                42     -0.817083   2 C  pz        
    97     -0.706355   4 C  s                45     -0.668501   2 C  pz        
    83     -0.507252   3 C  d -1              5     -0.503422   1 O  s         
    98     -0.503337   4 C  s               102      0.491130   4 C  px        
 
 Vector  154  Occ=0.000000D+00  E= 6.675752D+00
              MO Center= -8.7D-01, -1.8D-01,  2.0D-01, r^2= 5.7D-01
   Bfn.  Coefficient  Atom+Function         Bfn.  Coefficient  Atom+Function  
  ----- ------------  ---------------      ----- ------------  ---------------
    18      1.063780   1 O  d  1             23     -1.036710   1 O  d  1      
    97     -0.861049   4 C  s                42     -0.793777   2 C  pz        
    35      0.765738   2 C  s               102      0.643513   4 C  px        
    54     -0.543785   2 C  d  1             14      0.403312   1 O  pz        
    16     -0.390489   1 O  d -1             11      0.387278   1 O  pz        
 
 Vector  155  Occ=0.000000D+00  E= 6.841977D+00
              MO Center= -8.8D-01, -1.9D-01,  2.0D-01, r^2= 5.9D-01
   Bfn.  Coefficient  Atom+Function         Bfn.  Coefficient  Atom+Function  
  ----- ------------  ---------------      ----- ------------  ---------------
     5      2.119241   1 O  s                40      1.796370   2 C  px        
     9      1.363276   1 O  px               97     -1.313538   4 C  s         
     4      1.203202   1 O  s                20      1.051654   1 O  d -2      
    42     -0.994732   2 C  pz               35     -0.855447   2 C  s         
    12      0.847689   1 O  px               15     -0.837155   1 O  d -2      
 
 Vector  156  Occ=0.000000D+00  E= 7.055658D+00
              MO Center= -8.9D-01, -1.9D-01,  2.1D-01, r^2= 6.4D-01
   Bfn.  Coefficient  Atom+Function         Bfn.  Coefficient  Atom+Function  
  ----- ------------  ---------------      ----- ------------  ---------------
    66     -3.167220   3 C  s                35      3.023755   2 C  s         
    40     -2.724980   2 C  px               72      2.706884   3 C  py        
    24     -1.581697   1 O  d  2             36      1.386336   2 C  s         
    10      1.286518   1 O  py               67     -1.253211   3 C  s         
    19      1.018780   1 O  d  2             13      0.859972   1 O  py        
 
 Vector  157  Occ=0.000000D+00  E= 2.193820D+01
              MO Center=  4.0D-02,  8.2D-01,  8.9D-02, r^2= 1.1D+00
   Bfn.  Coefficient  Atom+Function         Bfn.  Coefficient  Atom+Function  
  ----- ------------  ---------------      ----- ------------  ---------------
    64      1.608746   3 C  s                65     -1.371299   3 C  s         
    67     -1.284739   3 C  s                63     -1.268055   3 C  s         
    98      1.004803   4 C  s                95     -0.706687   4 C  s         
    96      0.569595   4 C  s                94      0.559170   4 C  s         
    40     -0.481193   2 C  px               35      0.426819   2 C  s         
 
 Vector  158  Occ=0.000000D+00  E= 2.198447D+01
              MO Center=  9.1D-01, -2.8D-01, -7.5D-01, r^2= 1.1D+00
   Bfn.  Coefficient  Atom+Function         Bfn.  Coefficient  Atom+Function  
  ----- ------------  ---------------      ----- ------------  ---------------
    95      1.447034   4 C  s                96     -1.335110   4 C  s         
    98     -1.183605   4 C  s                94     -1.138309   4 C  s         
    34     -0.956944   2 C  s                36     -0.885887   2 C  s         
    33      0.864776   2 C  s                32     -0.675511   2 C  s         
    65     -0.609592   3 C  s                67      0.592351   3 C  s         
 
 Vector  159  Occ=0.000000D+00  E= 2.210795D+01
              MO Center=  6.3D-01, -1.3D-01, -8.8D-02, r^2= 6.8D-01
   Bfn.  Coefficient  Atom+Function         Bfn.  Coefficient  Atom+Function  
  ----- ------------  ---------------      ----- ------------  ---------------
    36      2.234875   2 C  s                33     -1.549715   2 C  s         
    34      1.543145   2 C  s                35     -1.361469   2 C  s         
    98     -1.346927   4 C  s                32      1.213167   2 C  s         
    67     -1.140380   3 C  s                95      0.732318   4 C  s         
    97      0.666805   4 C  s                96     -0.653082   4 C  s         
 
 Vector  160  Occ=0.000000D+00  E= 4.341316D+01
              MO Center= -8.8D-01, -1.8D-01,  2.1D-01, r^2= 1.2D-01
   Bfn.  Coefficient  Atom+Function         Bfn.  Coefficient  Atom+Function  
  ----- ------------  ---------------      ----- ------------  ---------------
     4      2.502194   1 O  s                 3     -1.873409   1 O  s         
     2      1.731456   1 O  s                 1     -1.395829   1 O  s         
     5     -0.874602   1 O  s                36      0.833307   2 C  s         
     9      0.558789   1 O  px               66     -0.505592   3 C  s         
    72      0.460777   3 C  py               40      0.458350   2 C  px        
 

 center of mass
 --------------
 x =   0.30619352 y =   0.09486531 z =  -0.27792445

 moments of inertia (a.u.)
 ------------------
         199.989487919820          45.588292852095          83.918997762321
          45.588292852095         247.470970250137         -52.635019781341
          83.918997762321         -52.635019781341         239.143864985262
 
     Multipole analysis of the density
     ---------------------------------
 
     L   x y z        total         alpha         beta         nuclear
     -   - - -        -----         -----         ----         -------
     0   0 0 0     -0.000000    -16.000000    -16.000000     32.000000
 
     1   1 0 0      0.693023     -6.225408     -6.225408     13.143840
     1   0 1 0      0.326511     -1.621639     -1.621639      3.569789
     1   0 0 1     -0.060748      5.321787      5.321787    -10.704323
 
     2   2 0 0    -20.046957    -54.283982    -54.283982     88.521007
     2   1 1 0     -1.090744     13.846431     13.846431    -28.783606
     2   1 0 1      0.120797     26.520701     26.520701    -52.920605
     2   0 2 0    -17.794522    -40.577228    -40.577228     63.359934
     2   0 1 1      0.256962    -15.379243    -15.379243     31.015447
     2   0 0 2    -18.222046    -45.634132    -45.634132     73.046218
 
 *** CALLING NEW AORESP DRIVER FOR CLOSED AND OPEN SHELLS ***
 Entering AOResponse driver routine


--------------------------------------------------------------------------------

          ****************
          *** RESPONSE ***
          ****************

 Response module for NWChem and dynamic CPKS solver
 developed by J. Autschbach and coworkers, SUNY Buffalo
 The methodology used in this program is described in 
 ChemPhysChem 12 (2011), 3224-3235 (main reference)
 J. Chem. Phys. 123 (2005), 114103
 J. Chem. Phys. 122 (2005), 224115
 J. Chem. Phys. 122 (2005), 074105
 Comp. Lett. 3 (2007), 131-150 (contact JA for a copy)
 Please cite this work in publications based on results
 obtained with this code. Thank you!

 For extension of response module to open shell
 calculations please acknowledge:
 F. Aquino, Northwestern University, Schatz Rsrch Group
 The update to the methodology is described in
 J. Phys. Chem. A 118 (2014) 517-525



          -----------------------------------------------
          Solving response equations for perturbing field
          -----------------------------------------------

 number of frequencies:     1
 frequency in a.u.:  0.9319600E-01
 Perturbing field: electric
 Using GIAO formalism for OptRot
 Adding quadrupole terms to OptRot
 to create an origin in dependent tensor.
 Using El. Dipole Length Gauge
 
 Applying DAMPING constant of  0.003700 a.u.
 
 Setting up CPKS
 with frequency omega =      0.09319600 a.u.
 and a damping of            0.00370000 a.u.

 
                            NWChem Dynamic CPHF Module
                            --------------------------
 
 
    scftype = RHF 
    nclosed =   16
      nopen =    0
  variables =     9216
  num. vecs =        3
  tolerance =   1.0D-07
  max. iter =  100

 SCF residual:   4.898766820715553E-006


Iterative solution of linear equations
  No. of variables     4608
  No. of equations        3
  Maximum subspace       99
       Convergence  1.0D-07
        Start time     86.4


   iter   nsub   residual    time 
   ----  ------  --------  --------- 
 dft_CPHF2_read: failed to open
 ./methyloxirane_blyp-def2-tzvp_488.9_11.inp.aoresp_fiao_f1
     1      3    3.76D+00     130.5
     2      6    2.65D+00     174.7
     3      9    2.44D-01     219.0
     4     12    5.30D-02     263.4
     5     15    1.05D-02     307.7
     6     18    1.28D-03     352.0
     7     21    1.43D-04     396.4
     8     24    1.32D-05     440.7
     9     27    1.27D-06     485.1
    10     30    4.75D-07     531.7
    11     33    1.81D-08     576.0

 Calculating some arrays needed for GIAO optical rotation

    0 giaofock schwarz done =      92.56%
    0 giaofock schwarz done =      92.56%
 aor_r1_tensor_giao: roadata output requested
 dip-quad polarizability Re:

              1        2        3        4        5        6      
    1   77.0405  -6.1899 -27.7583  -4.1749   1.1989   9.1045
    2  -11.8637  25.7748   3.4539  23.9427 -21.8026   3.8882
    3   -6.7563   1.0134  39.1245  -0.3733  13.9743 -40.7630
 traceless dip-quad polarizability:

              1        2        3      
    1   74.5757  -9.2848 -41.6374
    2   -9.2848 -47.2474   1.7984
    3  -41.6374   1.7984 -27.3283

              1        2        3      
    1  -25.7792  38.6621   5.1808
    2   38.6621  27.9305 -32.7039
    3    5.1808 -32.7039  -2.1513

              1        2        3      
    1   13.8119   1.5201  58.6867
    2    1.5201  23.3863  20.9614
    3   58.6867  20.9614 -37.1982

 roa begin

 alpha real:
 XX       0.4097630871621E+02
 XY      -0.5168379053739E+01
 XZ      -0.3122248381470E+01
 YX      -0.5168379062180E+01
 YY       0.4411608613961E+02
 YZ       0.3135399560932E+01
 ZX      -0.3122248389121E+01
 ZY       0.3135399560523E+01
 ZZ       0.4143561288903E+02

 alpha im:
 XX       0.1108861505303E+00
 XY      -0.3003740507190E-01
 XZ      -0.1149102405681E-01
 YX      -0.3003739903866E-01
 YY       0.1292887087801E+00
 YZ       0.1807111821521E-01
 ZX      -0.1149102036523E-01
 ZY       0.1807111950077E-01
 ZZ       0.1225765012215E+00

 beta real:
 XX      -0.1314282089843E+00
 XY       0.9413174233792E+00
 XZ       0.2128850315661E+00
 YX      -0.8818784554416E+00
 YY       0.1406530006477E+00
 YZ      -0.1536692161011E+01
 ZX      -0.4936218852254E+00
 ZY       0.1861776340009E+01
 ZZ      -0.1049431209643E-01

 G-prime = -omega beta(real):
 XX      -0.1314282089843E+00
 XY       0.9413174233792E+00
 XZ       0.2128850315661E+00
 YX      -0.8818784554416E+00
 YY       0.1406530006477E+00
 YZ      -0.1536692161011E+01
 ZX      -0.4936218852254E+00
 ZY       0.1861776340009E+01
 ZZ      -0.1049431209643E-01

 beta im:
 XX      -0.5805689934337E-02
 XY       0.1340003965074E-01
 XZ       0.3001465237867E-02
 YX      -0.7442286270654E-02
 YY       0.4618680503622E-02
 YZ      -0.2328035084986E-01
 ZX      -0.1390534103623E-01
 ZY       0.3979360995421E-01
 ZZ       0.4074282472374E-03

 G-prime = -omega beta(imag):
 XX      -0.5805689934337E-02
 XY       0.1340003965074E-01
 XZ       0.3001465237867E-02
 YX      -0.7442286270654E-02
 YY       0.4618680503622E-02
 YZ      -0.2328035084986E-01
 ZX      -0.1390534103623E-01
 ZY       0.3979360995421E-01
 ZZ       0.4074282472374E-03

 dipole-quadrupole real (Cartesian):
 XXX      0.7704051734623E+02
 XXY     -0.6189858637282E+01
 XXZ     -0.2775826381511E+02
 XYY     -0.4174865998982E+01
 XYZ      0.1198907973375E+01
 XZZ      0.9104492883660E+01
 YXX     -0.1186373663525E+02
 YXY      0.2577475331380E+02
 YXZ      0.3453880949898E+01
 YYY      0.2394274800304E+02
 YYZ     -0.2180259768841E+02
 YZZ      0.3888216691973E+01
 ZXX     -0.6756250270400E+01
 ZXY      0.1013400407831E+01
 ZXZ      0.3912448220601E+02
 ZYY     -0.3733414214588E+00
 ZYZ      0.1397429324741E+02
 ZZZ     -0.4076298207530E+02

 dipole-quadrupole imag (Cartesian):
 XXX      0.2687628839470E+00
 XXY     -0.3449259151327E-01
 XXZ     -0.7743185715443E-01
 XYY     -0.2802325180492E-01
 XYZ      0.2331531367013E-02
 XZZ      0.6007829630695E-01
 YXX     -0.5702812345694E-01
 YXY      0.6244851905410E-01
 YXZ      0.1968314997967E-01
 YYY      0.9504180735157E-01
 YYZ     -0.6209209765518E-01
 YZZ      0.8850940392029E-02
 ZXX     -0.3426927977270E-01
 ZXY     -0.5240122607685E-03
 ZXZ      0.1442713756252E+00
 ZYY      0.4102546988569E-02
 ZYZ      0.6649742929909E-01
 ZZZ     -0.9528899315706E-01

 dipole-quadrupole (traceless):
 XXX      0.7457570390389E+02
 XXY     -0.9284787955923E+01
 XXZ     -0.4163739572266E+02
 XYY     -0.4724737111393E+02
 XYZ      0.1798361960062E+01
 XZZ     -0.2732833278996E+02
 YXX     -0.2577921898276E+02
 YXY      0.3866212997071E+02
 YXZ      0.5180821424847E+01
 YYY      0.2793050797468E+02
 YYZ     -0.3270389653261E+02
 YZZ     -0.2151288991920E+01
 ZXX      0.1381191147798E+02
 ZXY      0.1520100611747E+01
 ZXZ      0.5868672330902E+02
 ZYY      0.2338627475139E+02
 ZYZ      0.2096143987112E+02
 ZZZ     -0.3719818622937E+02

 roa end


 Electric Dipole Response Matrix (nonzero elements):

              1        2        3      
    1   40.9763  -5.1684  -3.1222
    2   -5.1684  44.1161   3.1354
    3   -3.1222   3.1354  41.4356
 
 Imaginary part:

              1        2        3      
    1    0.1109  -0.0300  -0.0115
    2   -0.0300   0.1293   0.0181
    3   -0.0115   0.0181   0.1226

 ------------------------------------------
 average:        42.17600 + I       0.12092


 DFT Linear Response polarizability / au 
 Frequency  =       0.0931960 / au
 Wavelength =     488.8981609 / nm
              X              Y              Z
 -----------------------------------------------
 X      40.9763087     -5.1683791     -3.1222484
 Y      -5.1683791     44.1160861      3.1353996
 Z      -3.1222484      3.1353996     41.4356129
 -----------------------------------------------
 Eigenvalues =      36.9921866     50.1542850     39.3815361
 Isotropic   =      42.1760026
 Anisotropic =       9.9163492
 -----------------------------------------------
 *************************

 DFT Linear Response IMAG polarizability / au 
 Frequency  =       0.0931960 / au
 Wavelength =     488.8981609 / nm
              X              Y              Z
 -----------------------------------------------
 X       0.1108862     -0.0300374     -0.0114910
 Y      -0.0300374      0.1292887      0.0180711
 Z      -0.0114910      0.0180711      0.1225765
 -----------------------------------------------
 Eigenvalues =       0.0885875      0.1628439      0.1113200
 Isotropic   =       0.1209171
 Anisotropic =       0.0538068
 -----------------------------------------------
 *************************

 Magnetic Dipole Response Matrix (nonzero elements):
 Optical rotation tensor Beta
 (Buckingham-Dunn version including dipole-quadrupole terms)

              1        2        3      
    1    2.6305  -0.4257   0.4031
    2   -0.4257  -1.6020  -1.7265
    3    0.4031  -1.7265  -1.0149
 
 Imaginary part:

              1        2        3      
    1    0.0623  -0.1438  -0.0322
    2    0.0799  -0.0496   0.2498
    3    0.1492  -0.4270  -0.0044

 ------------------------------------------
 average:         0.00454 + I       0.00279

 Principal components and PAS (Real part)
                 -3.06046
                  2.77666
                  0.29742
 ------------------------
 average:         0.00454

              1        2        3      
    1    0.0117   0.9702  -0.2422
    2    0.7653  -0.1645  -0.6223
    3    0.6436   0.1781   0.7444

 Chiral response tensor (Real part):

              1        2        3      
    1   -1.3084   0.2129  -0.2016
    2    0.2129   0.8078   0.8632
    3   -0.2016   0.8632   0.5143
 
 Principal components and PAS (Real part)
                  1.53704
                 -1.38152
                 -0.14190
 ------------------------
 average:         0.00454

              1        2        3      
    1    0.0117   0.9702  -0.2422
    2    0.7653  -0.1645  -0.6223
    3    0.6436   0.1781   0.7444
 Exiting AOResponse driver routine

 Task  times  cpu:      554.3s     wall:      569.4s
 
 
                                NWChem Input Module
                                -------------------
 
 
 Summary of allocated global arrays
-----------------------------------
  No active global arrays



                         GA Statistics for process    0
                         ------------------------------

       create   destroy   get      put      acc     scatter   gather  read&inc
calls: 3294     3294     7.56e+06 3.14e+06 7.21e+05 2694        0     1092     
number of processes/call 1.01e+00 1.03e+00 1.42e+00 0.00e+00 0.00e+00
bytes total:             1.68e+09 1.26e+08 1.72e+09 1.84e+02 0.00e+00 8.74e+03
bytes remote:            7.13e+08 3.29e+07 9.78e+08 0.00e+00 0.00e+00 0.00e+00
Max memory consumed for GA by this process: 11242192 bytes
 
MA_summarize_allocated_blocks: starting scan ...
MA_summarize_allocated_blocks: scan completed: 0 heap blocks, 0 stack blocks
MA usage statistics:

	allocation statistics:
					      heap	     stack
					      ----	     -----
	current number of blocks	         0	         0
	maximum number of blocks	        24	        52
	current total bytes		         0	         0
	maximum total bytes		   7519824	  47917704
	maximum total K-bytes		      7520	     47918
	maximum total M-bytes		         8	        48
 
 
                                     CITATION
                                     --------
                Please cite the following reference when publishing
                           results obtained with NWChem:
 
                 M. Valiev, E.J. Bylaska, N. Govind, K. Kowalski,
              T.P. Straatsma, H.J.J. van Dam, D. Wang, J. Nieplocha,
                        E. Apra, T.L. Windus, W.A. de Jong
                 "NWChem: a comprehensive and scalable open-source
                  solution for large scale molecular simulations"
                      Comput. Phys. Commun. 181, 1477 (2010)
                           doi:10.1016/j.cpc.2010.04.018
 
                                      AUTHORS
                                      -------
          E. Apra, E. J. Bylaska, W. A. de Jong, N. Govind, K. Kowalski,
       T. P. Straatsma, M. Valiev, H. J. J. van Dam, D. Wang, T. L. Windus,
        J. Hammond, J. Autschbach, K. Bhaskaran-Nair, J. Brabec, K. Lopata,
    S. A. Fischer, S. Krishnamoorthy, M. Jacquelin, W. Ma, M. Klemm, O. Villa,
      Y. Chen, V. Anisimov, F. Aquino, S. Hirata, M. T. Hackler, V. Konjkov,
            D. Mejia-Rodriguez, T. Risthaus, M. Malagoli, A. Marenich,
   A. Otero-de-la-Roza, J. Mullin, P. Nichols, R. Peverati, J. Pittner, Y. Zhao,
        P.-D. Fan, A. Fonari, M. J. Williamson, R. J. Harrison, J. R. Rehr,
      M. Dupuis, D. Silverstein, D. M. A. Smith, J. Nieplocha, V. Tipparaju,
    M. Krishnan, B. E. Van Kuiken, A. Vazquez-Mayagoitia, L. Jensen, M. Swart,
      Q. Wu, T. Van Voorhis, A. A. Auer, M. Nooijen, L. D. Crosby, E. Brown,
      G. Cisneros, G. I. Fann, H. Fruchtl, J. Garza, K. Hirao, R. A. Kendall,
      J. A. Nichols, K. Tsemekhman, K. Wolinski, J. Anchell, D. E. Bernholdt,
      P. Borowski, T. Clark, D. Clerc, H. Dachsel, M. J. O. Deegan, K. Dyall,
    D. Elwood, E. Glendening, M. Gutowski, A. C. Hess, J. Jaffe, B. G. Johnson,
     J. Ju, R. Kobayashi, R. Kutteh, Z. Lin, R. Littlefield, X. Long, B. Meng,
      T. Nakajima, S. Niu, L. Pollack, M. Rosing, K. Glaesemann, G. Sandrone,
      M. Stave, H. Taylor, G. Thomas, J. H. van Lenthe, A. T. Wong, Z. Zhang.

 Total times  cpu:      621.7s     wall:      638.3s
