 argument  1 = methyloxirane_blyp-def2-tzvp_488.9_05.inp
 


============================== echo of input deck ==============================
echo
start methyloxirane_blyp-def2-tzvp_488.9_05.inp
title "methyloxirane roa calculations at 488.9 nm, input generated in va  with delta_type=2"
charge 0



geometry units angstrom nocenter noautoz noautosym nucleus point;symmetry c1
 O -0.872300 -0.177717  0.205916
 C  0.570605 -0.163141  0.124492
 C -0.190389  1.092876  0.341918
 C  1.186520 -0.522972 -1.214779
 H  1.053906 -0.612913  0.999217
 H -0.247835  1.545601  1.335362
 H -0.328148  1.782116 -0.495930
 H  2.241185 -0.213092 -1.245171
 H  1.148489 -1.607636 -1.386314
 H  0.653113 -0.025735 -2.034513
end

basis spherical
* library def2-TZVP
end

 set prop:newaoresp 1
 set aor:roadata T
 set cphf:maxsub 100
 set cphf:acc 1.0d-10
 set cphf:maxiter 100

property
    response 1   0.093196
    bdtensor
    convergence 1e-7
    damping 0.0037
    giao
end

dft
 direct
 mult 1
 xc becke88 lyp
 iterations 250
 tolerances tight
 grid xfine
 convergence nolevelshifting
 convergence energy 1e-8
 convergence gradient 1e-7


end

task dft gradient
task dft property
================================================================================


                                         
                                         
 
 
              Northwest Computational Chemistry Package (NWChem) 6.8
              ------------------------------------------------------
 
 
                    Environmental Molecular Sciences Laboratory
                       Pacific Northwest National Laboratory
                                Richland, WA 99352
 
                              Copyright (c) 1994-2017
                       Pacific Northwest National Laboratory
                            Battelle Memorial Institute
 
             NWChem is an open-source computational chemistry package
                        distributed under the terms of the
                      Educational Community License (ECL) 2.0
             A copy of the license is included with this distribution
                              in the LICENSE.TXT file
 
                                  ACKNOWLEDGMENT
                                  --------------

            This software and its documentation were developed at the
            EMSL at Pacific Northwest National Laboratory, a multiprogram
            national laboratory, operated for the U.S. Department of Energy
            by Battelle under Contract Number DE-AC05-76RL01830. Support
            for this work was provided by the Department of Energy Office
            of Biological and Environmental Research, Office of Basic
            Energy Sciences, and the Office of Advanced Scientific Computing.


           Job information
           ---------------

    hostname        = cpn-f15-33.cbls.ccr.buffalo.edu
    program         = /util/academic/nwchem/nwchem-6.8/bin/LINUX64/nwchem
    date            = Fri Mar  1 09:54:10 2019

    compiled        = Tue_Nov_06_14:59:08_2018
    source          = /util/academic/nwchem/nwchem-6.8
    nwchem branch   = 6.8
    nwchem revision = v6.8-47-gdf6c956
    ga revision     = ga-5.6.3
    use scalapack   = F
    input           = methyloxirane_blyp-def2-tzvp_488.9_05.inp
    prefix          = methyloxirane_blyp-def2-tzvp_488.9_05.inp.
    data base       = ./methyloxirane_blyp-def2-tzvp_488.9_05.inp.db
    status          = startup
    nproc           =        7
    time left       =     -1s



           Memory information
           ------------------

    heap     =   13107198 doubles =    100.0 Mbytes
    stack    =   13107195 doubles =    100.0 Mbytes
    global   =   26214400 doubles =    200.0 Mbytes (distinct from heap & stack)
    total    =   52428793 doubles =    400.0 Mbytes
    verify   = yes
    hardfail = no 


           Directory information
           ---------------------
 
  0 permanent = .
  0 scratch   = .
 
 
 
 
                                NWChem Input Module
                                -------------------
 
 
                    methyloxirane roa calculations at 488.9 nm, input generated in va  with delta_type=2
                    ------------------------------------------

 Scaling coordinates for geometry "geometry" by  1.889725989
 (inverse scale =  0.529177249)

 
 
                             Geometry "geometry" -> ""
                             -------------------------
 
 Output coordinates in angstroms (scale by  1.889725989 to convert to a.u.)
 
  No.       Tag          Charge          X              Y              Z
 ---- ---------------- ---------- -------------- -------------- --------------
    1 O                    8.0000    -0.87230000    -0.17771700     0.20591600
    2 C                    6.0000     0.57060500    -0.16314100     0.12449200
    3 C                    6.0000    -0.19038900     1.09287600     0.34191800
    4 C                    6.0000     1.18652000    -0.52297200    -1.21477900
    5 H                    1.0000     1.05390600    -0.61291300     0.99921700
    6 H                    1.0000    -0.24783500     1.54560100     1.33536200
    7 H                    1.0000    -0.32814800     1.78211600    -0.49593000
    8 H                    1.0000     2.24118500    -0.21309200    -1.24517100
    9 H                    1.0000     1.14848900    -1.60763600    -1.38631400
   10 H                    1.0000     0.65311300    -0.02573500    -2.03451300
 
      Atomic Mass 
      ----------- 
 
      O                 15.994910
      C                 12.000000
      H                  1.007825
 

 Effective nuclear repulsion energy (a.u.)     123.5160928300

            Nuclear Dipole moment (a.u.) 
            ----------------------------
        X                 Y               Z
 ---------------- ---------------- ----------------
    13.1198497538     3.5662587603   -10.7151904409
 
 
            XYZ format geometry
            -------------------
    10
 geometry
 O                    -0.87230000    -0.17771700     0.20591600
 C                     0.57060500    -0.16314100     0.12449200
 C                    -0.19038900     1.09287600     0.34191800
 C                     1.18652000    -0.52297200    -1.21477900
 H                     1.05390600    -0.61291300     0.99921700
 H                    -0.24783500     1.54560100     1.33536200
 H                    -0.32814800     1.78211600    -0.49593000
 H                     2.24118500    -0.21309200    -1.24517100
 H                     1.14848900    -1.60763600    -1.38631400
 H                     0.65311300    -0.02573500    -2.03451300
 
 ==============================================================================
                                internuclear distances
 ------------------------------------------------------------------------------
       center one      |      center two      | atomic units |  angstroms
 ------------------------------------------------------------------------------
    2 C                |   1 O                |     2.73117  |     1.44527
    3 C                |   1 O                |     2.73711  |     1.44841
    3 C                |   2 C                |     2.80544  |     1.48458
    4 C                |   2 C                |     2.86745  |     1.51739
    5 H                |   2 C                |     2.07097  |     1.09591
    6 H                |   3 C                |     2.06594  |     1.09325
    7 H                |   3 C                |     2.06665  |     1.09363
    8 H                |   4 C                |     2.07807  |     1.09967
    9 H                |   4 C                |     2.07644  |     1.09880
   10 H                |   4 C                |     2.07331  |     1.09715
 ------------------------------------------------------------------------------
                         number of included internuclear distances:         10
 ==============================================================================



 ==============================================================================
                                 internuclear angles
 ------------------------------------------------------------------------------
        center 1       |       center 2       |       center 3       |  degrees
 ------------------------------------------------------------------------------
    2 C                |   1 O                |   3 C                |    61.73
    2 C                |   1 O                |   3 C                |    61.73
    1 O                |   2 C                |   4 C                |   116.91
    1 O                |   2 C                |   5 H                |   113.03
    3 C                |   2 C                |   4 C                |   122.54
    3 C                |   2 C                |   5 H                |   117.15
    4 C                |   2 C                |   5 H                |   115.35
    3 C                |   1 O                |   2 C                |    61.73
    1 O                |   3 C                |   6 H                |   115.08
    1 O                |   3 C                |   7 H                |   114.94
    2 C                |   3 C                |   6 H                |   120.69
    2 C                |   3 C                |   7 H                |   119.05
    6 H                |   3 C                |   7 H                |   115.38
    2 C                |   4 C                |   8 H                |   110.30
    2 C                |   4 C                |   9 H                |   110.97
    2 C                |   4 C                |  10 H                |   110.77
    8 H                |   4 C                |   9 H                |   107.88
    8 H                |   4 C                |  10 H                |   108.54
    9 H                |   4 C                |  10 H                |   108.30
 ------------------------------------------------------------------------------
                            number of included internuclear angles:         19
 ==============================================================================



  warning:::::::::::::: from_environment
  NWCHEM_BASIS_LIBRARY set to: <
 /util/academic/nwchem/nwchem-6.8/src/basis/libraries>
  but file does not exist !
  using .nwchemrc or compiled library


 Summary of "ao basis" -> "" (spherical)
 ------------------------------------------------------------------------------
       Tag                 Description            Shells   Functions and Types
 ---------------- ------------------------------  ------  ---------------------
 *                         def2-TZVP                  on all atoms 


 
                                 NWChem DFT Module
                                 -----------------
 
 
                    methyloxirane roa calculations at 488.9 nm, input generated in va  with delta_type=2
 
 
                      Basis "ao basis" -> "ao basis" (spherical)
                      -----
  O (Oxygen)
  ----------
            Exponent  Coefficients 
       -------------- ---------------------------------------------------------
  1 S  2.70323826E+04  0.000217
  1 S  4.05238714E+03  0.001684
  1 S  9.22327227E+02  0.008740
  1 S  2.61240710E+02  0.035240
  1 S  8.53546414E+01  0.111535
  1 S  3.10350352E+01  0.255890
 
  2 S  1.22608607E+01  0.397687
  2 S  4.99870760E+00  0.246278
 
  3 S  1.17031082E+00  1.000000
 
  4 S  4.64747410E-01  1.000000
 
  5 S  1.85045364E-01  1.000000
 
  6 P  6.32749548E+01  0.006069
  6 P  1.46270494E+01  0.041913
  6 P  4.45012235E+00  0.161538
  6 P  1.52757996E+00  0.357070
 
  7 P  5.29351179E-01  1.000000
 
  8 P  1.74784213E-01  1.000000
 
  9 D  2.31400000E+00  1.000000
 
 10 D  6.45000000E-01  1.000000
 
 11 F  1.42800000E+00  1.000000
 
  C (Carbon)
  ----------
            Exponent  Coefficients 
       -------------- ---------------------------------------------------------
  1 S  1.35753497E+04  0.000222
  1 S  2.03523337E+03  0.001723
  1 S  4.63225624E+02  0.008926
  1 S  1.31200196E+02  0.035728
  1 S  4.28530159E+01  0.110763
  1 S  1.55841858E+01  0.242956
 
  2 S  6.20671385E+00  0.414403
  2 S  2.57648965E+00  0.237450
 
  3 S  5.76963394E-01  1.000000
 
  4 S  2.29728314E-01  1.000000
 
  5 S  9.51644400E-02  1.000000
 
  6 P  3.46972322E+01  0.005333
  6 P  7.95826228E+00  0.035864
  6 P  2.37808269E+00  0.142159
  6 P  8.14332082E-01  0.342705
 
  7 P  2.88875473E-01  1.000000
 
  8 P  1.00568237E-01  1.000000
 
  9 D  1.09700000E+00  1.000000
 
 10 D  3.18000000E-01  1.000000
 
 11 F  7.61000000E-01  1.000000
 
  H (Hydrogen)
  ------------
            Exponent  Coefficients 
       -------------- ---------------------------------------------------------
  1 S  3.40613410E+01  0.006025
  1 S  5.12357460E+00  0.045021
  1 S  1.16466260E+00  0.201897
 
  2 S  3.27230410E-01  1.000000
 
  3 S  1.03072410E-01  1.000000
 
  4 P  8.00000000E-01  1.000000
 


 Summary of "ao basis" -> "ao basis" (spherical)
 ------------------------------------------------------------------------------
       Tag                 Description            Shells   Functions and Types
 ---------------- ------------------------------  ------  ---------------------
 O                         def2-TZVP                11       31   5s3p2d1f
 C                         def2-TZVP                11       31   5s3p2d1f
 H                         def2-TZVP                 4        6   3s1p




 Summary of "ao basis" -> "ao basis" (spherical)
 ------------------------------------------------------------------------------
       Tag                 Description            Shells   Functions and Types
 ---------------- ------------------------------  ------  ---------------------
 O                         def2-TZVP                11       31   5s3p2d1f
 C                         def2-TZVP                11       31   5s3p2d1f
 H                         def2-TZVP                 4        6   3s1p


  Caching 1-el integrals 
  itol2e modified to match energy
  convergence criterion.
  tol_rho modified to match energy
  convergence criterion.
 
            General Information
            -------------------
          SCF calculation type: DFT
          Wavefunction type:  closed shell.
          No. of atoms     :    10
          No. of electrons :    32
           Alpha electrons :    16
            Beta electrons :    16
          Charge           :     0
          Spin multiplicity:     1
          Use of symmetry is: off; symmetry adaption is: off
          Maximum number of iterations: 250
          This is a Direct SCF calculation.
          AO basis - number of functions:   160
                     number of shells:    68
          Convergence on energy requested:  1.00D-08
          Convergence on density requested:  1.00D-05
          Convergence on gradient requested:  1.00D-07
 
              XC Information
              --------------
                    Becke 1988 Exchange Functional  1.000          
              Lee-Yang-Parr Correlation Functional  1.000          
 
             Grid Information
             ----------------
          Grid used for XC integration:  xfine     
          Radial quadrature: Mura-Knowles        
          Angular quadrature: Lebedev. 
          Tag              B.-S. Rad. Rad. Pts. Rad. Cut. Ang. Pts.
          ---              ---------- --------- --------- ---------
          O                   0.60      100          11.0      1454
          C                   0.70      100          11.0      1454
          H                   0.35      100          12.0      1202
          Grid pruning is: on 
          Number of quadrature shells:  1000
          Spatial weights used:  Erf1
 
          Convergence Information
          -----------------------
          Convergence aids based upon iterative change in 
          total energy or number of iterations. 
          Levelshifting, if invoked, occurs when the 
          HOMO/LUMO gap drops below (HL_TOL):  1.00D-02
          DIIS, if invoked, will attempt to extrapolate 
          using up to (NFOCK): 10 stored Fock matrices.

                    Damping( 0%)  Levelshifting(0.0)       DIIS
                  --------------- ------------------- ---------------
          dE  on:    start             N/A                start   
          dE off:    2 iters           N/A              250 iters 

 
      Screening Tolerance Information
      -------------------------------
          Density screening/tol_rho:  1.00D-11
          AO Gaussian exp screening on grid/accAOfunc:  18
          CD Gaussian exp screening on grid/accCDfunc:  20
          XC Gaussian exp screening on grid/accXCfunc:  20
          Schwarz screening/accCoul:  1.00D-09

 
      Superposition of Atomic Density Guess
      -------------------------------------
 
 Sum of atomic energies:        -190.79714706
 
      Non-variational initial energy
      ------------------------------

 Total energy =    -193.159611
 1-e energy   =    -501.995407
 2-e energy   =     185.319703
 HOMO         =      -0.349320
 LUMO         =       0.092220
 
   Time after variat. SCF:      0.9
   Time prior to 1st pass:      0.9

 Grid_pts file          = ./methyloxirane_blyp-def2-tzvp_488.9_05.inp.gridpts.0
 Record size in doubles =  12289        No. of grid_pts per rec  =   3070
 Max. records in memory =     76        Max. recs in file   =   1218870


           Memory utilization after 1st SCF pass: 
           Heap Space remaining (MW):       12.17            12167542
          Stack Space remaining (MW):       13.11            13106116

   convergence    iter        energy       DeltaE   RMS-Dens  Diis-err    time
 ---------------- ----- ----------------- --------- --------- ---------  ------
 d= 0,ls=0.0,diis     1   -193.0207017990 -3.17D+02  8.95D-03  1.06D+00     5.0
 d= 0,ls=0.0,diis     2   -192.8714011323  1.49D-01  7.37D-03  2.43D+00     8.9
 d= 0,ls=0.0,diis     3   -193.0770662558 -2.06D-01  1.83D-03  3.87D-01    12.7
 d= 0,ls=0.0,diis     4   -193.1071791064 -3.01D-02  6.83D-04  1.82D-02    16.6
 d= 0,ls=0.0,diis     5   -193.1088574321 -1.68D-03  2.88D-04  2.62D-03    20.5
 d= 0,ls=0.0,diis     6   -193.1091838514 -3.26D-04  2.91D-05  3.47D-05    24.4
 d= 0,ls=0.0,diis     7   -193.1091877345 -3.88D-06  8.94D-06  5.69D-06    28.2
 d= 0,ls=0.0,diis     8   -193.1091883525 -6.18D-07  2.72D-06  3.97D-07    32.1
 d= 0,ls=0.0,diis     9   -193.1091883953 -4.28D-08  7.96D-07  3.15D-08    36.0
 d= 0,ls=0.0,diis    10   -193.1091883989 -3.63D-09  2.40D-07  3.75D-09    39.8


         Total DFT energy =     -193.109188398919
      One electron energy =     -505.641981503037
           Coulomb energy =      216.036267714250
    Exchange-Corr. energy =      -27.019567440123
 Nuclear repulsion energy =      123.516092829991

 Numeric. integr. density =       31.999999966751

     Total iterative time =     39.0s


 
                       DFT Final Molecular Orbital Analysis
                       ------------------------------------
 
 Vector    1  Occ=2.000000D+00  E=-1.878010D+01
              MO Center= -8.7D-01, -1.8D-01,  2.1D-01, r^2= 1.5D-02
   Bfn.  Coefficient  Atom+Function         Bfn.  Coefficient  Atom+Function  
  ----- ------------  ---------------      ----- ------------  ---------------
     2      0.638469   1 O  s                 1      0.435421   1 O  s         
     3      0.039964   1 O  s                 4     -0.033511   1 O  s         
 
 Vector    2  Occ=2.000000D+00  E=-9.964009D+00
              MO Center=  5.7D-01, -1.6D-01,  1.2D-01, r^2= 2.8D-02
   Bfn.  Coefficient  Atom+Function         Bfn.  Coefficient  Atom+Function  
  ----- ------------  ---------------      ----- ------------  ---------------
    33      0.606929   2 C  s                32      0.467276   2 C  s         
    34      0.042390   2 C  s                36      0.036778   2 C  s         
    35     -0.027356   2 C  s         
 
 Vector    3  Occ=2.000000D+00  E=-9.956081D+00
              MO Center= -1.9D-01,  1.1D+00,  3.4D-01, r^2= 2.8D-02
   Bfn.  Coefficient  Atom+Function         Bfn.  Coefficient  Atom+Function  
  ----- ------------  ---------------      ----- ------------  ---------------
    64      0.607044   3 C  s                63      0.467234   3 C  s         
    65      0.039734   3 C  s         
 
 Vector    4  Occ=2.000000D+00  E=-9.908023D+00
              MO Center=  1.2D+00, -5.2D-01, -1.2D+00, r^2= 2.8D-02
   Bfn.  Coefficient  Atom+Function         Bfn.  Coefficient  Atom+Function  
  ----- ------------  ---------------      ----- ------------  ---------------
    95      0.606968   4 C  s                94      0.467217   4 C  s         
    96      0.040620   4 C  s                98      0.035591   4 C  s         
 
 Vector    5  Occ=2.000000D+00  E=-9.660188D-01
              MO Center= -4.7D-01,  5.6D-02,  2.1D-01, r^2= 6.4D-01
   Bfn.  Coefficient  Atom+Function         Bfn.  Coefficient  Atom+Function  
  ----- ------------  ---------------      ----- ------------  ---------------
     4      0.375805   1 O  s                 3      0.277824   1 O  s         
     2     -0.193153   1 O  s                34      0.140036   2 C  s         
    65      0.137908   3 C  s                 5      0.122543   1 O  s         
    35      0.103830   2 C  s                 6      0.094328   1 O  px        
    66      0.092890   3 C  s                69     -0.091278   3 C  py        
 
 Vector    6  Occ=2.000000D+00  E=-6.681857D-01
              MO Center=  9.5D-01, -4.0D-01, -7.9D-01, r^2= 1.5D+00
   Bfn.  Coefficient  Atom+Function         Bfn.  Coefficient  Atom+Function  
  ----- ------------  ---------------      ----- ------------  ---------------
    97      0.287116   4 C  s                96      0.277613   4 C  s         
    35      0.184276   2 C  s                95     -0.174772   4 C  s         
    34      0.172719   2 C  s                 4     -0.143975   1 O  s         
    33     -0.107894   2 C  s                 3     -0.100225   1 O  s         
    94     -0.083737   4 C  s                 5     -0.071405   1 O  s         
 
 Vector    7  Occ=2.000000D+00  E=-5.885248D-01
              MO Center= -1.5D-01,  7.5D-01,  2.3D-01, r^2= 1.9D+00
   Bfn.  Coefficient  Atom+Function         Bfn.  Coefficient  Atom+Function  
  ----- ------------  ---------------      ----- ------------  ---------------
    66      0.329814   3 C  s                65      0.281241   3 C  s         
     4     -0.236615   1 O  s                64     -0.173784   3 C  s         
     3     -0.166444   1 O  s                 5     -0.147010   1 O  s         
     2      0.109973   1 O  s                38      0.103775   2 C  py        
   132      0.104029   6 H  s               138      0.100474   7 H  s         
 
 Vector    8  Occ=2.000000D+00  E=-5.305222D-01
              MO Center=  4.2D-01, -1.8D-02, -1.0D-01, r^2= 2.7D+00
   Bfn.  Coefficient  Atom+Function         Bfn.  Coefficient  Atom+Function  
  ----- ------------  ---------------      ----- ------------  ---------------
    35      0.303914   2 C  s                34      0.227500   2 C  s         
    97     -0.156433   4 C  s                66     -0.142178   3 C  s         
    33     -0.139850   2 C  s               126      0.132957   5 H  s         
    96     -0.130374   4 C  s                 6      0.110535   1 O  px        
   125      0.106384   5 H  s                 4     -0.098618   1 O  s         
 
 Vector    9  Occ=2.000000D+00  E=-4.477637D-01
              MO Center=  1.0D-01,  2.8D-01,  2.5D-01, r^2= 2.5D+00
   Bfn.  Coefficient  Atom+Function         Bfn.  Coefficient  Atom+Function  
  ----- ------------  ---------------      ----- ------------  ---------------
    70      0.209659   3 C  pz               39      0.154962   2 C  pz        
   132      0.144346   6 H  s                73      0.131888   3 C  pz        
     8      0.129947   1 O  pz              126      0.115884   5 H  s         
     6     -0.112155   1 O  px               38     -0.107566   2 C  py        
   131      0.107122   6 H  s                11      0.105238   1 O  pz        
 
 Vector   10  Occ=2.000000D+00  E=-4.137622D-01
              MO Center=  3.0D-02,  2.9D-01, -2.3D-01, r^2= 2.5D+00
   Bfn.  Coefficient  Atom+Function         Bfn.  Coefficient  Atom+Function  
  ----- ------------  ---------------      ----- ------------  ---------------
    69      0.216394   3 C  py              138      0.153831   7 H  s         
   101      0.150637   4 C  pz                6     -0.143336   1 O  px        
    38     -0.140638   2 C  py                7     -0.127525   1 O  py        
    37      0.125032   2 C  px               72      0.122183   3 C  py        
    70     -0.115917   3 C  pz                9     -0.114392   1 O  px        
 
 Vector   11  Occ=2.000000D+00  E=-3.769660D-01
              MO Center=  8.6D-01, -2.9D-01, -7.1D-01, r^2= 2.7D+00
   Bfn.  Coefficient  Atom+Function         Bfn.  Coefficient  Atom+Function  
  ----- ------------  ---------------      ----- ------------  ---------------
    99      0.205962   4 C  px              144      0.181216   8 H  s         
   100      0.158754   4 C  py              150     -0.135880   9 H  s         
    37      0.133647   2 C  px              102      0.132170   4 C  px        
   143      0.126880   8 H  s                 6     -0.123448   1 O  px        
     7      0.123611   1 O  py              103      0.105114   4 C  py        
 
 Vector   12  Occ=2.000000D+00  E=-3.559614D-01
              MO Center=  6.2D-01, -3.6D-01, -9.0D-01, r^2= 2.8D+00
   Bfn.  Coefficient  Atom+Function         Bfn.  Coefficient  Atom+Function  
  ----- ------------  ---------------      ----- ------------  ---------------
   100      0.261784   4 C  py              150     -0.190977   9 H  s         
   156      0.174048  10 H  s               103      0.169641   4 C  py        
     7     -0.165990   1 O  py               10     -0.132910   1 O  py        
   149     -0.133121   9 H  s               155      0.123269  10 H  s         
    70      0.115737   3 C  pz              106      0.105386   4 C  py        
 
 Vector   13  Occ=2.000000D+00  E=-3.299676D-01
              MO Center=  3.2D-01,  2.3D-01, -2.5D-01, r^2= 2.8D+00
   Bfn.  Coefficient  Atom+Function         Bfn.  Coefficient  Atom+Function  
  ----- ------------  ---------------      ----- ------------  ---------------
    39      0.201965   2 C  pz                7     -0.183184   1 O  py        
   101     -0.177996   4 C  pz               70     -0.162491   3 C  pz        
   138      0.159815   7 H  s                99      0.152317   4 C  px        
    10     -0.148178   1 O  py               42      0.137386   2 C  pz        
   104     -0.126130   4 C  pz              144      0.109599   8 H  s         
 
 Vector   14  Occ=2.000000D+00  E=-3.223639D-01
              MO Center=  4.7D-01, -4.5D-02, -2.5D-01, r^2= 3.0D+00
   Bfn.  Coefficient  Atom+Function         Bfn.  Coefficient  Atom+Function  
  ----- ------------  ---------------      ----- ------------  ---------------
     7      0.177703   1 O  py              126      0.169722   5 H  s         
   156      0.160018  10 H  s                39      0.152574   2 C  pz        
    99     -0.148779   4 C  px               10      0.146147   1 O  py        
   101     -0.142734   4 C  pz                6     -0.139041   1 O  px        
   144     -0.125708   8 H  s                37      0.122432   2 C  px        
 
 Vector   15  Occ=2.000000D+00  E=-2.617276D-01
              MO Center=  1.3D-02,  1.6D-01,  4.7D-02, r^2= 2.3D+00
   Bfn.  Coefficient  Atom+Function         Bfn.  Coefficient  Atom+Function  
  ----- ------------  ---------------      ----- ------------  ---------------
    68      0.268267   3 C  px               38      0.255994   2 C  py        
     6     -0.233663   1 O  px               41      0.200256   2 C  py        
    71      0.200558   3 C  px                9     -0.182730   1 O  px        
    12     -0.156665   1 O  px              150      0.112457   9 H  s         
     7     -0.110351   1 O  py               74      0.108010   3 C  px        
 
 Vector   16  Occ=2.000000D+00  E=-2.199208D-01
              MO Center= -5.6D-01, -2.4D-02,  2.0D-01, r^2= 1.6D+00
   Bfn.  Coefficient  Atom+Function         Bfn.  Coefficient  Atom+Function  
  ----- ------------  ---------------      ----- ------------  ---------------
     8      0.447715   1 O  pz               11      0.356774   1 O  pz        
    14      0.295564   1 O  pz              133     -0.128470   6 H  s         
   139      0.116261   7 H  s               138      0.104777   7 H  s         
   132     -0.103392   6 H  s               145     -0.102059   8 H  s         
   126     -0.099447   5 H  s                98      0.096049   4 C  s         
 
 Vector   17  Occ=0.000000D+00  E= 2.603518D-02
              MO Center=  1.2D+00, -1.1D-01, -6.6D-01, r^2= 7.2D+00
   Bfn.  Coefficient  Atom+Function         Bfn.  Coefficient  Atom+Function  
  ----- ------------  ---------------      ----- ------------  ---------------
    98      4.511297   4 C  s               145     -1.542313   8 H  s         
   151     -1.508702   9 H  s               157     -1.371373  10 H  s         
   127     -1.222140   5 H  s                45      1.125197   2 C  pz        
   139     -0.895441   7 H  s                67      0.702955   3 C  s         
   133     -0.590127   6 H  s                75      0.334439   3 C  py        
 
 Vector   18  Occ=0.000000D+00  E= 4.317932D-02
              MO Center= -1.6D-01,  7.0D-01,  1.2D-01, r^2= 4.2D+00
   Bfn.  Coefficient  Atom+Function         Bfn.  Coefficient  Atom+Function  
  ----- ------------  ---------------      ----- ------------  ---------------
    36      2.249631   2 C  s                98     -1.920078   4 C  s         
     5     -1.163387   1 O  s                74     -1.015448   3 C  px        
    67     -0.876835   3 C  s               151      0.761327   9 H  s         
    44      0.542898   2 C  py               13     -0.423482   1 O  py        
   157      0.413886  10 H  s                45     -0.378430   2 C  pz        
 
 Vector   19  Occ=0.000000D+00  E= 5.013646D-02
              MO Center=  3.0D-01,  8.0D-01, -9.0D-02, r^2= 6.7D+00
   Bfn.  Coefficient  Atom+Function         Bfn.  Coefficient  Atom+Function  
  ----- ------------  ---------------      ----- ------------  ---------------
    67      3.464562   3 C  s                36     -1.851952   2 C  s         
   139     -1.641323   7 H  s               127      1.214250   5 H  s         
    98     -1.154315   4 C  s               133     -0.942037   6 H  s         
   145      0.886593   8 H  s                44     -0.735534   2 C  py        
    45     -0.724335   2 C  pz                5     -0.656700   1 O  s         
 
 Vector   20  Occ=0.000000D+00  E= 5.118227D-02
              MO Center=  6.7D-01,  2.4D-01,  4.1D-01, r^2= 7.6D+00
   Bfn.  Coefficient  Atom+Function         Bfn.  Coefficient  Atom+Function  
  ----- ------------  ---------------      ----- ------------  ---------------
    98      3.292249   4 C  s                36     -1.920920   2 C  s         
   127      1.787242   5 H  s               133      1.633549   6 H  s         
    67     -1.387510   3 C  s               157     -1.326969  10 H  s         
   145     -0.886598   8 H  s                44      0.807658   2 C  py        
    43     -0.763428   2 C  px               76     -0.691622   3 C  pz        
 
 Vector   21  Occ=0.000000D+00  E= 6.678264D-02
              MO Center=  2.8D-01,  6.6D-02, -1.8D-01, r^2= 4.7D+00
   Bfn.  Coefficient  Atom+Function         Bfn.  Coefficient  Atom+Function  
  ----- ------------  ---------------      ----- ------------  ---------------
    98      1.209052   4 C  s               139      1.196128   7 H  s         
     5     -1.009375   1 O  s               151     -0.962197   9 H  s         
    43     -0.849780   2 C  px               67     -0.727963   3 C  s         
    75     -0.673140   3 C  py               12     -0.497939   1 O  px        
   133      0.478123   6 H  s                45      0.380326   2 C  pz        
 
 Vector   22  Occ=0.000000D+00  E= 8.615617D-02
              MO Center=  1.3D+00,  1.9D-01, -4.9D-01, r^2= 7.1D+00
   Bfn.  Coefficient  Atom+Function         Bfn.  Coefficient  Atom+Function  
  ----- ------------  ---------------      ----- ------------  ---------------
    36      2.775131   2 C  s               145      2.012606   8 H  s         
    67     -1.317198   3 C  s               127     -1.322797   5 H  s         
   157     -1.303548  10 H  s               133      1.220392   6 H  s         
   107     -1.104382   4 C  pz              105     -0.996680   4 C  px        
    98     -0.929265   4 C  s                76     -0.722363   3 C  pz        
 
 Vector   23  Occ=0.000000D+00  E= 9.142366D-02
              MO Center=  1.2D+00, -6.0D-01, -5.1D-01, r^2= 6.6D+00
   Bfn.  Coefficient  Atom+Function         Bfn.  Coefficient  Atom+Function  
  ----- ------------  ---------------      ----- ------------  ---------------
    36      2.427547   2 C  s               151      2.019605   9 H  s         
   145     -1.591917   8 H  s                98     -1.240546   4 C  s         
   106      1.129779   4 C  py              105      1.122259   4 C  px        
   133      0.975401   6 H  s                67     -0.876869   3 C  s         
   127     -0.827145   5 H  s                44     -0.657949   2 C  py        
 
 Vector   24  Occ=0.000000D+00  E= 1.028918D-01
              MO Center=  4.3D-01,  4.0D-01, -1.1D+00, r^2= 6.8D+00
   Bfn.  Coefficient  Atom+Function         Bfn.  Coefficient  Atom+Function  
  ----- ------------  ---------------      ----- ------------  ---------------
   157      2.045837  10 H  s               133      1.573573   6 H  s         
   106     -1.489671   4 C  py              139     -1.495690   7 H  s         
   151     -1.449599   9 H  s                98     -1.419199   4 C  s         
    36      1.167538   2 C  s                76     -1.153450   3 C  pz        
   105      0.980149   4 C  px               45     -0.541477   2 C  pz        
 
 Vector   25  Occ=0.000000D+00  E= 1.388373D-01
              MO Center=  8.0D-01,  1.8D-01, -4.6D-01, r^2= 7.8D+00
   Bfn.  Coefficient  Atom+Function         Bfn.  Coefficient  Atom+Function  
  ----- ------------  ---------------      ----- ------------  ---------------
    36      4.608113   2 C  s                98     -3.485307   4 C  s         
    45     -3.385175   2 C  pz               67     -2.719236   3 C  s         
   127      2.708577   5 H  s                76      2.157089   3 C  pz        
   105      2.078823   4 C  px              133     -1.791847   6 H  s         
   139      1.699519   7 H  s               107     -1.582266   4 C  pz        
 
 Vector   26  Occ=0.000000D+00  E= 1.705451D-01
              MO Center=  4.1D-01,  5.6D-01, -1.2D-01, r^2= 7.2D+00
   Bfn.  Coefficient  Atom+Function         Bfn.  Coefficient  Atom+Function  
  ----- ------------  ---------------      ----- ------------  ---------------
    75      2.323851   3 C  py               36      1.640279   2 C  s         
   107      1.577281   4 C  pz               67     -1.559111   3 C  s         
   139     -1.171719   7 H  s               157      1.076893  10 H  s         
    74     -0.990013   3 C  px               44      0.753679   2 C  py        
    43     -0.643278   2 C  px              106     -0.617601   4 C  py        
 
 Vector   27  Occ=0.000000D+00  E= 1.975719D-01
              MO Center=  7.7D-01, -1.2D-01, -9.7D-01, r^2= 5.1D+00
   Bfn.  Coefficient  Atom+Function         Bfn.  Coefficient  Atom+Function  
  ----- ------------  ---------------      ----- ------------  ---------------
    67      2.998807   3 C  s                44     -2.570981   2 C  py        
    36     -1.993351   2 C  s               106      1.896331   4 C  py        
    43      0.981181   2 C  px              105      0.807200   4 C  px        
    74      0.755980   3 C  px               45     -0.709893   2 C  pz        
   157     -0.679293  10 H  s                75     -0.674527   3 C  py        
 
 Vector   28  Occ=0.000000D+00  E= 2.018562D-01
              MO Center=  1.0D+00, -4.2D-01, -6.9D-01, r^2= 6.7D+00
   Bfn.  Coefficient  Atom+Function         Bfn.  Coefficient  Atom+Function  
  ----- ------------  ---------------      ----- ------------  ---------------
    36      2.408351   2 C  s                75      1.625838   3 C  py        
   105     -1.338696   4 C  px              133     -1.242392   6 H  s         
   106      1.033200   4 C  py              107     -0.933088   4 C  pz        
   139     -0.752792   7 H  s               156     -0.718258  10 H  s         
    45      0.698775   2 C  pz               76      0.670421   3 C  pz        
 
 Vector   29  Occ=0.000000D+00  E= 2.354046D-01
              MO Center= -2.8D-01,  3.5D-01, -9.6D-02, r^2= 5.4D+00
   Bfn.  Coefficient  Atom+Function         Bfn.  Coefficient  Atom+Function  
  ----- ------------  ---------------      ----- ------------  ---------------
    67      4.370435   3 C  s                36     -3.127752   2 C  s         
   139     -1.590769   7 H  s                66     -1.435263   3 C  s         
    98      1.330071   4 C  s               133     -1.229628   6 H  s         
   107      1.082484   4 C  pz               74     -0.777565   3 C  px        
   106      0.780637   4 C  py                5     -0.742637   1 O  s         
 
 Vector   30  Occ=0.000000D+00  E= 2.462562D-01
              MO Center=  5.2D-01,  4.7D-02, -5.8D-02, r^2= 5.9D+00
   Bfn.  Coefficient  Atom+Function         Bfn.  Coefficient  Atom+Function  
  ----- ------------  ---------------      ----- ------------  ---------------
    67      6.060904   3 C  s                43      4.142386   2 C  px        
    75     -2.943076   3 C  py               44     -2.495874   2 C  py        
    36     -2.302998   2 C  s               107     -1.956161   4 C  pz        
   157     -1.792434  10 H  s                45     -1.385139   2 C  pz        
   105     -1.198083   4 C  px               98     -1.178586   4 C  s         
 
 Vector   31  Occ=0.000000D+00  E= 2.679208D-01
              MO Center=  3.9D-01,  2.4D-03,  2.6D-01, r^2= 5.6D+00
   Bfn.  Coefficient  Atom+Function         Bfn.  Coefficient  Atom+Function  
  ----- ------------  ---------------      ----- ------------  ---------------
    36      3.922240   2 C  s                67      2.374736   3 C  s         
     5     -1.979831   1 O  s               105      1.502790   4 C  px        
    43     -1.352974   2 C  px               66     -1.177997   3 C  s         
    98     -1.016578   4 C  s               139     -0.937845   7 H  s         
   133     -0.928967   6 H  s               127     -0.867548   5 H  s         
 
 Vector   32  Occ=0.000000D+00  E= 2.805663D-01
              MO Center=  2.7D-01,  1.7D-01,  2.8D-01, r^2= 4.2D+00
   Bfn.  Coefficient  Atom+Function         Bfn.  Coefficient  Atom+Function  
  ----- ------------  ---------------      ----- ------------  ---------------
    36      2.987906   2 C  s                 5     -2.037953   1 O  s         
    43     -1.350135   2 C  px               67     -1.147584   3 C  s         
    98     -0.789825   4 C  s                74     -0.688500   3 C  px        
    45     -0.572537   2 C  pz              145      0.541490   8 H  s         
     4      0.515228   1 O  s               107     -0.412860   4 C  pz        
 
 Vector   33  Occ=0.000000D+00  E= 3.002550D-01
              MO Center=  4.5D-01,  3.6D-01, -4.1D-01, r^2= 5.0D+00
   Bfn.  Coefficient  Atom+Function         Bfn.  Coefficient  Atom+Function  
  ----- ------------  ---------------      ----- ------------  ---------------
    43      1.869126   2 C  px              106      1.787827   4 C  py        
   151      1.680399   9 H  s                98     -1.592184   4 C  s         
    76      1.274006   3 C  pz               44     -1.245082   2 C  py        
    36     -1.215125   2 C  s               107     -1.041202   4 C  pz        
    66      1.010453   3 C  s               139      0.908191   7 H  s         
 
 Vector   34  Occ=0.000000D+00  E= 3.363188D-01
              MO Center=  1.4D-01,  3.9D-01, -4.2D-01, r^2= 5.8D+00
   Bfn.  Coefficient  Atom+Function         Bfn.  Coefficient  Atom+Function  
  ----- ------------  ---------------      ----- ------------  ---------------
    67      4.213315   3 C  s                76     -3.770512   3 C  pz        
   139     -3.025892   7 H  s               133      1.893653   6 H  s         
    36     -1.775897   2 C  s               107     -1.778051   4 C  pz        
   157     -1.677970  10 H  s                98      1.469555   4 C  s         
    43      1.211091   2 C  px               66     -0.988820   3 C  s         
 
 Vector   35  Occ=0.000000D+00  E= 3.629205D-01
              MO Center=  7.3D-01,  6.4D-02, -2.1D-01, r^2= 6.7D+00
   Bfn.  Coefficient  Atom+Function         Bfn.  Coefficient  Atom+Function  
  ----- ------------  ---------------      ----- ------------  ---------------
    98      6.746406   4 C  s                36      3.296562   2 C  s         
    76      3.251190   3 C  pz              145     -3.124295   8 H  s         
    67     -3.039527   3 C  s                97     -2.789180   4 C  s         
   133     -2.191597   6 H  s                44      1.987123   2 C  py        
   139      1.886741   7 H  s               151     -1.643907   9 H  s         
 
 Vector   36  Occ=0.000000D+00  E= 3.710483D-01
              MO Center=  6.1D-01,  2.0D-01, -2.9D-01, r^2= 6.7D+00
   Bfn.  Coefficient  Atom+Function         Bfn.  Coefficient  Atom+Function  
  ----- ------------  ---------------      ----- ------------  ---------------
    36     11.921979   2 C  s                98    -10.002170   4 C  s         
    67     -8.059437   3 C  s                97      2.939157   4 C  s         
   127     -2.693495   5 H  s               157      2.520736  10 H  s         
   151      2.051973   9 H  s                44      1.928054   2 C  py        
   145      1.832792   8 H  s                35     -1.627976   2 C  s         
 
 Vector   37  Occ=0.000000D+00  E= 3.848975D-01
              MO Center=  9.1D-01, -3.5D-01, -5.9D-02, r^2= 5.9D+00
   Bfn.  Coefficient  Atom+Function         Bfn.  Coefficient  Atom+Function  
  ----- ------------  ---------------      ----- ------------  ---------------
    36      7.363863   2 C  s               127     -4.245323   5 H  s         
    67     -2.420978   3 C  s                35     -2.320436   2 C  s         
    45      2.219936   2 C  pz              151     -1.872590   9 H  s         
    43      1.841412   2 C  px               76     -1.696314   3 C  pz        
   145     -1.690007   8 H  s                98      1.574440   4 C  s         
 
 Vector   38  Occ=0.000000D+00  E= 3.939249D-01
              MO Center=  1.5D-01,  1.6D-01, -3.9D-02, r^2= 6.6D+00
   Bfn.  Coefficient  Atom+Function         Bfn.  Coefficient  Atom+Function  
  ----- ------------  ---------------      ----- ------------  ---------------
    98     12.566902   4 C  s                67     -5.762274   3 C  s         
    45      5.718323   2 C  pz               76     -3.455337   3 C  pz        
   133      2.852550   6 H  s               157     -2.654405  10 H  s         
    44      2.067799   2 C  py               97     -1.875314   4 C  s         
    75      1.754185   3 C  py               36     -1.691545   2 C  s         
 
 Vector   39  Occ=0.000000D+00  E= 4.014530D-01
              MO Center= -2.3D-01,  1.7D-01,  2.2D-01, r^2= 6.4D+00
   Bfn.  Coefficient  Atom+Function         Bfn.  Coefficient  Atom+Function  
  ----- ------------  ---------------      ----- ------------  ---------------
    67    -12.106060   3 C  s                36     11.434078   2 C  s         
    45     -5.038855   2 C  pz               98     -4.484277   4 C  s         
    44      3.969448   2 C  py              127      3.016651   5 H  s         
    66      2.710033   3 C  s                43     -2.513612   2 C  px        
   139      2.420022   7 H  s               105      2.260978   4 C  px        
 
 Vector   40  Occ=0.000000D+00  E= 4.161043D-01
              MO Center=  8.2D-01, -3.7D-01, -8.4D-01, r^2= 5.8D+00
   Bfn.  Coefficient  Atom+Function         Bfn.  Coefficient  Atom+Function  
  ----- ------------  ---------------      ----- ------------  ---------------
    98      6.805815   4 C  s                36     -3.400929   2 C  s         
    45      2.964533   2 C  pz              105     -2.544234   4 C  px        
   151     -2.415939   9 H  s               157     -1.990062  10 H  s         
   145      1.821351   8 H  s                97     -1.115229   4 C  s         
   127     -1.055033   5 H  s               144     -0.963191   8 H  s         
 
 Vector   41  Occ=0.000000D+00  E= 4.262475D-01
              MO Center=  4.7D-01,  2.1D-01, -1.5D-01, r^2= 6.9D+00
   Bfn.  Coefficient  Atom+Function         Bfn.  Coefficient  Atom+Function  
  ----- ------------  ---------------      ----- ------------  ---------------
    36      9.128103   2 C  s                67     -4.523578   3 C  s         
    98     -4.032578   4 C  s                44      2.563481   2 C  py        
    75      2.542151   3 C  py              151      2.378282   9 H  s         
    43     -1.683115   2 C  px               45     -1.432594   2 C  pz        
    74     -1.435208   3 C  px              132      1.328537   6 H  s         
 
 Vector   42  Occ=0.000000D+00  E= 4.472960D-01
              MO Center=  1.2D-01, -1.1D-01, -1.7D-01, r^2= 6.2D+00
   Bfn.  Coefficient  Atom+Function         Bfn.  Coefficient  Atom+Function  
  ----- ------------  ---------------      ----- ------------  ---------------
    36      9.079645   2 C  s                98     -8.705099   4 C  s         
    45     -5.502912   2 C  pz              127      2.938376   5 H  s         
    76      2.695422   3 C  pz               67     -2.615103   3 C  s         
   157      2.242985  10 H  s                44      2.188296   2 C  py        
   133     -2.174422   6 H  s               106     -2.033615   4 C  py        
 
 Vector   43  Occ=0.000000D+00  E= 4.576647D-01
              MO Center=  5.3D-02,  8.3D-01, -5.7D-01, r^2= 5.1D+00
   Bfn.  Coefficient  Atom+Function         Bfn.  Coefficient  Atom+Function  
  ----- ------------  ---------------      ----- ------------  ---------------
   139      3.212132   7 H  s               157     -2.488332  10 H  s         
   107     -2.160286   4 C  pz               75     -2.112606   3 C  py        
    43      1.551964   2 C  px               44     -1.505797   2 C  py        
   138     -1.471796   7 H  s                45     -1.428461   2 C  pz        
    76      1.006599   3 C  pz               74      0.766046   3 C  px        
 
 Vector   44  Occ=0.000000D+00  E= 4.689125D-01
              MO Center=  4.4D-01,  1.8D-01, -1.2D-02, r^2= 5.7D+00
   Bfn.  Coefficient  Atom+Function         Bfn.  Coefficient  Atom+Function  
  ----- ------------  ---------------      ----- ------------  ---------------
    98     -5.457915   4 C  s                36      5.083708   2 C  s         
    45     -2.520239   2 C  pz              145      1.743286   8 H  s         
   107     -1.640340   4 C  pz               67     -1.582810   3 C  s         
   133      1.357170   6 H  s                35     -1.324860   2 C  s         
   132     -1.130242   6 H  s               126      1.039627   5 H  s         
 
 Vector   45  Occ=0.000000D+00  E= 5.083188D-01
              MO Center=  8.9D-01, -3.7D-01, -9.2D-01, r^2= 4.8D+00
   Bfn.  Coefficient  Atom+Function         Bfn.  Coefficient  Atom+Function  
  ----- ------------  ---------------      ----- ------------  ---------------
    98     11.252018   4 C  s                36     -7.315699   2 C  s         
    45      4.562397   2 C  pz              107      3.050516   4 C  pz        
   106      1.338140   4 C  py              144     -1.339262   8 H  s         
   156     -1.221321  10 H  s               127     -1.177109   5 H  s         
    14     -1.078316   1 O  pz              150     -1.050790   9 H  s         
 
 Vector   46  Occ=0.000000D+00  E= 5.358161D-01
              MO Center=  1.2D-01, -4.0D-01, -5.0D-01, r^2= 4.4D+00
   Bfn.  Coefficient  Atom+Function         Bfn.  Coefficient  Atom+Function  
  ----- ------------  ---------------      ----- ------------  ---------------
    98     -7.318154   4 C  s                36      6.873598   2 C  s         
    45     -3.671926   2 C  pz               76      3.232342   3 C  pz        
   133     -1.788306   6 H  s               105      1.507007   4 C  px        
   107     -1.500821   4 C  pz              139      1.458678   7 H  s         
     5     -1.158520   1 O  s                14     -1.139092   1 O  pz        
 
 Vector   47  Occ=0.000000D+00  E= 6.590355D-01
              MO Center= -4.1D-01,  4.6D-02, -2.4D-02, r^2= 4.3D+00
   Bfn.  Coefficient  Atom+Function         Bfn.  Coefficient  Atom+Function  
  ----- ------------  ---------------      ----- ------------  ---------------
    36     11.822710   2 C  s                67     -9.237827   3 C  s         
    98     -4.060904   4 C  s                43     -2.645184   2 C  px        
    75      2.560701   3 C  py               13      2.357977   1 O  py        
    76      2.116292   3 C  pz              105      1.597902   4 C  px        
   139      1.549786   7 H  s                44      1.489154   2 C  py        
 
 Vector   48  Occ=0.000000D+00  E= 6.737505D-01
              MO Center= -2.3D-01,  3.5D-01,  1.3D-01, r^2= 3.9D+00
   Bfn.  Coefficient  Atom+Function         Bfn.  Coefficient  Atom+Function  
  ----- ------------  ---------------      ----- ------------  ---------------
    36      7.284942   2 C  s                67     -7.059863   3 C  s         
     5      3.055989   1 O  s                75      2.353604   3 C  py        
    98     -2.084569   4 C  s                13      1.973044   1 O  py        
    45     -1.240303   2 C  pz                4     -1.116144   1 O  s         
    43     -0.958756   2 C  px               72      0.800680   3 C  py        
 
 Vector   49  Occ=0.000000D+00  E= 7.065595D-01
              MO Center=  1.7D-01, -3.2D-01, -2.7D-01, r^2= 4.5D+00
   Bfn.  Coefficient  Atom+Function         Bfn.  Coefficient  Atom+Function  
  ----- ------------  ---------------      ----- ------------  ---------------
    67      9.430389   3 C  s                36     -7.445459   2 C  s         
    43      3.611615   2 C  px               44     -3.447076   2 C  py        
    75     -2.746747   3 C  py               98     -2.349182   4 C  s         
     5      2.243891   1 O  s                12      1.695612   1 O  px        
   106      1.677627   4 C  py               13     -1.365731   1 O  py        
 
 Vector   50  Occ=0.000000D+00  E= 7.613425D-01
              MO Center=  6.2D-01,  2.6D-02, -3.1D-01, r^2= 4.1D+00
   Bfn.  Coefficient  Atom+Function         Bfn.  Coefficient  Atom+Function  
  ----- ------------  ---------------      ----- ------------  ---------------
    45      2.412763   2 C  pz              127     -1.707288   5 H  s         
   105     -1.591215   4 C  px               43      1.511710   2 C  px        
     5     -1.356091   1 O  s                36      1.329296   2 C  s         
   126     -1.324277   5 H  s               144      1.264534   8 H  s         
    76     -1.081970   3 C  pz               67      1.000118   3 C  s         
 
 Vector   51  Occ=0.000000D+00  E= 7.922587D-01
              MO Center=  2.6D-01,  5.1D-02, -1.8D-01, r^2= 4.4D+00
   Bfn.  Coefficient  Atom+Function         Bfn.  Coefficient  Atom+Function  
  ----- ------------  ---------------      ----- ------------  ---------------
     5      4.218607   1 O  s                36     -3.076668   2 C  s         
    76     -2.519169   3 C  pz                4     -1.633982   1 O  s         
    45      1.531301   2 C  pz               12      1.391671   1 O  px        
   133      1.317283   6 H  s                43      1.304952   2 C  px        
    66     -1.056262   3 C  s                35     -1.048909   2 C  s         
 
 Vector   52  Occ=0.000000D+00  E= 8.346658D-01
              MO Center=  3.3D-01,  1.7D-01, -2.3D-02, r^2= 4.5D+00
   Bfn.  Coefficient  Atom+Function         Bfn.  Coefficient  Atom+Function  
  ----- ------------  ---------------      ----- ------------  ---------------
    36      6.602754   2 C  s                98     -4.206290   4 C  s         
     5     -3.845349   1 O  s                43     -2.548675   2 C  px        
   105      1.975108   4 C  px               45     -1.879431   2 C  pz        
    35     -1.861839   2 C  s                44      1.489035   2 C  py        
    66     -1.204636   3 C  s                97      1.065408   4 C  s         
 
 Vector   53  Occ=0.000000D+00  E= 8.512639D-01
              MO Center=  6.3D-01,  9.7D-02, -4.0D-01, r^2= 4.1D+00
   Bfn.  Coefficient  Atom+Function         Bfn.  Coefficient  Atom+Function  
  ----- ------------  ---------------      ----- ------------  ---------------
    98     -4.642481   4 C  s                45     -4.463698   2 C  pz        
    36      4.364870   2 C  s                76      2.048183   3 C  pz        
   127      1.813891   5 H  s                44      1.588442   2 C  py        
   106     -1.576363   4 C  py              105      1.304150   4 C  px        
   150     -1.262532   9 H  s               139      1.079338   7 H  s         
 
 Vector   54  Occ=0.000000D+00  E= 8.714011D-01
              MO Center=  1.6D-01, -4.1D-02, -1.2D-01, r^2= 4.3D+00
   Bfn.  Coefficient  Atom+Function         Bfn.  Coefficient  Atom+Function  
  ----- ------------  ---------------      ----- ------------  ---------------
     5      4.764245   1 O  s                36     -2.141976   2 C  s         
     4     -1.599025   1 O  s               138      1.474345   7 H  s         
    12      1.207823   1 O  px               67     -1.176853   3 C  s         
    66     -1.161216   3 C  s                76      1.148093   3 C  pz        
    43      0.924624   2 C  px              156     -0.896922  10 H  s         
 
 Vector   55  Occ=0.000000D+00  E= 9.194329D-01
              MO Center=  4.9D-01,  3.3D-01, -4.6D-01, r^2= 4.6D+00
   Bfn.  Coefficient  Atom+Function         Bfn.  Coefficient  Atom+Function  
  ----- ------------  ---------------      ----- ------------  ---------------
    35      4.781184   2 C  s                36     -1.584752   2 C  s         
    67      1.339062   3 C  s               132     -1.331853   6 H  s         
    72      1.226502   3 C  py               66     -1.158149   3 C  s         
   156     -1.163281  10 H  s                84      1.147329   3 C  d  0      
    41      1.125166   2 C  py              116     -1.062205   4 C  d  1      
 
 Vector   56  Occ=0.000000D+00  E= 9.603436D-01
              MO Center=  4.6D-01,  2.9D-01, -5.4D-01, r^2= 4.7D+00
   Bfn.  Coefficient  Atom+Function         Bfn.  Coefficient  Atom+Function  
  ----- ------------  ---------------      ----- ------------  ---------------
    35      4.121126   2 C  s                67      2.498849   3 C  s         
   138     -2.357788   7 H  s                76     -1.829228   3 C  pz        
    42     -1.732348   2 C  pz               83     -1.640999   3 C  d -1      
   115     -1.451295   4 C  d  0             36     -1.434978   2 C  s         
    98     -1.415805   4 C  s               132      1.364564   6 H  s         
 
 Vector   57  Occ=0.000000D+00  E= 9.897439D-01
              MO Center=  3.4D-01,  4.7D-01, -1.3D-01, r^2= 4.1D+00
   Bfn.  Coefficient  Atom+Function         Bfn.  Coefficient  Atom+Function  
  ----- ------------  ---------------      ----- ------------  ---------------
    36      7.310802   2 C  s                98     -4.742556   4 C  s         
    67     -3.918595   3 C  s                45     -3.711735   2 C  pz        
    43     -2.297169   2 C  px               44      2.134698   2 C  py        
    66     -1.572790   3 C  s               127      1.575869   5 H  s         
    75      1.455849   3 C  py              126      1.316480   5 H  s         
 
 Vector   58  Occ=0.000000D+00  E= 1.011871D+00
              MO Center=  3.8D-01,  5.4D-01, -5.8D-02, r^2= 4.3D+00
   Bfn.  Coefficient  Atom+Function         Bfn.  Coefficient  Atom+Function  
  ----- ------------  ---------------      ----- ------------  ---------------
    36      5.424646   2 C  s                67     -4.372533   3 C  s         
    45     -2.127390   2 C  pz               44      1.845633   2 C  py        
    98     -1.683255   4 C  s               156     -1.468344  10 H  s         
   144      1.374954   8 H  s                82      1.330923   3 C  d -2      
    43     -1.311095   2 C  px               74     -1.315421   3 C  px        
 
 Vector   59  Occ=0.000000D+00  E= 1.041121D+00
              MO Center=  6.9D-01, -1.4D-01, -4.6D-01, r^2= 4.2D+00
   Bfn.  Coefficient  Atom+Function         Bfn.  Coefficient  Atom+Function  
  ----- ------------  ---------------      ----- ------------  ---------------
    36      2.799340   2 C  s                35      2.566308   2 C  s         
    66     -2.389049   3 C  s               150      1.941624   9 H  s         
     5     -1.907808   1 O  s               144     -1.880305   8 H  s         
   117      1.705278   4 C  d  2             41      1.578994   2 C  py        
    44      1.452411   2 C  py               67     -1.449862   3 C  s         
 
 Vector   60  Occ=0.000000D+00  E= 1.077482D+00
              MO Center=  6.8D-01, -1.9D-02, -7.7D-02, r^2= 4.1D+00
   Bfn.  Coefficient  Atom+Function         Bfn.  Coefficient  Atom+Function  
  ----- ------------  ---------------      ----- ------------  ---------------
    98      4.165561   4 C  s                45      3.839766   2 C  pz        
    66     -3.775182   3 C  s                97      3.635572   4 C  s         
    36     -3.537611   2 C  s               104      2.470150   4 C  pz        
    41      2.398948   2 C  py               42      2.266118   2 C  pz        
    72      2.210383   3 C  py               53     -2.190991   2 C  d  0      
 
 Vector   61  Occ=0.000000D+00  E= 1.104276D+00
              MO Center=  3.7D-01,  4.1D-02,  4.8D-02, r^2= 3.8D+00
   Bfn.  Coefficient  Atom+Function         Bfn.  Coefficient  Atom+Function  
  ----- ------------  ---------------      ----- ------------  ---------------
    36      7.228265   2 C  s                67     -4.978140   3 C  s         
    98     -2.822432   4 C  s                66      2.018001   3 C  s         
   126     -1.959732   5 H  s                45     -1.852324   2 C  pz        
   132      1.644452   6 H  s                72     -1.540226   3 C  py        
    41     -1.392239   2 C  py               53      1.396900   2 C  d  0      
 
 Vector   62  Occ=0.000000D+00  E= 1.147263D+00
              MO Center=  6.2D-01,  1.9D-02, -1.6D-02, r^2= 3.6D+00
   Bfn.  Coefficient  Atom+Function         Bfn.  Coefficient  Atom+Function  
  ----- ------------  ---------------      ----- ------------  ---------------
    67      5.155384   3 C  s                36     -3.920602   2 C  s         
    44     -2.359767   2 C  py              126      1.896589   5 H  s         
    97     -1.683746   4 C  s                54      1.569926   2 C  d  1      
    43      1.534503   2 C  px               55      1.454050   2 C  d  2      
   132     -1.420396   6 H  s                75     -1.403469   3 C  py        
 
 Vector   63  Occ=0.000000D+00  E= 1.212642D+00
              MO Center=  5.5D-01,  2.0D-01, -1.5D-01, r^2= 3.8D+00
   Bfn.  Coefficient  Atom+Function         Bfn.  Coefficient  Atom+Function  
  ----- ------------  ---------------      ----- ------------  ---------------
    36      6.563812   2 C  s                66     -4.772550   3 C  s         
    67     -3.258390   3 C  s                97     -3.231185   4 C  s         
    35      2.941447   2 C  s                72      1.844508   3 C  py        
    51     -1.730938   2 C  d -2             52      1.656268   2 C  d -1      
   138      1.663460   7 H  s                41      1.440434   2 C  py        
 
 Vector   64  Occ=0.000000D+00  E= 1.347311D+00
              MO Center=  3.5D-01,  5.5D-01,  2.3D-01, r^2= 3.6D+00
   Bfn.  Coefficient  Atom+Function         Bfn.  Coefficient  Atom+Function  
  ----- ------------  ---------------      ----- ------------  ---------------
    66      4.803745   3 C  s                35      3.883956   2 C  s         
    67     -2.985346   3 C  s                36     -2.850028   2 C  s         
    65     -2.418347   3 C  s               132     -2.062643   6 H  s         
    34     -1.455819   2 C  s               133      1.429759   6 H  s         
    72      1.314360   3 C  py              139      1.074585   7 H  s         
 
 Vector   65  Occ=0.000000D+00  E= 1.415246D+00
              MO Center=  1.7D-01,  5.1D-01, -4.8D-02, r^2= 3.4D+00
   Bfn.  Coefficient  Atom+Function         Bfn.  Coefficient  Atom+Function  
  ----- ------------  ---------------      ----- ------------  ---------------
    36     -4.258450   2 C  s                66     -4.071629   3 C  s         
    35      3.985947   2 C  s                67      3.897381   3 C  s         
    73      2.263034   3 C  pz              138      2.239650   7 H  s         
   139     -2.182355   7 H  s               126     -1.798954   5 H  s         
    65      1.639866   3 C  s                34     -1.614583   2 C  s         
 
 Vector   66  Occ=0.000000D+00  E= 1.433115D+00
              MO Center=  1.1D+00, -4.8D-01, -1.2D+00, r^2= 3.5D+00
   Bfn.  Coefficient  Atom+Function         Bfn.  Coefficient  Atom+Function  
  ----- ------------  ---------------      ----- ------------  ---------------
    98     10.226063   4 C  s                97     -7.653419   4 C  s         
    96      3.098366   4 C  s                36     -2.418966   2 C  s         
   145     -2.419191   8 H  s               151     -2.360555   9 H  s         
   157     -2.132294  10 H  s               150      1.707858   9 H  s         
   144      1.696561   8 H  s               104      1.486134   4 C  pz        
 
 Vector   67  Occ=0.000000D+00  E= 1.443098D+00
              MO Center=  3.6D-01,  4.0D-02, -1.2D-01, r^2= 4.2D+00
   Bfn.  Coefficient  Atom+Function         Bfn.  Coefficient  Atom+Function  
  ----- ------------  ---------------      ----- ------------  ---------------
    66      4.142915   3 C  s                35     -3.026059   2 C  s         
    67     -2.754871   3 C  s                98      2.616576   4 C  s         
   133      2.013726   6 H  s                45      1.916534   2 C  pz        
    76     -1.898320   3 C  pz               36      1.873296   2 C  s         
   127     -1.605021   5 H  s               132     -1.530648   6 H  s         
 
 Vector   68  Occ=0.000000D+00  E= 1.446242D+00
              MO Center=  3.1D-01, -5.1D-03, -1.2D-01, r^2= 3.1D+00
   Bfn.  Coefficient  Atom+Function         Bfn.  Coefficient  Atom+Function  
  ----- ------------  ---------------      ----- ------------  ---------------
    98      4.823528   4 C  s                36     -2.652184   2 C  s         
    97     -2.642043   4 C  s                 5      2.135164   1 O  s         
    45      1.960580   2 C  pz               35     -1.483034   2 C  s         
   127     -1.301889   5 H  s                96      1.118578   4 C  s         
    44     -1.070354   2 C  py               40      1.003924   2 C  px        
 
 Vector   69  Occ=0.000000D+00  E= 1.474497D+00
              MO Center=  9.6D-01, -2.5D-01, -9.9D-01, r^2= 3.4D+00
   Bfn.  Coefficient  Atom+Function         Bfn.  Coefficient  Atom+Function  
  ----- ------------  ---------------      ----- ------------  ---------------
    66      2.060753   3 C  s                36      1.741050   2 C  s         
    67     -1.409848   3 C  s                 5     -1.201221   1 O  s         
   103      1.113738   4 C  py               98     -1.086949   4 C  s         
    97      1.002049   4 C  s               133      0.883371   6 H  s         
    71     -0.866366   3 C  px               65     -0.861812   3 C  s         
 
 Vector   70  Occ=0.000000D+00  E= 1.478098D+00
              MO Center=  9.5D-01, -3.9D-01, -1.0D+00, r^2= 3.4D+00
   Bfn.  Coefficient  Atom+Function         Bfn.  Coefficient  Atom+Function  
  ----- ------------  ---------------      ----- ------------  ---------------
    36      2.805738   2 C  s               156     -2.657792  10 H  s         
   102     -2.074559   4 C  px              157      2.059456  10 H  s         
    66     -1.893683   3 C  s               104     -1.758885   4 C  pz        
   126      1.701724   5 H  s               103      1.572114   4 C  py        
    35     -1.340279   2 C  s               127     -1.317101   5 H  s         
 
 Vector   71  Occ=0.000000D+00  E= 1.513013D+00
              MO Center=  3.4D-01,  1.2D-01, -3.4D-01, r^2= 4.0D+00
   Bfn.  Coefficient  Atom+Function         Bfn.  Coefficient  Atom+Function  
  ----- ------------  ---------------      ----- ------------  ---------------
    98      2.614021   4 C  s               144      1.860554   8 H  s         
   102     -1.550035   4 C  px              103     -1.400930   4 C  py        
   145     -1.400897   8 H  s                45      1.297145   2 C  pz        
    97     -1.189581   4 C  s               150     -0.987057   9 H  s         
    36     -0.935547   2 C  s               106      0.788174   4 C  py        
 
 Vector   72  Occ=0.000000D+00  E= 1.541524D+00
              MO Center=  3.4D-01,  4.6D-01, -2.2D-01, r^2= 4.6D+00
   Bfn.  Coefficient  Atom+Function         Bfn.  Coefficient  Atom+Function  
  ----- ------------  ---------------      ----- ------------  ---------------
    36      4.215062   2 C  s                35     -3.639867   2 C  s         
    98     -3.641142   4 C  s                97      3.155053   4 C  s         
    67     -2.335711   3 C  s                73      2.153090   3 C  pz        
   132     -1.735500   6 H  s               138      1.405957   7 H  s         
   133      1.397574   6 H  s               102     -1.356360   4 C  px        
 
 Vector   73  Occ=0.000000D+00  E= 1.574769D+00
              MO Center=  5.0D-01, -3.1D-02, -7.2D-02, r^2= 3.2D+00
   Bfn.  Coefficient  Atom+Function         Bfn.  Coefficient  Atom+Function  
  ----- ------------  ---------------      ----- ------------  ---------------
    35      3.481618   2 C  s                36     -2.688584   2 C  s         
    40     -2.284426   2 C  px              126      1.878686   5 H  s         
    97     -1.753905   4 C  s                67      1.743570   3 C  s         
    72      1.729003   3 C  py               34     -1.430863   2 C  s         
    42     -1.374091   2 C  pz               45      1.372313   2 C  pz        
 
 Vector   74  Occ=0.000000D+00  E= 1.599409D+00
              MO Center=  3.2D-01,  4.1D-01, -1.4D-01, r^2= 3.4D+00
   Bfn.  Coefficient  Atom+Function         Bfn.  Coefficient  Atom+Function  
  ----- ------------  ---------------      ----- ------------  ---------------
    36     -5.193106   2 C  s                66     -4.876930   3 C  s         
    35      4.817337   2 C  s                67      3.806034   3 C  s         
    41      3.543022   2 C  py               71     -2.468813   3 C  px        
    72      2.164081   3 C  py               98      1.840349   4 C  s         
    40     -1.803891   2 C  px               82      1.664879   3 C  d -2      
 
 Vector   75  Occ=0.000000D+00  E= 1.642749D+00
              MO Center=  4.6D-01,  1.8D-01, -2.8D-02, r^2= 3.7D+00
   Bfn.  Coefficient  Atom+Function         Bfn.  Coefficient  Atom+Function  
  ----- ------------  ---------------      ----- ------------  ---------------
    66      2.773547   3 C  s                35      2.161879   2 C  s         
    98      2.038992   4 C  s                 5     -1.841161   1 O  s         
    97     -1.613310   4 C  s                67     -1.342291   3 C  s         
   144      1.155576   8 H  s               104     -1.118400   4 C  pz        
   150     -1.057395   9 H  s               103     -1.044765   4 C  py        
 
 Vector   76  Occ=0.000000D+00  E= 1.696104D+00
              MO Center=  4.8D-01,  2.3D-01, -3.9D-01, r^2= 3.8D+00
   Bfn.  Coefficient  Atom+Function         Bfn.  Coefficient  Atom+Function  
  ----- ------------  ---------------      ----- ------------  ---------------
    97     -5.637730   4 C  s                35      5.226061   2 C  s         
    42     -2.950156   2 C  pz              104     -2.929003   4 C  pz        
   102      1.769616   4 C  px               72     -1.663732   3 C  py        
    34     -1.591646   2 C  s                96      1.544477   4 C  s         
    40      1.458469   2 C  px                5     -1.409607   1 O  s         
 
 Vector   77  Occ=0.000000D+00  E= 1.699539D+00
              MO Center=  1.5D-02,  1.5D-01, -9.4D-02, r^2= 3.6D+00
   Bfn.  Coefficient  Atom+Function         Bfn.  Coefficient  Atom+Function  
  ----- ------------  ---------------      ----- ------------  ---------------
     5      3.817136   1 O  s                72      2.972052   3 C  py        
    36     -2.319768   2 C  s                66     -2.099789   3 C  s         
   138     -1.708589   7 H  s                12      1.476061   1 O  px        
    41      1.288462   2 C  py               43      1.200645   2 C  px        
    42      1.017028   2 C  pz               44     -0.996414   2 C  py        
 
 Vector   78  Occ=0.000000D+00  E= 1.786128D+00
              MO Center=  4.1D-01,  2.3D-01,  1.6D-02, r^2= 3.6D+00
   Bfn.  Coefficient  Atom+Function         Bfn.  Coefficient  Atom+Function  
  ----- ------------  ---------------      ----- ------------  ---------------
    35      2.867126   2 C  s                97     -2.710838   4 C  s         
    36      1.707144   2 C  s                45     -1.279822   2 C  pz        
   104     -1.170069   4 C  pz               67     -1.136438   3 C  s         
    42     -1.014270   2 C  pz              102      0.907498   4 C  px        
    96      0.901791   4 C  s               103     -0.877589   4 C  py        
 
 Vector   79  Occ=0.000000D+00  E= 1.814991D+00
              MO Center= -6.0D-01,  2.0D-01,  1.8D-01, r^2= 2.7D+00
   Bfn.  Coefficient  Atom+Function         Bfn.  Coefficient  Atom+Function  
  ----- ------------  ---------------      ----- ------------  ---------------
    35      3.961654   2 C  s                 5     -3.217504   1 O  s         
    40     -2.509068   2 C  px               41      2.186977   2 C  py        
    72      2.062184   3 C  py               66     -1.812256   3 C  s         
    71     -1.648490   3 C  px               12     -1.329659   1 O  px        
   132     -1.089402   6 H  s               138     -1.082686   7 H  s         
 
 Vector   80  Occ=0.000000D+00  E= 1.842840D+00
              MO Center=  7.9D-02,  2.9D-01, -1.1D-01, r^2= 3.7D+00
   Bfn.  Coefficient  Atom+Function         Bfn.  Coefficient  Atom+Function  
  ----- ------------  ---------------      ----- ------------  ---------------
    35      2.097607   2 C  s                36     -1.193912   2 C  s         
   156     -0.982596  10 H  s                71     -0.874539   3 C  px        
   104     -0.828166   4 C  pz                5     -0.675466   1 O  s         
   157      0.664499  10 H  s                97     -0.659867   4 C  s         
    67      0.650318   3 C  s               150      0.624304   9 H  s         
 
 Vector   81  Occ=0.000000D+00  E= 1.867119D+00
              MO Center=  4.9D-01,  2.0D-01, -4.2D-01, r^2= 4.0D+00
   Bfn.  Coefficient  Atom+Function         Bfn.  Coefficient  Atom+Function  
  ----- ------------  ---------------      ----- ------------  ---------------
    35      6.241088   2 C  s                66     -4.138163   3 C  s         
    72      3.382100   3 C  py               97     -3.292633   4 C  s         
    36      2.285626   2 C  s               104     -1.843138   4 C  pz        
    67     -1.701772   3 C  s                34     -1.595741   2 C  s         
    45     -1.421701   2 C  pz               41      1.411961   2 C  py        
 
 Vector   82  Occ=0.000000D+00  E= 1.923463D+00
              MO Center=  3.3D-01, -1.4D-01, -2.9D-01, r^2= 3.2D+00
   Bfn.  Coefficient  Atom+Function         Bfn.  Coefficient  Atom+Function  
  ----- ------------  ---------------      ----- ------------  ---------------
    98     -1.338308   4 C  s                36      1.312694   2 C  s         
    45     -1.219311   2 C  pz              103     -1.186538   4 C  py        
    35      1.161593   2 C  s                97     -1.102661   4 C  s         
    66     -0.997852   3 C  s                41      0.904541   2 C  py        
   150     -0.756538   9 H  s                42     -0.705557   2 C  pz        
 
 Vector   83  Occ=0.000000D+00  E= 1.991653D+00
              MO Center=  1.0D+00, -3.5D-01, -7.1D-01, r^2= 3.4D+00
   Bfn.  Coefficient  Atom+Function         Bfn.  Coefficient  Atom+Function  
  ----- ------------  ---------------      ----- ------------  ---------------
    98      4.753445   4 C  s                35      3.695691   2 C  s         
    36     -3.090275   2 C  s                66     -2.471148   3 C  s         
    40     -1.833779   2 C  px               72      1.756572   3 C  py        
    41      1.571736   2 C  py              107      1.467822   4 C  pz        
    43     -1.268233   2 C  px               34     -1.210256   2 C  s         
 
 Vector   84  Occ=0.000000D+00  E= 1.994734D+00
              MO Center=  4.5D-01,  8.6D-03, -3.9D-01, r^2= 3.4D+00
   Bfn.  Coefficient  Atom+Function         Bfn.  Coefficient  Atom+Function  
  ----- ------------  ---------------      ----- ------------  ---------------
    36      3.373731   2 C  s                67     -2.070214   3 C  s         
    98     -1.981042   4 C  s                45     -1.801320   2 C  pz        
    40     -1.352141   2 C  px                5     -1.155206   1 O  s         
    44      0.961007   2 C  py               43     -0.948322   2 C  px        
   126      0.862253   5 H  s                71     -0.796100   3 C  px        
 
 Vector   85  Occ=0.000000D+00  E= 2.086199D+00
              MO Center= -2.3D-03,  1.5D-01, -4.5D-02, r^2= 3.6D+00
   Bfn.  Coefficient  Atom+Function         Bfn.  Coefficient  Atom+Function  
  ----- ------------  ---------------      ----- ------------  ---------------
    36      2.318739   2 C  s                98     -2.291827   4 C  s         
   156      0.773785  10 H  s               138     -0.754895   7 H  s         
    14     -0.623457   1 O  pz               40     -0.601603   2 C  px        
   144      0.596199   8 H  s                45     -0.545016   2 C  pz        
   150      0.537753   9 H  s               105      0.507782   4 C  px        
 
 Vector   86  Occ=0.000000D+00  E= 2.093569D+00
              MO Center= -3.8D-01,  4.9D-02,  6.5D-02, r^2= 2.9D+00
   Bfn.  Coefficient  Atom+Function         Bfn.  Coefficient  Atom+Function  
  ----- ------------  ---------------      ----- ------------  ---------------
    36      5.803995   2 C  s                67     -5.567730   3 C  s         
    35     -3.103281   2 C  s                66      3.116398   3 C  s         
    41     -2.923541   2 C  py               71      2.659792   3 C  px        
    13      1.897934   1 O  py               82     -1.446629   3 C  d -2      
    75      1.352525   3 C  py               55      1.327367   2 C  d  2      
 
 Vector   87  Occ=0.000000D+00  E= 2.163808D+00
              MO Center=  4.8D-01, -1.6D-02, -4.8D-01, r^2= 3.3D+00
   Bfn.  Coefficient  Atom+Function         Bfn.  Coefficient  Atom+Function  
  ----- ------------  ---------------      ----- ------------  ---------------
    98      2.257066   4 C  s                67     -1.756366   3 C  s         
    35     -1.286904   2 C  s                73      1.017176   3 C  pz        
   156     -0.876543  10 H  s                40      0.869023   2 C  px        
    45      0.803477   2 C  pz               42     -0.798785   2 C  pz        
    43     -0.782606   2 C  px               44      0.774736   2 C  py        
 
 Vector   88  Occ=0.000000D+00  E= 2.200278D+00
              MO Center=  4.8D-01,  1.5D-01, -3.5D-01, r^2= 3.7D+00
   Bfn.  Coefficient  Atom+Function         Bfn.  Coefficient  Atom+Function  
  ----- ------------  ---------------      ----- ------------  ---------------
    98      2.035259   4 C  s                36     -1.317807   2 C  s         
    45      1.000991   2 C  pz               76     -0.928126   3 C  pz        
   132      0.790981   6 H  s               103     -0.724338   4 C  py        
    42     -0.708083   2 C  pz               97     -0.624761   4 C  s         
   117     -0.627215   4 C  d  2            138     -0.603486   7 H  s         
 
 Vector   89  Occ=0.000000D+00  E= 2.228389D+00
              MO Center=  6.0D-01,  5.6D-02, -3.7D-02, r^2= 3.6D+00
   Bfn.  Coefficient  Atom+Function         Bfn.  Coefficient  Atom+Function  
  ----- ------------  ---------------      ----- ------------  ---------------
    36      3.012348   2 C  s                67     -1.623870   3 C  s         
    98     -1.209631   4 C  s                 5     -1.169171   1 O  s         
    42     -1.047553   2 C  pz               72     -0.867987   3 C  py        
    43     -0.721491   2 C  px               45     -0.721098   2 C  pz        
   102      0.709496   4 C  px               51      0.670941   2 C  d -2      
 
 Vector   90  Occ=0.000000D+00  E= 2.244839D+00
              MO Center=  7.3D-01, -2.3D-01, -7.6D-01, r^2= 3.6D+00
   Bfn.  Coefficient  Atom+Function         Bfn.  Coefficient  Atom+Function  
  ----- ------------  ---------------      ----- ------------  ---------------
   150      1.327988   9 H  s                36      1.127864   2 C  s         
   144     -0.893670   8 H  s                66     -0.874329   3 C  s         
   117      0.826631   4 C  d  2             98     -0.794621   4 C  s         
    72      0.765047   3 C  py               67     -0.749403   3 C  s         
    83      0.524661   3 C  d -1            138      0.518862   7 H  s         
 
 Vector   91  Occ=0.000000D+00  E= 2.267151D+00
              MO Center=  9.0D-01, -2.3D-01, -1.1D+00, r^2= 3.1D+00
   Bfn.  Coefficient  Atom+Function         Bfn.  Coefficient  Atom+Function  
  ----- ------------  ---------------      ----- ------------  ---------------
    36      2.147861   2 C  s                66      2.045564   3 C  s         
    67     -1.442663   3 C  s                41     -1.415139   2 C  py        
    98     -1.400489   4 C  s                35     -1.114270   2 C  s         
   156      0.900965  10 H  s                72     -0.854859   3 C  py        
    71      0.842021   3 C  px               76      0.821476   3 C  pz        
 
 Vector   92  Occ=0.000000D+00  E= 2.278296D+00
              MO Center=  5.5D-01,  6.3D-02, -2.5D-01, r^2= 3.7D+00
   Bfn.  Coefficient  Atom+Function         Bfn.  Coefficient  Atom+Function  
  ----- ------------  ---------------      ----- ------------  ---------------
    98      3.513008   4 C  s                36     -2.361020   2 C  s         
[...]
    21     -0.885199   1 O  d -1             42     -0.775373   2 C  pz        
    45     -0.678185   2 C  pz               97     -0.674740   4 C  s         
     5     -0.525290   1 O  s                98     -0.506579   4 C  s         
    83     -0.496443   3 C  d -1             67     -0.478775   3 C  s         
 
 Vector  154  Occ=0.000000D+00  E= 6.681142D+00
              MO Center= -8.6D-01, -1.8D-01,  2.0D-01, r^2= 5.7D-01
   Bfn.  Coefficient  Atom+Function         Bfn.  Coefficient  Atom+Function  
  ----- ------------  ---------------      ----- ------------  ---------------
    18      1.065286   1 O  d  1             23     -1.051176   1 O  d  1      
    97     -0.853880   4 C  s                42     -0.794688   2 C  pz        
    35      0.764908   2 C  s               102      0.644372   4 C  px        
    54     -0.558245   2 C  d  1             14      0.408298   1 O  pz        
    11      0.404026   1 O  pz               16     -0.377401   1 O  d -1      
 
 Vector  155  Occ=0.000000D+00  E= 6.842857D+00
              MO Center= -8.7D-01, -1.8D-01,  2.0D-01, r^2= 5.9D-01
   Bfn.  Coefficient  Atom+Function         Bfn.  Coefficient  Atom+Function  
  ----- ------------  ---------------      ----- ------------  ---------------
     5      2.054379   1 O  s                40      1.751740   2 C  px        
     9      1.343930   1 O  px               97     -1.266914   4 C  s         
     4      1.189352   1 O  s                20      1.050546   1 O  d -2      
    42     -0.966414   2 C  pz               15     -0.835281   1 O  d -2      
    12      0.830854   1 O  px               35     -0.830292   2 C  s         
 
 Vector  156  Occ=0.000000D+00  E= 7.055890D+00
              MO Center= -8.8D-01, -1.8D-01,  2.0D-01, r^2= 6.3D-01
   Bfn.  Coefficient  Atom+Function         Bfn.  Coefficient  Atom+Function  
  ----- ------------  ---------------      ----- ------------  ---------------
    66     -3.145754   3 C  s                35      2.960016   2 C  s         
    40     -2.703116   2 C  px               72      2.681186   3 C  py        
    24     -1.581778   1 O  d  2             36      1.534557   2 C  s         
    67     -1.361417   3 C  s                10      1.299296   1 O  py        
    19      1.015795   1 O  d  2             13      0.887904   1 O  py        
 
 Vector  157  Occ=0.000000D+00  E= 2.193381D+01
              MO Center=  1.1D-01,  7.4D-01,  1.4D-03, r^2= 1.4D+00
   Bfn.  Coefficient  Atom+Function         Bfn.  Coefficient  Atom+Function  
  ----- ------------  ---------------      ----- ------------  ---------------
    64      1.554737   3 C  s                65     -1.319472   3 C  s         
    67     -1.294455   3 C  s                63     -1.225930   3 C  s         
    98      1.113849   4 C  s                95     -0.822377   4 C  s         
    96      0.684875   4 C  s                94      0.650506   4 C  s         
    40     -0.449525   2 C  px               35      0.410244   2 C  s         
 
 Vector  158  Occ=0.000000D+00  E= 2.198321D+01
              MO Center=  8.5D-01, -2.0D-01, -7.1D-01, r^2= 1.3D+00
   Bfn.  Coefficient  Atom+Function         Bfn.  Coefficient  Atom+Function  
  ----- ------------  ---------------      ----- ------------  ---------------
    95      1.420738   4 C  s                96     -1.313657   4 C  s         
    98     -1.147455   4 C  s                94     -1.117846   4 C  s         
    34     -0.885232   2 C  s                33      0.808757   2 C  s         
    36     -0.789798   2 C  s                65     -0.718770   3 C  s         
    64      0.691237   3 C  s                32     -0.631512   2 C  s         
 
 Vector  159  Occ=0.000000D+00  E= 2.209454D+01
              MO Center=  6.0D-01, -1.2D-01, -4.0D-02, r^2= 6.3D-01
   Bfn.  Coefficient  Atom+Function         Bfn.  Coefficient  Atom+Function  
  ----- ------------  ---------------      ----- ------------  ---------------
    36      2.194192   2 C  s                33     -1.581568   2 C  s         
    34      1.572681   2 C  s                35     -1.400637   2 C  s         
    32      1.238696   2 C  s                98     -1.237920   4 C  s         
    67     -1.147203   3 C  s                97      0.714701   4 C  s         
    95      0.656454   4 C  s                96     -0.599579   4 C  s         
 
 Vector  160  Occ=0.000000D+00  E= 4.342112D+01
              MO Center= -8.7D-01, -1.8D-01,  2.1D-01, r^2= 1.2D-01
   Bfn.  Coefficient  Atom+Function         Bfn.  Coefficient  Atom+Function  
  ----- ------------  ---------------      ----- ------------  ---------------
     4      2.531954   1 O  s                 3     -1.880848   1 O  s         
     2      1.731994   1 O  s                 1     -1.395916   1 O  s         
     5     -0.868121   1 O  s                36      0.836692   2 C  s         
     9      0.574010   1 O  px               66     -0.500022   3 C  s         
    40      0.494348   2 C  px               72      0.451048   3 C  py        
 

 center of mass
 --------------
 x =   0.30619341 y =   0.09486499 z =  -0.27792450

 moments of inertia (a.u.)
 ------------------
         201.312345664571          46.560096986307          84.203624208872
          46.560096986307         247.961854682977         -53.014448998325
          84.203624208872         -53.014448998325         238.993667247714
 
     Multipole analysis of the density
     ---------------------------------
 
     L   x y z        total         alpha         beta         nuclear
     -   - - -        -----         -----         ----         -------
     0   0 0 0     -0.000000    -16.000000    -16.000000     32.000000
 
     1   1 0 0      0.670164     -6.224843     -6.224843     13.119850
     1   0 1 0      0.319703     -1.623278     -1.623278      3.566259
     1   0 0 1     -0.055815      5.329688      5.329688    -10.715190
 
     2   2 0 0    -20.038004    -54.217314    -54.217314     88.396625
     2   1 1 0     -1.132041     14.154669     14.154669    -29.441380
     2   1 0 1      0.129111     26.626513     26.626513    -53.123916
     2   0 2 0    -17.830874    -40.681248    -40.681248     63.531622
     2   0 1 1      0.252654    -15.502937    -15.502937     31.258529
     2   0 0 2    -18.198410    -45.929216    -45.929216     73.660021
 
 *** CALLING NEW AORESP DRIVER FOR CLOSED AND OPEN SHELLS ***
 Entering AOResponse driver routine


--------------------------------------------------------------------------------

          ****************
          *** RESPONSE ***
          ****************

 Response module for NWChem and dynamic CPKS solver
 developed by J. Autschbach and coworkers, SUNY Buffalo
 The methodology used in this program is described in 
 ChemPhysChem 12 (2011), 3224-3235 (main reference)
 J. Chem. Phys. 123 (2005), 114103
 J. Chem. Phys. 122 (2005), 224115
 J. Chem. Phys. 122 (2005), 074105
 Comp. Lett. 3 (2007), 131-150 (contact JA for a copy)
 Please cite this work in publications based on results
 obtained with this code. Thank you!

 For extension of response module to open shell
 calculations please acknowledge:
 F. Aquino, Northwestern University, Schatz Rsrch Group
 The update to the methodology is described in
 J. Phys. Chem. A 118 (2014) 517-525



          -----------------------------------------------
          Solving response equations for perturbing field
          -----------------------------------------------

 number of frequencies:     1
 frequency in a.u.:  0.9319600E-01
 Perturbing field: electric
 Using GIAO formalism for OptRot
 Adding quadrupole terms to OptRot
 to create an origin in dependent tensor.
 Using El. Dipole Length Gauge
 
 Applying DAMPING constant of  0.003700 a.u.
 
 Setting up CPKS
 with frequency omega =      0.09319600 a.u.
 and a damping of            0.00370000 a.u.

 
                            NWChem Dynamic CPHF Module
                            --------------------------
 
 
    scftype = RHF 
    nclosed =   16
      nopen =    0
  variables =     9216
  num. vecs =        3
  tolerance =   1.0D-07
  max. iter =  100

 SCF residual:   5.537263196733078E-006


Iterative solution of linear equations
  No. of variables     4608
  No. of equations        3
  Maximum subspace       99
       Convergence  1.0D-07
        Start time     61.6


   iter   nsub   residual    time 
   ----  ------  --------  --------- 
 dft_CPHF2_read: failed to open
 ./methyloxirane_blyp-def2-tzvp_488.9_05.inp.aoresp_fiao_f1
     1      3    3.96D+00      91.0
     2      6    2.62D+00     120.4
     3      9    2.45D-01     149.8
     4     12    5.58D-02     179.3
     5     15    1.06D-02     208.2
     6     18    1.30D-03     237.2
     7     21    1.39D-04     266.3
     8     24    1.36D-05     295.1
     9     27    1.17D-06     324.0
    10     30    4.89D-07     352.9
    11     33    1.38D-08     381.8

 Calculating some arrays needed for GIAO optical rotation

    0 giaofock schwarz done =      93.09%
    0 giaofock schwarz done =      93.09%
 aor_r1_tensor_giao: roadata output requested
 dip-quad polarizability Re:

              1        2        3        4        5        6      
    1   77.6203  -6.0629 -27.6896  -4.7459   0.9443   8.9518
    2  -11.7110  25.6386   3.3781  23.7455 -21.7264   3.6841
    3   -6.6018   0.9854  39.3223  -0.1486  13.8666 -41.3241
 traceless dip-quad polarizability:

              1        2        3      
    1   75.5173  -9.0943 -41.5344
    2   -9.0943 -48.0319   1.4165
    3  -41.5344   1.4165 -27.4854

              1        2        3      
    1  -25.4259  38.4579   5.0672
    2   38.4579  27.7590 -32.5897
    3    5.0672 -32.5897  -2.3331

              1        2        3      
    1   14.1346   1.4781  58.9835
    2    1.4781  23.8143  20.7999
    3   58.9835  20.7999 -37.9489

 roa begin

 alpha real:
 XX       0.4089281124476E+02
 XY      -0.5384330907529E+01
 XZ      -0.3087662450723E+01
 YX      -0.5384330921209E+01
 YY       0.4421774847145E+02
 YZ       0.3233712724399E+01
 ZX      -0.3087662458698E+01
 ZY       0.3233712723561E+01
 ZZ       0.4158506264154E+02

 alpha im:
 XX       0.1105568864053E+00
 XY      -0.3116787580669E-01
 XZ      -0.1146986114310E-01
 YX      -0.3116787049490E-01
 YY       0.1305733008271E+00
 YZ       0.1876960856779E-01
 ZX      -0.1146985817297E-01
 ZY       0.1876961106669E-01
 ZZ       0.1235030706292E+00

 beta real:
 XX      -0.1399526257710E+00
 XY       0.9417429321383E+00
 XZ       0.2068376481886E+00
 YX      -0.8783517501027E+00
 YY       0.1538487436557E+00
 YZ      -0.1568180591891E+01
 ZX      -0.4863366050198E+00
 ZY       0.1886674045411E+01
 ZZ      -0.1700032475580E-01

 G-prime = -omega beta(real):
 XX      -0.1399526257710E+00
 XY       0.9417429321383E+00
 XZ       0.2068376481886E+00
 YX      -0.8783517501027E+00
 YY       0.1538487436557E+00
 YZ      -0.1568180591891E+01
 ZX      -0.4863366050198E+00
 ZY       0.1886674045411E+01
 ZZ      -0.1700032475580E-01

 beta im:
 XX      -0.5965635644370E-02
 XY       0.1338364025791E-01
 XZ       0.3046150910046E-02
 YX      -0.7161376770080E-02
 YY       0.5014681986192E-02
 YZ      -0.2422880647914E-01
 ZX      -0.1354009795136E-01
 ZY       0.4074618915342E-01
 ZZ       0.1665855544399E-03

 G-prime = -omega beta(imag):
 XX      -0.5965635644370E-02
 XY       0.1338364025791E-01
 XZ       0.3046150910046E-02
 YX      -0.7161376770080E-02
 YY       0.5014681986192E-02
 YZ      -0.2422880647914E-01
 ZX      -0.1354009795136E-01
 ZY       0.4074618915342E-01
 ZZ       0.1665855544399E-03

 dipole-quadrupole real (Cartesian):
 XXX      0.7762028284599E+02
 XXY     -0.6062873098401E+01
 XXZ     -0.2768956886879E+02
 XYY     -0.4745858634027E+01
 XYZ      0.9443240931559E+00
 XZZ      0.8951767528114E+01
 YXX     -0.1171104870373E+02
 YXY      0.2563859908643E+02
 YXZ      0.3378102999411E+01
 YYY      0.2374549946788E+02
 YYZ     -0.2172644118434E+02
 YZZ      0.3684131345536E+01
 ZXX     -0.6601755465047E+01
 ZXY      0.9854009960597E+00
 ZXZ      0.3932232898655E+02
 ZYY     -0.1486287464624E+00
 ZYZ      0.1386662301132E+02
 ZZZ     -0.4132409247526E+02

 dipole-quadrupole imag (Cartesian):
 XXX      0.2717671125441E+00
 XXY     -0.3401433900129E-01
 XXZ     -0.7715946924128E-01
 XYY     -0.3055012116629E-01
 XYZ      0.7315512103899E-03
 XZZ      0.6028769147178E-01
 YXX     -0.5727887313934E-01
 YXY      0.6216528116059E-01
 YXZ      0.1952722570724E-01
 YYY      0.9494315378744E-01
 YYZ     -0.6131945242911E-01
 YZZ      0.6383655164888E-02
 ZXX     -0.3390164537956E-01
 ZXY     -0.8975964326951E-03
 ZXZ      0.1467601244633E+00
 ZYY      0.5410039182995E-02
 ZYZ      0.6547708551494E-01
 ZZZ     -0.9731509748751E-01

 dipole-quadrupole (traceless):
 XXX      0.7551732839894E+02
 XXY     -0.9094309647601E+01
 XXZ     -0.4153435330318E+02
 XYY     -0.4803188382108E+02
 XYZ      0.1416486139734E+01
 XZZ     -0.2748544457787E+02
 YXX     -0.2542586411044E+02
 YXY      0.3845789862965E+02
 YXZ      0.5067154499116E+01
 YYY      0.2775895814698E+02
 YYZ     -0.3258966177650E+02
 YZZ     -0.2333094036539E+01
 ZXX      0.1413460514581E+02
 ZXY      0.1478101494090E+01
 ZXZ      0.5898349347982E+02
 ZYY      0.2381429522369E+02
 ZYZ      0.2079993451699E+02
 ZZZ     -0.3794890036951E+02

 roa end


 Electric Dipole Response Matrix (nonzero elements):

              1        2        3      
    1   40.8928  -5.3843  -3.0877
    2   -5.3843  44.2177   3.2337
    3   -3.0877   3.2337  41.5851
 
 Imaginary part:

              1        2        3      
    1    0.1106  -0.0312  -0.0115
    2   -0.0312   0.1306   0.0188
    3   -0.0115   0.0188   0.1235

 ------------------------------------------
 average:        42.23187 + I       0.12154


 DFT Linear Response polarizability / au 
 Frequency  =       0.0931960 / au
 Wavelength =     488.8981609 / nm
              X              Y              Z
 -----------------------------------------------
 X      40.8928112     -5.3843309     -3.0876625
 Y      -5.3843309     44.2177485      3.2337127
 Z      -3.0876625      3.2337127     41.5850626
 -----------------------------------------------
 Eigenvalues =      36.8152597     50.4223678     39.4579948
 Isotropic   =      42.2318741
 Anisotropic =      10.2038378
 -----------------------------------------------
 *************************

 DFT Linear Response IMAG polarizability / au 
 Frequency  =       0.0931960 / au
 Wavelength =     488.8981609 / nm
              X              Y              Z
 -----------------------------------------------
 X       0.1105569     -0.0311679     -0.0114699
 Y      -0.0311679      0.1305733      0.0187696
 Z      -0.0114699      0.0187696      0.1235031
 -----------------------------------------------
 Eigenvalues =       0.0877171      0.1649178      0.1119984
 Isotropic   =       0.1215444
 Anisotropic =       0.0558271
 -----------------------------------------------
 *************************

 Magnetic Dipole Response Matrix (nonzero elements):
 Optical rotation tensor Beta
 (Buckingham-Dunn version including dipole-quadrupole terms)

              1        2        3      
    1    2.6981  -0.4626   0.3659
    2   -0.4626  -1.6303  -1.7122
    3    0.3659  -1.7122  -1.0345
 
 Imaginary part:

              1        2        3      
    1    0.0640  -0.1436  -0.0327
    2    0.0768  -0.0538   0.2600
    3    0.1453  -0.4372  -0.0018

 ------------------------------------------
 average:         0.01110 + I       0.00281

 Principal components and PAS (Real part)
                 -3.07277
                  2.83770
                  0.26838
 ------------------------
 average:         0.01110

              1        2        3      
    1    0.0209   0.9727  -0.2310
    2    0.7674  -0.1637  -0.6200
    3    0.6409   0.1643   0.7499

 Chiral response tensor (Real part):

              1        2        3      
    1   -1.3324   0.2313  -0.1830
    2    0.2313   0.8318   0.8561
    3   -0.1830   0.8561   0.5339
 
 Principal components and PAS (Real part)
                  1.55304
                 -1.40220
                 -0.11753
 ------------------------
 average:         0.01110

              1        2        3      
    1    0.0209   0.9727  -0.2310
    2    0.7674  -0.1637  -0.6200
    3    0.6409   0.1643   0.7499
 Exiting AOResponse driver routine

 Task  times  cpu:      371.6s     wall:      381.8s
 
 
                                NWChem Input Module
                                -------------------
 
 
 Summary of allocated global arrays
-----------------------------------
  No active global arrays



                         GA Statistics for process    0
                         ------------------------------

       create   destroy   get      put      acc     scatter   gather  read&inc
calls: 3294     3294     7.51e+06 3.14e+06 7.10e+05 2694        0     1039     
number of processes/call 1.01e+00 1.03e+00 1.42e+00 0.00e+00 0.00e+00
bytes total:             1.51e+09 1.26e+08 1.68e+09 1.84e+02 0.00e+00 8.31e+03
bytes remote:            6.02e+08 3.29e+07 9.35e+08 0.00e+00 0.00e+00 0.00e+00
Max memory consumed for GA by this process: 11242192 bytes
 
MA_summarize_allocated_blocks: starting scan ...
MA_summarize_allocated_blocks: scan completed: 0 heap blocks, 0 stack blocks
MA usage statistics:

	allocation statistics:
					      heap	     stack
					      ----	     -----
	current number of blocks	         0	         0
	maximum number of blocks	        24	        52
	current total bytes		         0	         0
	maximum total bytes		   7519840	  48709816
	maximum total K-bytes		      7520	     48710
	maximum total M-bytes		         8	        49
 
 
                                     CITATION
                                     --------
                Please cite the following reference when publishing
                           results obtained with NWChem:
 
                 M. Valiev, E.J. Bylaska, N. Govind, K. Kowalski,
              T.P. Straatsma, H.J.J. van Dam, D. Wang, J. Nieplocha,
                        E. Apra, T.L. Windus, W.A. de Jong
                 "NWChem: a comprehensive and scalable open-source
                  solution for large scale molecular simulations"
                      Comput. Phys. Commun. 181, 1477 (2010)
                           doi:10.1016/j.cpc.2010.04.018
 
                                      AUTHORS
                                      -------
          E. Apra, E. J. Bylaska, W. A. de Jong, N. Govind, K. Kowalski,
       T. P. Straatsma, M. Valiev, H. J. J. van Dam, D. Wang, T. L. Windus,
        J. Hammond, J. Autschbach, K. Bhaskaran-Nair, J. Brabec, K. Lopata,
    S. A. Fischer, S. Krishnamoorthy, M. Jacquelin, W. Ma, M. Klemm, O. Villa,
      Y. Chen, V. Anisimov, F. Aquino, S. Hirata, M. T. Hackler, V. Konjkov,
            D. Mejia-Rodriguez, T. Risthaus, M. Malagoli, A. Marenich,
   A. Otero-de-la-Roza, J. Mullin, P. Nichols, R. Peverati, J. Pittner, Y. Zhao,
        P.-D. Fan, A. Fonari, M. J. Williamson, R. J. Harrison, J. R. Rehr,
      M. Dupuis, D. Silverstein, D. M. A. Smith, J. Nieplocha, V. Tipparaju,
    M. Krishnan, B. E. Van Kuiken, A. Vazquez-Mayagoitia, L. Jensen, M. Swart,
      Q. Wu, T. Van Voorhis, A. A. Auer, M. Nooijen, L. D. Crosby, E. Brown,
      G. Cisneros, G. I. Fann, H. Fruchtl, J. Garza, K. Hirao, R. A. Kendall,
      J. A. Nichols, K. Tsemekhman, K. Wolinski, J. Anchell, D. E. Bernholdt,
      P. Borowski, T. Clark, D. Clerc, H. Dachsel, M. J. O. Deegan, K. Dyall,
    D. Elwood, E. Glendening, M. Gutowski, A. C. Hess, J. Jaffe, B. G. Johnson,
     J. Ju, R. Kobayashi, R. Kutteh, Z. Lin, R. Littlefield, X. Long, B. Meng,
      T. Nakajima, S. Niu, L. Pollack, M. Rosing, K. Glaesemann, G. Sandrone,
      M. Stave, H. Taylor, G. Thomas, J. H. van Lenthe, A. T. Wong, Z. Zhang.

 Total times  cpu:      419.3s     wall:      430.7s
