 argument  1 = methyloxirane_blyp-def2-tzvp_488.9_40.inp
 


============================== echo of input deck ==============================
echo
start methyloxirane_blyp-def2-tzvp_488.9_40.inp
title "methyloxirane roa calculations at 488.9 nm, input generated in va  with delta_type=2"
charge 0



geometry units angstrom nocenter noautoz noautosym nucleus point;symmetry c1
 O -0.879081 -0.180220  0.205264
 C  0.574065 -0.156450  0.122823
 C -0.185410  1.088459  0.340119
 C  1.185940 -0.518930 -1.211489
 H  1.058785 -0.605796  0.996542
 H -0.227942  1.534234  1.337139
 H -0.325480  1.779108 -0.495736
 H  2.246651 -0.229827 -1.232996
 H  1.146692 -1.603514 -1.387824
 H  0.636043 -0.041340 -2.032009
end

basis spherical
* library def2-TZVP
end

 set prop:newaoresp 1
 set aor:roadata T
 set cphf:maxsub 100
 set cphf:acc 1.0d-10
 set cphf:maxiter 100

property
    response 1   0.093196
    bdtensor
    convergence 1e-7
    damping 0.0037
    giao
end

dft
 direct
 mult 1
 xc becke88 lyp
 iterations 250
 tolerances tight
 grid xfine
 convergence nolevelshifting
 convergence energy 1e-8
 convergence gradient 1e-7


end

task dft gradient
task dft property
================================================================================


                                         
                                         
 
 
              Northwest Computational Chemistry Package (NWChem) 6.8
              ------------------------------------------------------
 
 
                    Environmental Molecular Sciences Laboratory
                       Pacific Northwest National Laboratory
                                Richland, WA 99352
 
                              Copyright (c) 1994-2017
                       Pacific Northwest National Laboratory
                            Battelle Memorial Institute
 
             NWChem is an open-source computational chemistry package
                        distributed under the terms of the
                      Educational Community License (ECL) 2.0
             A copy of the license is included with this distribution
                              in the LICENSE.TXT file
 
                                  ACKNOWLEDGMENT
                                  --------------

            This software and its documentation were developed at the
            EMSL at Pacific Northwest National Laboratory, a multiprogram
            national laboratory, operated for the U.S. Department of Energy
            by Battelle under Contract Number DE-AC05-76RL01830. Support
            for this work was provided by the Department of Energy Office
            of Biological and Environmental Research, Office of Basic
            Energy Sciences, and the Office of Advanced Scientific Computing.


           Job information
           ---------------

    hostname        = cpn-d12-07.cbls.ccr.buffalo.edu
    program         = /util/academic/nwchem/nwchem-6.8/bin/LINUX64/nwchem
    date            = Fri Mar  1 10:38:33 2019

    compiled        = Tue_Nov_06_14:59:08_2018
    source          = /util/academic/nwchem/nwchem-6.8
    nwchem branch   = 6.8
    nwchem revision = v6.8-47-gdf6c956
    ga revision     = ga-5.6.3
    use scalapack   = F
    input           = methyloxirane_blyp-def2-tzvp_488.9_40.inp
    prefix          = methyloxirane_blyp-def2-tzvp_488.9_40.inp.
    data base       = ./methyloxirane_blyp-def2-tzvp_488.9_40.inp.db
    status          = startup
    nproc           =        7
    time left       =     -1s



           Memory information
           ------------------

    heap     =   13107196 doubles =    100.0 Mbytes
    stack    =   13107201 doubles =    100.0 Mbytes
    global   =   26214400 doubles =    200.0 Mbytes (distinct from heap & stack)
    total    =   52428797 doubles =    400.0 Mbytes
    verify   = yes
    hardfail = no 


           Directory information
           ---------------------
 
  0 permanent = .
  0 scratch   = .
 
 
 
 
                                NWChem Input Module
                                -------------------
 
 
                    methyloxirane roa calculations at 488.9 nm, input generated in va  with delta_type=2
                    ------------------------------------------

 Scaling coordinates for geometry "geometry" by  1.889725989
 (inverse scale =  0.529177249)

 
 
                             Geometry "geometry" -> ""
                             -------------------------
 
 Output coordinates in angstroms (scale by  1.889725989 to convert to a.u.)
 
  No.       Tag          Charge          X              Y              Z
 ---- ---------------- ---------- -------------- -------------- --------------
    1 O                    8.0000    -0.87908100    -0.18022000     0.20526400
    2 C                    6.0000     0.57406500    -0.15645000     0.12282300
    3 C                    6.0000    -0.18541000     1.08845900     0.34011900
    4 C                    6.0000     1.18594000    -0.51893000    -1.21148900
    5 H                    1.0000     1.05878500    -0.60579600     0.99654200
    6 H                    1.0000    -0.22794200     1.53423400     1.33713900
    7 H                    1.0000    -0.32548000     1.77910800    -0.49573600
    8 H                    1.0000     2.24665100    -0.22982700    -1.23299600
    9 H                    1.0000     1.14669200    -1.60351400    -1.38782400
   10 H                    1.0000     0.63604300    -0.04134000    -2.03200900
 
      Atomic Mass 
      ----------- 
 
      O                 15.994910
      C                 12.000000
      H                  1.007825
 

 Effective nuclear repulsion energy (a.u.)     123.5469960370

            Nuclear Dipole moment (a.u.) 
            ----------------------------
        X                 Y               Z
 ---------------- ---------------- ----------------
    13.1329739008     3.5329920240   -10.7035100445
 
 
            XYZ format geometry
            -------------------
    10
 geometry
 O                    -0.87908100    -0.18022000     0.20526400
 C                     0.57406500    -0.15645000     0.12282300
 C                    -0.18541000     1.08845900     0.34011900
 C                     1.18594000    -0.51893000    -1.21148900
 H                     1.05878500    -0.60579600     0.99654200
 H                    -0.22794200     1.53423400     1.33713900
 H                    -0.32548000     1.77910800    -0.49573600
 H                     2.24665100    -0.22982700    -1.23299600
 H                     1.14669200    -1.60351400    -1.38782400
 H                     0.63604300    -0.04134000    -2.03200900
 
 ==============================================================================
                                internuclear distances
 ------------------------------------------------------------------------------
       center one      |      center two      | atomic units |  angstroms
 ------------------------------------------------------------------------------
    2 C                |   1 O                |     2.75083  |     1.45568
    3 C                |   1 O                |     2.74428  |     1.45221
    3 C                |   2 C                |     2.78619  |     1.47439
    4 C                |   2 C                |     2.85728  |     1.51201
    5 H                |   2 C                |     2.07031  |     1.09556
    6 H                |   3 C                |     2.06540  |     1.09297
    7 H                |   3 C                |     2.06601  |     1.09328
    8 H                |   4 C                |     2.07797  |     1.09961
    9 H                |   4 C                |     2.07780  |     1.09953
   10 H                |   4 C                |     2.07331  |     1.09715
 ------------------------------------------------------------------------------
                         number of included internuclear distances:         10
 ==============================================================================



 ==============================================================================
                                 internuclear angles
 ------------------------------------------------------------------------------
        center 1       |       center 2       |       center 3       |  degrees
 ------------------------------------------------------------------------------
    2 C                |   1 O                |   3 C                |    60.93
    2 C                |   1 O                |   3 C                |    60.93
    1 O                |   2 C                |   4 C                |   116.75
    1 O                |   2 C                |   5 H                |   112.94
    3 C                |   2 C                |   4 C                |   122.75
    3 C                |   2 C                |   5 H                |   117.17
    4 C                |   2 C                |   5 H                |   115.24
    3 C                |   1 O                |   2 C                |    60.93
    1 O                |   3 C                |   6 H                |   114.99
    1 O                |   3 C                |   7 H                |   114.81
    2 C                |   3 C                |   6 H                |   119.93
    2 C                |   3 C                |   7 H                |   119.12
    6 H                |   3 C                |   7 H                |   115.77
    2 C                |   4 C                |   8 H                |   110.16
    2 C                |   4 C                |   9 H                |   111.32
    2 C                |   4 C                |  10 H                |   110.66
    8 H                |   4 C                |   9 H                |   106.90
    8 H                |   4 C                |  10 H                |   110.76
    9 H                |   4 C                |  10 H                |   106.95
 ------------------------------------------------------------------------------
                            number of included internuclear angles:         19
 ==============================================================================



  warning:::::::::::::: from_environment
  NWCHEM_BASIS_LIBRARY set to: <
 /util/academic/nwchem/nwchem-6.8/src/basis/libraries>
  but file does not exist !
  using .nwchemrc or compiled library


 Summary of "ao basis" -> "" (spherical)
 ------------------------------------------------------------------------------
       Tag                 Description            Shells   Functions and Types
 ---------------- ------------------------------  ------  ---------------------
 *                         def2-TZVP                  on all atoms 


 
                                 NWChem DFT Module
                                 -----------------
 
 
                    methyloxirane roa calculations at 488.9 nm, input generated in va  with delta_type=2
 
 
                      Basis "ao basis" -> "ao basis" (spherical)
                      -----
  O (Oxygen)
  ----------
            Exponent  Coefficients 
       -------------- ---------------------------------------------------------
  1 S  2.70323826E+04  0.000217
  1 S  4.05238714E+03  0.001684
  1 S  9.22327227E+02  0.008740
  1 S  2.61240710E+02  0.035240
  1 S  8.53546414E+01  0.111535
  1 S  3.10350352E+01  0.255890
 
  2 S  1.22608607E+01  0.397687
  2 S  4.99870760E+00  0.246278
 
  3 S  1.17031082E+00  1.000000
 
  4 S  4.64747410E-01  1.000000
 
  5 S  1.85045364E-01  1.000000
 
  6 P  6.32749548E+01  0.006069
  6 P  1.46270494E+01  0.041913
  6 P  4.45012235E+00  0.161538
  6 P  1.52757996E+00  0.357070
 
  7 P  5.29351179E-01  1.000000
 
  8 P  1.74784213E-01  1.000000
 
  9 D  2.31400000E+00  1.000000
 
 10 D  6.45000000E-01  1.000000
 
 11 F  1.42800000E+00  1.000000
 
  C (Carbon)
  ----------
            Exponent  Coefficients 
       -------------- ---------------------------------------------------------
  1 S  1.35753497E+04  0.000222
  1 S  2.03523337E+03  0.001723
  1 S  4.63225624E+02  0.008926
  1 S  1.31200196E+02  0.035728
  1 S  4.28530159E+01  0.110763
  1 S  1.55841858E+01  0.242956
 
  2 S  6.20671385E+00  0.414403
  2 S  2.57648965E+00  0.237450
 
  3 S  5.76963394E-01  1.000000
 
  4 S  2.29728314E-01  1.000000
 
  5 S  9.51644400E-02  1.000000
 
  6 P  3.46972322E+01  0.005333
  6 P  7.95826228E+00  0.035864
  6 P  2.37808269E+00  0.142159
  6 P  8.14332082E-01  0.342705
 
  7 P  2.88875473E-01  1.000000
 
  8 P  1.00568237E-01  1.000000
 
  9 D  1.09700000E+00  1.000000
 
 10 D  3.18000000E-01  1.000000
 
 11 F  7.61000000E-01  1.000000
 
  H (Hydrogen)
  ------------
            Exponent  Coefficients 
       -------------- ---------------------------------------------------------
  1 S  3.40613410E+01  0.006025
  1 S  5.12357460E+00  0.045021
  1 S  1.16466260E+00  0.201897
 
  2 S  3.27230410E-01  1.000000
 
  3 S  1.03072410E-01  1.000000
 
  4 P  8.00000000E-01  1.000000
 


 Summary of "ao basis" -> "ao basis" (spherical)
 ------------------------------------------------------------------------------
       Tag                 Description            Shells   Functions and Types
 ---------------- ------------------------------  ------  ---------------------
 O                         def2-TZVP                11       31   5s3p2d1f
 C                         def2-TZVP                11       31   5s3p2d1f
 H                         def2-TZVP                 4        6   3s1p




 Summary of "ao basis" -> "ao basis" (spherical)
 ------------------------------------------------------------------------------
       Tag                 Description            Shells   Functions and Types
 ---------------- ------------------------------  ------  ---------------------
 O                         def2-TZVP                11       31   5s3p2d1f
 C                         def2-TZVP                11       31   5s3p2d1f
 H                         def2-TZVP                 4        6   3s1p


  Caching 1-el integrals 
  itol2e modified to match energy
  convergence criterion.
  tol_rho modified to match energy
  convergence criterion.
 
            General Information
            -------------------
          SCF calculation type: DFT
          Wavefunction type:  closed shell.
          No. of atoms     :    10
          No. of electrons :    32
           Alpha electrons :    16
            Beta electrons :    16
          Charge           :     0
          Spin multiplicity:     1
          Use of symmetry is: off; symmetry adaption is: off
          Maximum number of iterations: 250
          This is a Direct SCF calculation.
          AO basis - number of functions:   160
                     number of shells:    68
          Convergence on energy requested:  1.00D-08
          Convergence on density requested:  1.00D-05
          Convergence on gradient requested:  1.00D-07
 
              XC Information
              --------------
                    Becke 1988 Exchange Functional  1.000          
              Lee-Yang-Parr Correlation Functional  1.000          
 
             Grid Information
             ----------------
          Grid used for XC integration:  xfine     
          Radial quadrature: Mura-Knowles        
          Angular quadrature: Lebedev. 
          Tag              B.-S. Rad. Rad. Pts. Rad. Cut. Ang. Pts.
          ---              ---------- --------- --------- ---------
          O                   0.60      100          11.0      1454
          C                   0.70      100          11.0      1454
          H                   0.35      100          12.0      1202
          Grid pruning is: on 
          Number of quadrature shells:  1000
          Spatial weights used:  Erf1
 
          Convergence Information
          -----------------------
          Convergence aids based upon iterative change in 
          total energy or number of iterations. 
          Levelshifting, if invoked, occurs when the 
          HOMO/LUMO gap drops below (HL_TOL):  1.00D-02
          DIIS, if invoked, will attempt to extrapolate 
          using up to (NFOCK): 10 stored Fock matrices.

                    Damping( 0%)  Levelshifting(0.0)       DIIS
                  --------------- ------------------- ---------------
          dE  on:    start             N/A                start   
          dE off:    2 iters           N/A              250 iters 

 
      Screening Tolerance Information
      -------------------------------
          Density screening/tol_rho:  1.00D-11
          AO Gaussian exp screening on grid/accAOfunc:  18
          CD Gaussian exp screening on grid/accCDfunc:  20
          XC Gaussian exp screening on grid/accXCfunc:  20
          Schwarz screening/accCoul:  1.00D-09

 
      Superposition of Atomic Density Guess
      -------------------------------------
 
 Sum of atomic energies:        -190.79714706
 
      Non-variational initial energy
      ------------------------------

 Total energy =    -193.163094
 1-e energy   =    -502.055116
 2-e energy   =     185.345026
 HOMO         =      -0.351395
 LUMO         =       0.090733
 
   Time after variat. SCF:      0.9
   Time prior to 1st pass:      0.9

 Grid_pts file          = ./methyloxirane_blyp-def2-tzvp_488.9_40.inp.gridpts.0
 Record size in doubles =  12289        No. of grid_pts per rec  =   3070
 Max. records in memory =     76        Max. recs in file   =    317624


           Memory utilization after 1st SCF pass: 
           Heap Space remaining (MW):       12.17            12167540
          Stack Space remaining (MW):       13.11            13106124

   convergence    iter        energy       DeltaE   RMS-Dens  Diis-err    time
 ---------------- ----- ----------------- --------- --------- ---------  ------
 d= 0,ls=0.0,diis     1   -193.0199559491 -3.17D+02  9.16D-03  1.06D+00     7.2
 d= 0,ls=0.0,diis     2   -192.8571951556  1.63D-01  7.57D-03  2.57D+00    13.3
 d= 0,ls=0.0,diis     3   -193.0770378468 -2.20D-01  1.82D-03  3.86D-01    19.4
 d= 0,ls=0.0,diis     4   -193.1071382223 -3.01D-02  6.83D-04  1.83D-02    25.5
 d= 0,ls=0.0,diis     5   -193.1088158360 -1.68D-03  2.92D-04  2.71D-03    31.6
 d= 0,ls=0.0,diis     6   -193.1091527885 -3.37D-04  3.04D-05  3.57D-05    37.7
 d= 0,ls=0.0,diis     7   -193.1091570511 -4.26D-06  8.78D-06  4.03D-06    43.7
 d= 0,ls=0.0,diis     8   -193.1091575066 -4.56D-07  1.91D-06  2.75D-07    49.8
 d= 0,ls=0.0,diis     9   -193.1091575374 -3.08D-08  5.89D-07  1.20D-08    55.9
 d= 0,ls=0.0,diis    10   -193.1091575390 -1.53D-09  1.09D-07  2.94D-10    61.9


         Total DFT energy =     -193.109157538956
      One electron energy =     -505.710825725801
           Coulomb energy =      216.075599547995
    Exchange-Corr. energy =      -27.020927398145
 Nuclear repulsion energy =      123.546996036996

 Numeric. integr. density =       31.999999993011

     Total iterative time =     61.0s


 
                       DFT Final Molecular Orbital Analysis
                       ------------------------------------
 
 Vector    1  Occ=2.000000D+00  E=-1.877958D+01
              MO Center= -8.8D-01, -1.8D-01,  2.1D-01, r^2= 1.5D-02
   Bfn.  Coefficient  Atom+Function         Bfn.  Coefficient  Atom+Function  
  ----- ------------  ---------------      ----- ------------  ---------------
     2      0.638477   1 O  s                 1      0.435422   1 O  s         
     3      0.039891   1 O  s                 4     -0.033251   1 O  s         
 
 Vector    2  Occ=2.000000D+00  E=-9.963173D+00
              MO Center=  5.7D-01, -1.6D-01,  1.2D-01, r^2= 2.8D-02
   Bfn.  Coefficient  Atom+Function         Bfn.  Coefficient  Atom+Function  
  ----- ------------  ---------------      ----- ------------  ---------------
    33      0.606911   2 C  s                32      0.467261   2 C  s         
    34      0.042510   2 C  s                36      0.037364   2 C  s         
    35     -0.027227   2 C  s         
 
 Vector    3  Occ=2.000000D+00  E=-9.955643D+00
              MO Center= -1.9D-01,  1.1D+00,  3.4D-01, r^2= 2.8D-02
   Bfn.  Coefficient  Atom+Function         Bfn.  Coefficient  Atom+Function  
  ----- ------------  ---------------      ----- ------------  ---------------
    64      0.607025   3 C  s                63      0.467221   3 C  s         
    65      0.039680   3 C  s         
 
 Vector    4  Occ=2.000000D+00  E=-9.907985D+00
              MO Center=  1.2D+00, -5.2D-01, -1.2D+00, r^2= 2.8D-02
   Bfn.  Coefficient  Atom+Function         Bfn.  Coefficient  Atom+Function  
  ----- ------------  ---------------      ----- ------------  ---------------
    95      0.606962   4 C  s                94      0.467216   4 C  s         
    96      0.040613   4 C  s                98      0.035799   4 C  s         
 
 Vector    5  Occ=2.000000D+00  E=-9.625638D-01
              MO Center= -4.7D-01,  5.7D-02,  2.1D-01, r^2= 6.5D-01
   Bfn.  Coefficient  Atom+Function         Bfn.  Coefficient  Atom+Function  
  ----- ------------  ---------------      ----- ------------  ---------------
     4      0.375018   1 O  s                 3      0.277305   1 O  s         
     2     -0.192704   1 O  s                34      0.139896   2 C  s         
    65      0.139292   3 C  s                 5      0.122746   1 O  s         
    35      0.105001   2 C  s                 6      0.093277   1 O  px        
    66      0.093635   3 C  s                69     -0.091453   3 C  py        
 
 Vector    6  Occ=2.000000D+00  E=-6.696333D-01
              MO Center=  9.4D-01, -3.9D-01, -7.7D-01, r^2= 1.5D+00
   Bfn.  Coefficient  Atom+Function         Bfn.  Coefficient  Atom+Function  
  ----- ------------  ---------------      ----- ------------  ---------------
    97      0.285086   4 C  s                96      0.276243   4 C  s         
    35      0.185208   2 C  s                34      0.174429   2 C  s         
    95     -0.173927   4 C  s                 4     -0.147820   1 O  s         
    33     -0.108989   2 C  s                 3     -0.103339   1 O  s         
    94     -0.083336   4 C  s                 5     -0.073239   1 O  s         
 
 Vector    7  Occ=2.000000D+00  E=-5.899327D-01
              MO Center= -1.3D-01,  7.1D-01,  2.2D-01, r^2= 2.0D+00
   Bfn.  Coefficient  Atom+Function         Bfn.  Coefficient  Atom+Function  
  ----- ------------  ---------------      ----- ------------  ---------------
    66      0.325985   3 C  s                65      0.277939   3 C  s         
     4     -0.238781   1 O  s                64     -0.171787   3 C  s         
     3     -0.168657   1 O  s                 5     -0.148077   1 O  s         
     2      0.111362   1 O  s                38      0.105134   2 C  py        
   132      0.102621   6 H  s                97     -0.100035   4 C  s         
 
 Vector    8  Occ=2.000000D+00  E=-5.298341D-01
              MO Center=  4.1D-01,  1.4D-02, -9.6D-02, r^2= 2.7D+00
   Bfn.  Coefficient  Atom+Function         Bfn.  Coefficient  Atom+Function  
  ----- ------------  ---------------      ----- ------------  ---------------
    35      0.303276   2 C  s                34      0.224940   2 C  s         
    97     -0.154746   4 C  s                66     -0.153711   3 C  s         
    33     -0.138357   2 C  s               126      0.132771   5 H  s         
    96     -0.128506   4 C  s                 6      0.106651   1 O  px        
   125      0.106204   5 H  s                65     -0.099953   3 C  s         
 
 Vector    9  Occ=2.000000D+00  E=-4.482381D-01
              MO Center=  1.2D-01,  2.8D-01,  2.4D-01, r^2= 2.5D+00
   Bfn.  Coefficient  Atom+Function         Bfn.  Coefficient  Atom+Function  
  ----- ------------  ---------------      ----- ------------  ---------------
    70      0.210825   3 C  pz               39      0.156052   2 C  pz        
   132      0.145022   6 H  s                73      0.132266   3 C  pz        
     8      0.127560   1 O  pz              126      0.115118   5 H  s         
     6     -0.109241   1 O  px              131      0.107591   6 H  s         
    38     -0.104915   2 C  py               11      0.103356   1 O  pz        
 
 Vector   10  Occ=2.000000D+00  E=-4.134245D-01
              MO Center=  3.3D-02,  2.8D-01, -2.3D-01, r^2= 2.5D+00
   Bfn.  Coefficient  Atom+Function         Bfn.  Coefficient  Atom+Function  
  ----- ------------  ---------------      ----- ------------  ---------------
    69      0.215784   3 C  py              101      0.154780   4 C  pz        
   138      0.153601   7 H  s                 6     -0.147541   1 O  px        
    38     -0.139401   2 C  py               37      0.133380   2 C  px        
     7     -0.121776   1 O  py               72      0.121982   3 C  py        
     9     -0.117981   1 O  px               70     -0.115891   3 C  pz        
 
 Vector   11  Occ=2.000000D+00  E=-3.774810D-01
              MO Center=  8.9D-01, -2.6D-01, -7.3D-01, r^2= 2.7D+00
   Bfn.  Coefficient  Atom+Function         Bfn.  Coefficient  Atom+Function  
  ----- ------------  ---------------      ----- ------------  ---------------
    99      0.221283   4 C  px              144      0.189795   8 H  s         
   100      0.142362   4 C  py              102      0.141114   4 C  px        
   143      0.132971   8 H  s                 7      0.129727   1 O  py        
   150     -0.122872   9 H  s                37      0.118672   2 C  px        
    10      0.109021   1 O  py                6     -0.105601   1 O  px        
 
 Vector   12  Occ=2.000000D+00  E=-3.546636D-01
              MO Center=  6.5D-01, -3.8D-01, -9.1D-01, r^2= 2.8D+00
   Bfn.  Coefficient  Atom+Function         Bfn.  Coefficient  Atom+Function  
  ----- ------------  ---------------      ----- ------------  ---------------
   100      0.269434   4 C  py              150     -0.196038   9 H  s         
   103      0.176440   4 C  py              156      0.169220  10 H  s         
     7     -0.142749   1 O  py              149     -0.136882   9 H  s         
    70      0.120575   3 C  pz              155      0.119824  10 H  s         
    10     -0.113627   1 O  py              106      0.107352   4 C  py        
 
 Vector   13  Occ=2.000000D+00  E=-3.286132D-01
              MO Center=  3.3D-01,  2.3D-01, -2.4D-01, r^2= 2.7D+00
   Bfn.  Coefficient  Atom+Function         Bfn.  Coefficient  Atom+Function  
  ----- ------------  ---------------      ----- ------------  ---------------
    39      0.212474   2 C  pz              101     -0.195338   4 C  pz        
     7     -0.182077   1 O  py               70     -0.162587   3 C  pz        
   138      0.157645   7 H  s                10     -0.146774   1 O  py        
    42      0.144583   2 C  pz              104     -0.137062   4 C  pz        
    99      0.132310   4 C  px              137      0.105978   7 H  s         
 
 Vector   14  Occ=2.000000D+00  E=-3.221187D-01
              MO Center=  3.7D-01, -4.0D-02, -1.8D-01, r^2= 3.0D+00
   Bfn.  Coefficient  Atom+Function         Bfn.  Coefficient  Atom+Function  
  ----- ------------  ---------------      ----- ------------  ---------------
     7      0.204523   1 O  py               10      0.167826   1 O  py        
   126      0.166063   5 H  s               156      0.149829  10 H  s         
     6     -0.148294   1 O  px               99     -0.146901   4 C  px        
    39      0.138114   2 C  pz               37      0.134134   2 C  px        
   144     -0.124218   8 H  s               101     -0.122819   4 C  pz        
 
 Vector   15  Occ=2.000000D+00  E=-2.634735D-01
              MO Center=  2.2D-02,  1.5D-01,  2.5D-02, r^2= 2.3D+00
   Bfn.  Coefficient  Atom+Function         Bfn.  Coefficient  Atom+Function  
  ----- ------------  ---------------      ----- ------------  ---------------
    68      0.263162   3 C  px               38      0.255283   2 C  py        
     6     -0.237487   1 O  px               41      0.199157   2 C  py        
    71      0.195253   3 C  px                9     -0.185749   1 O  px        
    12     -0.157110   1 O  px              150      0.116786   9 H  s         
   100     -0.113299   4 C  py               67      0.107320   3 C  s         
 
 Vector   16  Occ=2.000000D+00  E=-2.195855D-01
              MO Center= -5.8D-01, -2.8D-02,  2.0D-01, r^2= 1.6D+00
   Bfn.  Coefficient  Atom+Function         Bfn.  Coefficient  Atom+Function  
  ----- ------------  ---------------      ----- ------------  ---------------
     8      0.448864   1 O  pz               11      0.357449   1 O  pz        
    14      0.296342   1 O  pz              133     -0.130723   6 H  s         
   139      0.115666   7 H  s               132     -0.103712   6 H  s         
   138      0.103377   7 H  s               145     -0.102366   8 H  s         
   126     -0.097247   5 H  s                98      0.089342   4 C  s         
 
 Vector   17  Occ=0.000000D+00  E= 2.581083D-02
              MO Center=  1.2D+00, -1.3D-01, -6.0D-01, r^2= 7.2D+00
   Bfn.  Coefficient  Atom+Function         Bfn.  Coefficient  Atom+Function  
  ----- ------------  ---------------      ----- ------------  ---------------
    98      4.484884   4 C  s               145     -1.522436   8 H  s         
   151     -1.529451   9 H  s               157     -1.329482  10 H  s         
   127     -1.244605   5 H  s                45      1.131785   2 C  pz        
   139     -0.871218   7 H  s                67      0.670509   3 C  s         
   133     -0.604414   6 H  s                75      0.335310   3 C  py        
 
 Vector   18  Occ=0.000000D+00  E= 4.275580D-02
              MO Center= -1.3D-01,  6.7D-01,  1.1D-01, r^2= 4.4D+00
   Bfn.  Coefficient  Atom+Function         Bfn.  Coefficient  Atom+Function  
  ----- ------------  ---------------      ----- ------------  ---------------
    98     -2.108305   4 C  s                36      2.026777   2 C  s         
     5     -1.267033   1 O  s                74     -0.948412   3 C  px        
   151      0.802210   9 H  s                45     -0.477009   2 C  pz        
    67     -0.448948   3 C  s               157      0.442738  10 H  s         
    13     -0.434113   1 O  py               44      0.405353   2 C  py        
 
 Vector   19  Occ=0.000000D+00  E= 5.012982D-02
              MO Center=  3.9D-01,  4.5D-01, -1.4D-01, r^2= 6.6D+00
   Bfn.  Coefficient  Atom+Function         Bfn.  Coefficient  Atom+Function  
  ----- ------------  ---------------      ----- ------------  ---------------
    36      2.720586   2 C  s                67     -2.599092   3 C  s         
   127     -1.830236   5 H  s               139      1.623423   7 H  s         
   157      0.890582  10 H  s                98     -0.630392   4 C  s         
    76      0.552442   3 C  pz               45      0.521480   2 C  pz        
     5      0.508749   1 O  s                43      0.467145   2 C  px        
 
 Vector   20  Occ=0.000000D+00  E= 5.107579D-02
              MO Center=  5.6D-01,  6.0D-01,  4.5D-01, r^2= 7.6D+00
   Bfn.  Coefficient  Atom+Function         Bfn.  Coefficient  Atom+Function  
  ----- ------------  ---------------      ----- ------------  ---------------
    98      3.380610   4 C  s                67     -2.840000   3 C  s         
   133      1.888550   6 H  s               145     -1.193821   8 H  s         
    44      1.110427   2 C  py              127      1.082878   5 H  s         
   157     -1.049893  10 H  s               151     -0.731554   9 H  s         
    36     -0.720917   2 C  s                43     -0.650011   2 C  px        
 
 Vector   21  Occ=0.000000D+00  E= 6.429724D-02
              MO Center=  2.7D-01,  1.1D-01, -2.0D-01, r^2= 4.8D+00
   Bfn.  Coefficient  Atom+Function         Bfn.  Coefficient  Atom+Function  
  ----- ------------  ---------------      ----- ------------  ---------------
   139      1.246798   7 H  s                98      1.183772   4 C  s         
   151     -0.963363   9 H  s                67     -0.892591   3 C  s         
     5     -0.884891   1 O  s                43     -0.827719   2 C  px        
    75     -0.587279   3 C  py              133      0.516540   6 H  s         
    12     -0.481247   1 O  px              127     -0.388861   5 H  s         
 
 Vector   22  Occ=0.000000D+00  E= 8.655800D-02
              MO Center=  1.2D+00,  2.3D-01, -4.3D-01, r^2= 7.3D+00
   Bfn.  Coefficient  Atom+Function         Bfn.  Coefficient  Atom+Function  
  ----- ------------  ---------------      ----- ------------  ---------------
    36      3.029765   2 C  s               145      1.934681   8 H  s         
    67     -1.450199   3 C  s               127     -1.394155   5 H  s         
   157     -1.342388  10 H  s               133      1.252669   6 H  s         
   107     -1.169080   4 C  pz               98     -1.026073   4 C  s         
   105     -0.962745   4 C  px               75      0.779725   3 C  py        
 
 Vector   23  Occ=0.000000D+00  E= 9.069322D-02
              MO Center=  1.3D+00, -7.1D-01, -6.4D-01, r^2= 6.2D+00
   Bfn.  Coefficient  Atom+Function         Bfn.  Coefficient  Atom+Function  
  ----- ------------  ---------------      ----- ------------  ---------------
    36      2.320961   2 C  s               151      2.097947   9 H  s         
   145     -1.660020   8 H  s                98     -1.300361   4 C  s         
   105      1.177506   4 C  px              106      1.159541   4 C  py        
   133      0.798370   6 H  s                67     -0.785602   3 C  s         
   127     -0.692116   5 H  s                44     -0.653523   2 C  py        
 
 Vector   24  Occ=0.000000D+00  E= 1.029317D-01
              MO Center=  4.0D-01,  4.9D-01, -1.1D+00, r^2= 6.8D+00
   Bfn.  Coefficient  Atom+Function         Bfn.  Coefficient  Atom+Function  
  ----- ------------  ---------------      ----- ------------  ---------------
   157      2.032359  10 H  s               133      1.648842   6 H  s         
   139     -1.544536   7 H  s                98     -1.417682   4 C  s         
   106     -1.415396   4 C  py              151     -1.343459   9 H  s         
    36      1.323190   2 C  s                76     -1.206024   3 C  pz        
   105      1.009530   4 C  px               45     -0.476417   2 C  pz        
 
 Vector   25  Occ=0.000000D+00  E= 1.391717D-01
              MO Center=  8.0D-01,  1.6D-01, -4.5D-01, r^2= 7.9D+00
   Bfn.  Coefficient  Atom+Function         Bfn.  Coefficient  Atom+Function  
  ----- ------------  ---------------      ----- ------------  ---------------
    36      4.641709   2 C  s                98     -3.524529   4 C  s         
    45     -3.422006   2 C  pz               67     -2.769856   3 C  s         
   127      2.745108   5 H  s                76      2.163499   3 C  pz        
   105      2.117702   4 C  px              133     -1.775934   6 H  s         
   139      1.682614   7 H  s               107     -1.561972   4 C  pz        
 
 Vector   26  Occ=0.000000D+00  E= 1.691711D-01
              MO Center=  4.3D-01,  5.8D-01, -1.6D-01, r^2= 7.3D+00
   Bfn.  Coefficient  Atom+Function         Bfn.  Coefficient  Atom+Function  
  ----- ------------  ---------------      ----- ------------  ---------------
    75      2.367771   3 C  py               67     -1.726045   3 C  s         
    36      1.691206   2 C  s               107      1.602159   4 C  pz        
   139     -1.166024   7 H  s               157      1.068387  10 H  s         
    74     -0.999051   3 C  px               44      0.819870   2 C  py        
    43     -0.680549   2 C  px              106     -0.586344   4 C  py        
 
 Vector   27  Occ=0.000000D+00  E= 1.969781D-01
              MO Center=  8.5D-01, -8.0D-02, -9.2D-01, r^2= 5.2D+00
   Bfn.  Coefficient  Atom+Function         Bfn.  Coefficient  Atom+Function  
  ----- ------------  ---------------      ----- ------------  ---------------
    67      3.178447   3 C  s                44     -2.626307   2 C  py        
   106      1.922055   4 C  py               36     -1.852281   2 C  s         
    43      1.064563   2 C  px               74      0.702319   3 C  px        
   150      0.622482   9 H  s               157     -0.619378  10 H  s         
    45     -0.612830   2 C  pz              105      0.614852   4 C  px        
 
 Vector   28  Occ=0.000000D+00  E= 2.020895D-01
              MO Center=  9.5D-01, -4.6D-01, -6.8D-01, r^2= 6.6D+00
   Bfn.  Coefficient  Atom+Function         Bfn.  Coefficient  Atom+Function  
  ----- ------------  ---------------      ----- ------------  ---------------
    36      2.572990   2 C  s                75      1.647513   3 C  py        
   105     -1.483962   4 C  px              133     -1.241639   6 H  s         
   107     -0.907927   4 C  pz              106      0.815222   4 C  py        
    45      0.804837   2 C  pz              139     -0.754596   7 H  s         
   156     -0.721616  10 H  s                76      0.671689   3 C  pz        
 
 Vector   29  Occ=0.000000D+00  E= 2.364607D-01
              MO Center= -3.3D-01,  4.3D-01, -3.4D-02, r^2= 5.4D+00
   Bfn.  Coefficient  Atom+Function         Bfn.  Coefficient  Atom+Function  
  ----- ------------  ---------------      ----- ------------  ---------------
    67      4.790264   3 C  s                36     -3.313337   2 C  s         
   139     -1.503211   7 H  s                66     -1.430435   3 C  s         
    98      1.281082   4 C  s               133     -1.218511   6 H  s         
   107      0.971139   4 C  pz               74     -0.780047   3 C  px        
     5     -0.758576   1 O  s               106      0.722102   4 C  py        
 
 Vector   30  Occ=0.000000D+00  E= 2.482762D-01
              MO Center=  5.7D-01, -2.1D-02, -1.3D-01, r^2= 5.8D+00
   Bfn.  Coefficient  Atom+Function         Bfn.  Coefficient  Atom+Function  
  ----- ------------  ---------------      ----- ------------  ---------------
    67      5.675058   3 C  s                43      4.199363   2 C  px        
    75     -2.964320   3 C  py               44     -2.595532   2 C  py        
   107     -2.122202   4 C  pz               36     -1.931689   2 C  s         
   157     -1.857045  10 H  s                45     -1.521338   2 C  pz        
    98     -1.524786   4 C  s               105     -1.280478   4 C  px        
 
 Vector   31  Occ=0.000000D+00  E= 2.690366D-01
              MO Center=  2.5D-01, -2.0D-01,  2.4D-01, r^2= 5.6D+00
   Bfn.  Coefficient  Atom+Function         Bfn.  Coefficient  Atom+Function  
  ----- ------------  ---------------      ----- ------------  ---------------
    36      4.378300   2 C  s                 5     -2.332047   1 O  s         
    67      2.265440   3 C  s                43     -1.598792   2 C  px        
   105      1.586089   4 C  px               98     -1.186232   4 C  s         
    66     -1.178481   3 C  s               139     -0.905794   7 H  s         
   133     -0.898089   6 H  s               127     -0.833265   5 H  s         
 
 Vector   32  Occ=0.000000D+00  E= 2.780598D-01
              MO Center=  4.5D-01,  3.6D-01,  3.0D-01, r^2= 4.1D+00
   Bfn.  Coefficient  Atom+Function         Bfn.  Coefficient  Atom+Function  
  ----- ------------  ---------------      ----- ------------  ---------------
    36      2.331974   2 C  s                67     -1.830261   3 C  s         
     5     -1.608339   1 O  s                43     -1.202689   2 C  px        
    74     -0.737979   3 C  px               45     -0.641955   2 C  pz        
   145      0.607218   8 H  s                98     -0.595995   4 C  s         
     4      0.481511   1 O  s                66      0.465652   3 C  s         
 
 Vector   33  Occ=0.000000D+00  E= 3.012852D-01
              MO Center=  4.5D-01,  3.6D-01, -4.1D-01, r^2= 4.9D+00
   Bfn.  Coefficient  Atom+Function         Bfn.  Coefficient  Atom+Function  
  ----- ------------  ---------------      ----- ------------  ---------------
    43      1.836825   2 C  px              106      1.761583   4 C  py        
   151      1.625075   9 H  s                36     -1.402594   2 C  s         
    98     -1.323245   4 C  s                44     -1.253240   2 C  py        
    76      1.238105   3 C  pz               66      1.018895   3 C  s         
   107     -0.988330   4 C  pz              139      0.855582   7 H  s         
 
 Vector   34  Occ=0.000000D+00  E= 3.377647D-01
              MO Center=  8.8D-02,  4.4D-01, -3.9D-01, r^2= 5.8D+00
   Bfn.  Coefficient  Atom+Function         Bfn.  Coefficient  Atom+Function  
  ----- ------------  ---------------      ----- ------------  ---------------
    67      4.487546   3 C  s                76     -4.051425   3 C  pz        
   139     -3.217391   7 H  s                36     -2.173435   2 C  s         
   133      2.064329   6 H  s               107     -1.762719   4 C  pz        
   157     -1.683281  10 H  s                98      1.418859   4 C  s         
    43      1.342827   2 C  px               44     -1.057820   2 C  py        
 
 Vector   35  Occ=0.000000D+00  E= 3.629057D-01
              MO Center=  8.0D-01, -3.0D-02, -3.6D-01, r^2= 6.8D+00
   Bfn.  Coefficient  Atom+Function         Bfn.  Coefficient  Atom+Function  
  ----- ------------  ---------------      ----- ------------  ---------------
    98      7.897087   4 C  s               145     -3.273288   8 H  s         
    76      3.231971   3 C  pz               97     -3.157554   4 C  s         
   133     -2.362982   6 H  s               151     -1.945198   9 H  s         
   139      1.559348   7 H  s                45     -1.530675   2 C  pz        
    44      1.522370   2 C  py              157     -1.428525  10 H  s         
 
 Vector   36  Occ=0.000000D+00  E= 3.720668D-01
              MO Center=  5.6D-01,  2.3D-01, -5.2D-02, r^2= 6.3D+00
   Bfn.  Coefficient  Atom+Function         Bfn.  Coefficient  Atom+Function  
  ----- ------------  ---------------      ----- ------------  ---------------
    36     12.750783   2 C  s                98     -8.734621   4 C  s         
    67     -8.242744   3 C  s               127     -3.135144   5 H  s         
    97      2.387839   4 C  s               157      2.260442  10 H  s         
    44      1.866535   2 C  py               35     -1.855183   2 C  s         
   151      1.690229   9 H  s                74     -1.582397   3 C  px        
 
 Vector   37  Occ=0.000000D+00  E= 3.849557D-01
              MO Center=  9.0D-01, -3.6D-01, -1.1D-01, r^2= 6.2D+00
   Bfn.  Coefficient  Atom+Function         Bfn.  Coefficient  Atom+Function  
  ----- ------------  ---------------      ----- ------------  ---------------
    36      5.996461   2 C  s                98      4.646646   4 C  s         
   127     -4.119403   5 H  s                45      3.101349   2 C  pz        
    67     -2.843406   3 C  s               151     -2.352471   9 H  s         
    35     -2.241063   2 C  s                76     -2.120473   3 C  pz        
   145     -2.079100   8 H  s               133      1.773698   6 H  s         
 
 Vector   38  Occ=0.000000D+00  E= 3.950477D-01
              MO Center=  1.7D-01,  1.8D-01, -8.8D-02, r^2= 6.4D+00
   Bfn.  Coefficient  Atom+Function         Bfn.  Coefficient  Atom+Function  
  ----- ------------  ---------------      ----- ------------  ---------------
    98     11.833549   4 C  s                67     -5.954654   3 C  s         
    45      5.166913   2 C  pz               76     -3.056078   3 C  pz        
   133      2.594316   6 H  s               157     -2.593446  10 H  s         
    44      2.465907   2 C  py               43     -1.984110   2 C  px        
    36     -1.956380   2 C  s                75      1.834467   3 C  py        
 
 Vector   39  Occ=0.000000D+00  E= 4.015589D-01
              MO Center= -2.3D-01,  2.2D-01,  2.0D-01, r^2= 6.5D+00
   Bfn.  Coefficient  Atom+Function         Bfn.  Coefficient  Atom+Function  
  ----- ------------  ---------------      ----- ------------  ---------------
    67    -12.346532   3 C  s                36     11.724006   2 C  s         
    45     -5.091369   2 C  pz               98     -4.610505   4 C  s         
    44      3.984561   2 C  py              127      2.946910   5 H  s         
    66      2.712142   3 C  s                43     -2.545103   2 C  px        
   139      2.501739   7 H  s               105      2.345420   4 C  px        
 
 Vector   40  Occ=0.000000D+00  E= 4.161161D-01
              MO Center=  8.9D-01, -5.2D-01, -9.2D-01, r^2= 5.6D+00
   Bfn.  Coefficient  Atom+Function         Bfn.  Coefficient  Atom+Function  
  ----- ------------  ---------------      ----- ------------  ---------------
    98      7.752207   4 C  s                36     -4.240144   2 C  s         
    45      3.238379   2 C  pz              151     -2.705198   9 H  s         
   105     -2.650885   4 C  px              157     -1.937135  10 H  s         
   145      1.783963   8 H  s                97     -1.216558   4 C  s         
   127     -1.002202   5 H  s                35      0.991997   2 C  s         
 
 Vector   41  Occ=0.000000D+00  E= 4.259034D-01
              MO Center=  3.9D-01,  3.1D-01, -7.9D-02, r^2= 6.6D+00
   Bfn.  Coefficient  Atom+Function         Bfn.  Coefficient  Atom+Function  
  ----- ------------  ---------------      ----- ------------  ---------------
    36      9.442392   2 C  s                67     -5.077431   3 C  s         
    98     -3.657574   4 C  s                44      2.705865   2 C  py        
    75      2.619488   3 C  py              151      2.110086   9 H  s         
    43     -1.784882   2 C  px               74     -1.484865   3 C  px        
   132      1.363069   6 H  s                45     -1.349835   2 C  pz        
 
 Vector   42  Occ=0.000000D+00  E= 4.464290D-01
              MO Center=  5.4D-02, -5.2D-02, -1.9D-01, r^2= 6.1D+00
   Bfn.  Coefficient  Atom+Function         Bfn.  Coefficient  Atom+Function  
  ----- ------------  ---------------      ----- ------------  ---------------
    36      9.644126   2 C  s                98     -8.885227   4 C  s         
    45     -5.472624   2 C  pz               67     -3.000765   3 C  s         
   127      2.853111   5 H  s                76      2.628167   3 C  pz        
    44      2.322860   2 C  py              157      2.304846  10 H  s         
   133     -2.070974   6 H  s               106     -1.956671   4 C  py        
 
 Vector   43  Occ=0.000000D+00  E= 4.594559D-01
              MO Center=  9.3D-02,  7.8D-01, -5.3D-01, r^2= 5.2D+00
   Bfn.  Coefficient  Atom+Function         Bfn.  Coefficient  Atom+Function  
  ----- ------------  ---------------      ----- ------------  ---------------
   139      3.210800   7 H  s               107     -2.353560   4 C  pz        
   157     -2.356733  10 H  s                75     -2.065884   3 C  py        
    45     -1.916412   2 C  pz               43      1.558420   2 C  px        
    44     -1.455337   2 C  py              138     -1.414213   7 H  s         
    76      1.191169   3 C  pz               98     -1.157030   4 C  s         
 
 Vector   44  Occ=0.000000D+00  E= 4.698435D-01
              MO Center=  4.7D-01,  1.9D-01, -1.0D-02, r^2= 5.7D+00
   Bfn.  Coefficient  Atom+Function         Bfn.  Coefficient  Atom+Function  
  ----- ------------  ---------------      ----- ------------  ---------------
    98     -5.303549   4 C  s                36      4.988407   2 C  s         
    45     -2.288628   2 C  pz              145      1.761246   8 H  s         
   107     -1.699300   4 C  pz              133      1.497278   6 H  s         
    67     -1.473658   3 C  s                35     -1.267564   2 C  s         
   132     -1.127107   6 H  s               126      1.048976   5 H  s         
 
 Vector   45  Occ=0.000000D+00  E= 5.058432D-01
              MO Center=  8.2D-01, -4.1D-01, -8.6D-01, r^2= 4.9D+00
   Bfn.  Coefficient  Atom+Function         Bfn.  Coefficient  Atom+Function  
  ----- ------------  ---------------      ----- ------------  ---------------
    98     10.604750   4 C  s                36     -6.549429   2 C  s         
    45      4.235650   2 C  pz              107      2.926551   4 C  pz        
   144     -1.328324   8 H  s               106      1.223681   4 C  py        
   127     -1.115773   5 H  s                14     -1.100466   1 O  pz        
   156     -1.082708  10 H  s               150     -1.071349   9 H  s         
 
 Vector   46  Occ=0.000000D+00  E= 5.415501D-01
              MO Center=  2.0D-01, -4.2D-01, -5.6D-01, r^2= 4.5D+00
   Bfn.  Coefficient  Atom+Function         Bfn.  Coefficient  Atom+Function  
  ----- ------------  ---------------      ----- ------------  ---------------
    98      8.436037   4 C  s                36     -7.450322   2 C  s         
    45      4.063819   2 C  pz               76     -3.316288   3 C  pz        
   133      1.797630   6 H  s               107      1.687684   4 C  pz        
   105     -1.624790   4 C  px              139     -1.494942   7 H  s         
     5      1.239285   1 O  s                14      1.074941   1 O  pz        
 
 Vector   47  Occ=0.000000D+00  E= 6.567094D-01
              MO Center= -3.4D-01,  2.8D-02, -2.2D-02, r^2= 4.3D+00
   Bfn.  Coefficient  Atom+Function         Bfn.  Coefficient  Atom+Function  
  ----- ------------  ---------------      ----- ------------  ---------------
    36     11.019483   2 C  s                67     -8.486349   3 C  s         
    98     -3.829187   4 C  s                43     -2.503082   2 C  px        
    75      2.281266   3 C  py               13      2.114740   1 O  py        
    76      2.055353   3 C  pz              105      1.591683   4 C  px        
   139      1.505198   7 H  s                44      1.366801   2 C  py        
 
 Vector   48  Occ=0.000000D+00  E= 6.739982D-01
              MO Center= -3.2D-01,  3.6D-01,  1.3D-01, r^2= 3.9D+00
   Bfn.  Coefficient  Atom+Function         Bfn.  Coefficient  Atom+Function  
  ----- ------------  ---------------      ----- ------------  ---------------
    36      8.610236   2 C  s                67     -8.269619   3 C  s         
     5      2.968461   1 O  s                75      2.675629   3 C  py        
    98     -2.375252   4 C  s                13      2.204378   1 O  py        
    43     -1.360291   2 C  px               45     -1.295288   2 C  pz        
     4     -1.107386   1 O  s                44      1.026179   2 C  py        
 
 Vector   49  Occ=0.000000D+00  E= 7.053147D-01
              MO Center=  1.5D-01, -3.1D-01, -2.6D-01, r^2= 4.5D+00
   Bfn.  Coefficient  Atom+Function         Bfn.  Coefficient  Atom+Function  
  ----- ------------  ---------------      ----- ------------  ---------------
    67      9.641758   3 C  s                36     -7.715805   2 C  s         
    43      3.661021   2 C  px               44     -3.502985   2 C  py        
    75     -2.788138   3 C  py                5      2.316696   1 O  s         
    98     -2.258307   4 C  s                12      1.723905   1 O  px        
   106      1.670703   4 C  py               13     -1.334429   1 O  py        
 
 Vector   50  Occ=0.000000D+00  E= 7.606591D-01
              MO Center=  6.4D-01, -1.1D-02, -3.4D-01, r^2= 4.1D+00
   Bfn.  Coefficient  Atom+Function         Bfn.  Coefficient  Atom+Function  
  ----- ------------  ---------------      ----- ------------  ---------------
    45      2.429392   2 C  pz              127     -1.715403   5 H  s         
   105     -1.699795   4 C  px               43      1.558629   2 C  px        
     5     -1.389055   1 O  s               126     -1.361240   5 H  s         
    36      1.291052   2 C  s               144      1.281594   8 H  s         
    66      1.018063   3 C  s                76     -1.022881   3 C  pz        
 
 Vector   51  Occ=0.000000D+00  E= 7.963728D-01
              MO Center=  2.8D-01,  5.4D-02, -1.9D-01, r^2= 4.4D+00
   Bfn.  Coefficient  Atom+Function         Bfn.  Coefficient  Atom+Function  
  ----- ------------  ---------------      ----- ------------  ---------------
     5      4.124035   1 O  s                36     -2.766262   2 C  s         
    76     -2.554574   3 C  pz                4     -1.608149   1 O  s         
    45      1.578396   2 C  pz               12      1.351574   1 O  px        
   133      1.342344   6 H  s                43      1.264558   2 C  px        
    35     -1.049426   2 C  s                66     -1.037385   3 C  s         
 
 Vector   52  Occ=0.000000D+00  E= 8.315558D-01
              MO Center=  3.1D-01,  1.7D-01, -1.7D-03, r^2= 4.4D+00
   Bfn.  Coefficient  Atom+Function         Bfn.  Coefficient  Atom+Function  
  ----- ------------  ---------------      ----- ------------  ---------------
    36      6.807371   2 C  s                98     -4.218025   4 C  s         
     5     -3.987431   1 O  s                43     -2.594119   2 C  px        
   105      1.989765   4 C  px               45     -1.904310   2 C  pz        
    35     -1.878012   2 C  s                44      1.531353   2 C  py        
    66     -1.185896   3 C  s                97      1.052124   4 C  s         
 
 Vector   53  Occ=0.000000D+00  E= 8.544410D-01
              MO Center=  6.0D-01,  1.3D-01, -3.9D-01, r^2= 4.2D+00
   Bfn.  Coefficient  Atom+Function         Bfn.  Coefficient  Atom+Function  
  ----- ------------  ---------------      ----- ------------  ---------------
    45     -4.479348   2 C  pz               98     -4.450437   4 C  s         
    36      4.324469   2 C  s                76      2.010247   3 C  pz        
   127      1.767332   5 H  s               106     -1.481254   4 C  py        
    44      1.390465   2 C  py              105      1.306632   4 C  px        
   150     -1.199707   9 H  s               139      1.080024   7 H  s         
 
 Vector   54  Occ=0.000000D+00  E= 8.716861D-01
              MO Center=  1.9D-01, -4.7D-02, -1.2D-01, r^2= 4.2D+00
   Bfn.  Coefficient  Atom+Function         Bfn.  Coefficient  Atom+Function  
  ----- ------------  ---------------      ----- ------------  ---------------
     5      4.588606   1 O  s                36     -1.686727   2 C  s         
     4     -1.545291   1 O  s               138      1.424893   7 H  s         
    76      1.396985   3 C  pz               67     -1.231012   3 C  s         
    12      1.183478   1 O  px               66     -1.157858   3 C  s         
    98     -1.001826   4 C  s                43      0.859799   2 C  px        
 
 Vector   55  Occ=0.000000D+00  E= 9.198241D-01
              MO Center=  5.1D-01,  3.1D-01, -4.8D-01, r^2= 4.5D+00
   Bfn.  Coefficient  Atom+Function         Bfn.  Coefficient  Atom+Function  
  ----- ------------  ---------------      ----- ------------  ---------------
    35      4.876652   2 C  s                36     -1.669210   2 C  s         
    67      1.470908   3 C  s               132     -1.349416   6 H  s         
    72      1.262459   3 C  py               66     -1.226587   3 C  s         
    84      1.158243   3 C  d  0            156     -1.160062  10 H  s         
    41      1.138678   2 C  py               98     -1.121507   4 C  s         
 
 Vector   56  Occ=0.000000D+00  E= 9.604203D-01
              MO Center=  4.5D-01,  3.0D-01, -5.3D-01, r^2= 4.7D+00
   Bfn.  Coefficient  Atom+Function         Bfn.  Coefficient  Atom+Function  
  ----- ------------  ---------------      ----- ------------  ---------------
    35      4.285328   2 C  s                67      2.560993   3 C  s         
   138     -2.362657   7 H  s                76     -1.824280   3 C  pz        
    42     -1.740025   2 C  pz               83     -1.653836   3 C  d -1      
    36     -1.472765   2 C  s               115     -1.458590   4 C  d  0      
    98     -1.403416   4 C  s               132      1.341876   6 H  s         
 
 Vector   57  Occ=0.000000D+00  E= 9.921300D-01
              MO Center=  3.4D-01,  4.7D-01, -1.3D-01, r^2= 4.1D+00
   Bfn.  Coefficient  Atom+Function         Bfn.  Coefficient  Atom+Function  
  ----- ------------  ---------------      ----- ------------  ---------------
    36      7.426152   2 C  s                98     -4.787022   4 C  s         
    67     -3.968091   3 C  s                45     -3.681186   2 C  pz        
    43     -2.341496   2 C  px               44      2.130280   2 C  py        
    66     -1.610084   3 C  s               127      1.549117   5 H  s         
    75      1.465680   3 C  py              126      1.343336   5 H  s         
 
 Vector   58  Occ=0.000000D+00  E= 1.011834D+00
              MO Center=  3.8D-01,  5.4D-01, -5.4D-02, r^2= 4.3D+00
   Bfn.  Coefficient  Atom+Function         Bfn.  Coefficient  Atom+Function  
  ----- ------------  ---------------      ----- ------------  ---------------
    36      5.326574   2 C  s                67     -4.381783   3 C  s         
    45     -2.091621   2 C  pz               44      1.785808   2 C  py        
    98     -1.643428   4 C  s               156     -1.449568  10 H  s         
   144      1.370966   8 H  s                82      1.324692   3 C  d -2      
    74     -1.299603   3 C  px               43     -1.264725   2 C  px        
 
 Vector   59  Occ=0.000000D+00  E= 1.042377D+00
              MO Center=  6.9D-01, -1.4D-01, -4.6D-01, r^2= 4.2D+00
   Bfn.  Coefficient  Atom+Function         Bfn.  Coefficient  Atom+Function  
  ----- ------------  ---------------      ----- ------------  ---------------
    36      3.077277   2 C  s                35      2.684488   2 C  s         
    66     -2.533531   3 C  s               150      1.997409   9 H  s         
     5     -1.943428   1 O  s               144     -1.842569   8 H  s         
   117      1.722960   4 C  d  2             41      1.661636   2 C  py        
    67     -1.602730   3 C  s                44      1.507321   2 C  py        
 
 Vector   60  Occ=0.000000D+00  E= 1.078823D+00
              MO Center=  6.7D-01,  6.3D-03, -7.5D-02, r^2= 4.1D+00
   Bfn.  Coefficient  Atom+Function         Bfn.  Coefficient  Atom+Function  
  ----- ------------  ---------------      ----- ------------  ---------------
    98      4.253805   4 C  s                66     -4.005916   3 C  s         
    45      3.865641   2 C  pz               97      3.737410   4 C  s         
    36     -3.669752   2 C  s                41      2.557180   2 C  py        
   104      2.528086   4 C  pz               42      2.367729   2 C  pz        
    72      2.341925   3 C  py               53     -2.218910   2 C  d  0      
 
 Vector   61  Occ=0.000000D+00  E= 1.105478D+00
              MO Center=  3.7D-01,  7.1D-02,  6.5D-02, r^2= 3.8D+00
   Bfn.  Coefficient  Atom+Function         Bfn.  Coefficient  Atom+Function  
  ----- ------------  ---------------      ----- ------------  ---------------
    36      7.531463   2 C  s                67     -5.322181   3 C  s         
    98     -2.899513   4 C  s                66      2.144348   3 C  s         
   126     -2.039270   5 H  s                45     -1.914798   2 C  pz        
   132      1.684608   6 H  s                72     -1.598821   3 C  py        
    41     -1.478717   2 C  py               53      1.443015   2 C  d  0      
 
 Vector   62  Occ=0.000000D+00  E= 1.147074D+00
              MO Center=  6.3D-01,  2.4D-03, -3.5D-02, r^2= 3.5D+00
   Bfn.  Coefficient  Atom+Function         Bfn.  Coefficient  Atom+Function  
  ----- ------------  ---------------      ----- ------------  ---------------
    67      5.126628   3 C  s                36     -3.934653   2 C  s         
    44     -2.375342   2 C  py              126      1.803895   5 H  s         
    97     -1.761254   4 C  s                54      1.558106   2 C  d  1      
    43      1.542145   2 C  px               55      1.493962   2 C  d  2      
    75     -1.419958   3 C  py               42     -1.406829   2 C  pz        
 
 Vector   63  Occ=0.000000D+00  E= 1.214681D+00
              MO Center=  5.6D-01,  2.0D-01, -1.5D-01, r^2= 3.8D+00
   Bfn.  Coefficient  Atom+Function         Bfn.  Coefficient  Atom+Function  
  ----- ------------  ---------------      ----- ------------  ---------------
    36      6.737279   2 C  s                66     -5.020940   3 C  s         
    67     -3.343074   3 C  s                97     -3.331793   4 C  s         
    35      3.211250   2 C  s                72      1.937450   3 C  py        
    51     -1.769517   2 C  d -2             52      1.693171   2 C  d -1      
   138      1.648394   7 H  s                41      1.511374   2 C  py        
 
 Vector   64  Occ=0.000000D+00  E= 1.348368D+00
              MO Center=  3.5D-01,  5.6D-01,  2.4D-01, r^2= 3.5D+00
   Bfn.  Coefficient  Atom+Function         Bfn.  Coefficient  Atom+Function  
  ----- ------------  ---------------      ----- ------------  ---------------
    66      4.706270   3 C  s                35      3.927574   2 C  s         
    67     -3.061231   3 C  s                36     -2.786179   2 C  s         
    65     -2.409149   3 C  s               132     -2.058263   6 H  s         
    34     -1.452012   2 C  s               133      1.433634   6 H  s         
    72      1.353505   3 C  py              139      1.071228   7 H  s         
 
 Vector   65  Occ=0.000000D+00  E= 1.415410D+00
              MO Center=  1.6D-01,  5.1D-01, -6.9D-02, r^2= 3.4D+00
   Bfn.  Coefficient  Atom+Function         Bfn.  Coefficient  Atom+Function  
  ----- ------------  ---------------      ----- ------------  ---------------
    36      4.208252   2 C  s                67     -3.892042   3 C  s         
    66      3.848051   3 C  s                35     -3.758683   2 C  s         
    73     -2.303278   3 C  pz              138     -2.218331   7 H  s         
   139      2.203635   7 H  s               126      1.761511   5 H  s         
    76      1.706792   3 C  pz               65     -1.561380   3 C  s         
 
 Vector   66  Occ=0.000000D+00  E= 1.433205D+00
              MO Center=  1.1D+00, -4.5D-01, -1.1D+00, r^2= 3.5D+00
   Bfn.  Coefficient  Atom+Function         Bfn.  Coefficient  Atom+Function  
  ----- ------------  ---------------      ----- ------------  ---------------
    98      9.983899   4 C  s                97     -7.520302   4 C  s         
    96      3.042557   4 C  s                36     -2.609830   2 C  s         
   145     -2.388005   8 H  s               151     -2.279582   9 H  s         
   157     -2.078095  10 H  s               144      1.759092   8 H  s         
   150      1.557791   9 H  s               104      1.489328   4 C  pz        
 
 Vector   67  Occ=0.000000D+00  E= 1.443253D+00
              MO Center=  4.0D-01, -4.4D-02, -9.0D-02, r^2= 4.3D+00
   Bfn.  Coefficient  Atom+Function         Bfn.  Coefficient  Atom+Function  
  ----- ------------  ---------------      ----- ------------  ---------------
    66      4.282606   3 C  s                98      3.551276   4 C  s         
    35     -3.340191   2 C  s                67     -3.140220   3 C  s         
    36      2.176754   2 C  s                45      2.066119   2 C  pz        
   133      1.969333   6 H  s               127     -1.817804   5 H  s         
    76     -1.771891   3 C  pz               97     -1.677942   4 C  s         
 
 Vector   68  Occ=0.000000D+00  E= 1.446901D+00
              MO Center=  2.4D-01,  3.3D-02, -1.5D-01, r^2= 3.0D+00
   Bfn.  Coefficient  Atom+Function         Bfn.  Coefficient  Atom+Function  
  ----- ------------  ---------------      ----- ------------  ---------------
    98      4.957770   4 C  s                36     -3.125558   2 C  s         
    97     -2.703235   4 C  s                 5      2.105226   1 O  s         
    45      1.875861   2 C  pz               96      1.155926   4 C  s         
    35     -1.134127   2 C  s                67      1.117447   3 C  s         
    40      1.048836   2 C  px               44     -1.050263   2 C  py        
 
 Vector   69  Occ=0.000000D+00  E= 1.472717D+00
              MO Center=  8.7D-01, -3.2D-01, -9.1D-01, r^2= 3.7D+00
   Bfn.  Coefficient  Atom+Function         Bfn.  Coefficient  Atom+Function  
  ----- ------------  ---------------      ----- ------------  ---------------
    66      2.840626   3 C  s               102      1.424907   4 C  px        
   144     -1.231942   8 H  s               133      1.170182   6 H  s         
    65     -1.148920   3 C  s                 5     -1.053204   1 O  s         
    67     -1.055929   3 C  s               156      1.046008  10 H  s         
   104      1.016008   4 C  pz              145      0.966694   8 H  s         
 
 Vector   70  Occ=0.000000D+00  E= 1.480697D+00
              MO Center=  1.1D+00, -3.5D-01, -1.1D+00, r^2= 3.0D+00
   Bfn.  Coefficient  Atom+Function         Bfn.  Coefficient  Atom+Function  
  ----- ------------  ---------------      ----- ------------  ---------------
    36      2.557973   2 C  s               156     -2.564963  10 H  s         
   103      1.960510   4 C  py              157      1.898759  10 H  s         
   126      1.659968   5 H  s               102     -1.541779   4 C  px        
   104     -1.528966   4 C  pz              150      1.333003   9 H  s         
   127     -1.264934   5 H  s                98     -1.119064   4 C  s         
 
 Vector   71  Occ=0.000000D+00  E= 1.513136D+00
              MO Center=  3.3D-01,  1.5D-01, -3.3D-01, r^2= 3.9D+00
   Bfn.  Coefficient  Atom+Function         Bfn.  Coefficient  Atom+Function  
  ----- ------------  ---------------      ----- ------------  ---------------
    98      2.384789   4 C  s               144      1.903268   8 H  s         
   102     -1.676966   4 C  px              145     -1.404710   8 H  s         
    45      1.235602   2 C  pz              103     -1.178286   4 C  py        
    97     -1.070528   4 C  s                66      0.856380   3 C  s         
   150     -0.825410   9 H  s               106      0.658446   4 C  py        
 
 Vector   72  Occ=0.000000D+00  E= 1.543736D+00
              MO Center=  3.4D-01,  4.7D-01, -2.2D-01, r^2= 4.6D+00
   Bfn.  Coefficient  Atom+Function         Bfn.  Coefficient  Atom+Function  
  ----- ------------  ---------------      ----- ------------  ---------------
    36      4.488479   2 C  s                35     -3.712005   2 C  s         
    98     -3.695161   4 C  s                97      3.121035   4 C  s         
    67     -2.559752   3 C  s                73      2.153039   3 C  pz        
   132     -1.768586   6 H  s               102     -1.430014   4 C  px        
   133      1.423529   6 H  s               138      1.367385   7 H  s         
 
 Vector   73  Occ=0.000000D+00  E= 1.575463D+00
              MO Center=  4.9D-01, -1.4D-02, -6.3D-02, r^2= 3.3D+00
   Bfn.  Coefficient  Atom+Function         Bfn.  Coefficient  Atom+Function  
  ----- ------------  ---------------      ----- ------------  ---------------
    35      3.354635   2 C  s                36     -2.794164   2 C  s         
    40     -2.111621   2 C  px              126      1.834561   5 H  s         
    67      1.824815   3 C  s                97     -1.825348   4 C  s         
    72      1.633633   3 C  py               42     -1.427203   2 C  pz        
    34     -1.397206   2 C  s                45      1.341077   2 C  pz        
 
 Vector   74  Occ=0.000000D+00  E= 1.598016D+00
              MO Center=  3.1D-01,  4.4D-01, -1.2D-01, r^2= 3.4D+00
   Bfn.  Coefficient  Atom+Function         Bfn.  Coefficient  Atom+Function  
  ----- ------------  ---------------      ----- ------------  ---------------
    36     -5.241493   2 C  s                35      5.179900   2 C  s         
    66     -5.114980   3 C  s                67      3.838158   3 C  s         
    41      3.707885   2 C  py               71     -2.591003   3 C  px        
    72      2.373593   3 C  py               40     -2.065028   2 C  px        
    98      1.804535   4 C  s                82      1.706604   3 C  d -2      
 
 Vector   75  Occ=0.000000D+00  E= 1.644140D+00
              MO Center=  4.9D-01,  1.4D-01, -5.6D-02, r^2= 3.7D+00
   Bfn.  Coefficient  Atom+Function         Bfn.  Coefficient  Atom+Function  
  ----- ------------  ---------------      ----- ------------  ---------------
    66      2.936515   3 C  s                98      2.092403   4 C  s         
    35      2.051513   2 C  s                97     -1.802423   4 C  s         
     5     -1.788789   1 O  s                67     -1.505524   3 C  s         
   104     -1.292786   4 C  pz               41     -1.211267   2 C  py        
   144      1.118946   8 H  s               150     -1.080227   9 H  s         
 
 Vector   76  Occ=0.000000D+00  E= 1.693261D+00
              MO Center=  5.5D-01,  1.5D-01, -4.2D-01, r^2= 3.8D+00
   Bfn.  Coefficient  Atom+Function         Bfn.  Coefficient  Atom+Function  
  ----- ------------  ---------------      ----- ------------  ---------------
    97     -5.628578   4 C  s                35      5.357557   2 C  s         
   104     -2.891039   4 C  pz               42     -2.867363   2 C  pz        
   102      1.826841   4 C  px               34     -1.602857   2 C  s         
    40      1.533653   2 C  px               66     -1.524035   3 C  s         
    96      1.526965   4 C  s                72     -1.310079   3 C  py        
 
 Vector   77  Occ=0.000000D+00  E= 1.700649D+00
              MO Center= -2.3D-02,  2.3D-01, -8.4D-02, r^2= 3.6D+00
   Bfn.  Coefficient  Atom+Function         Bfn.  Coefficient  Atom+Function  
  ----- ------------  ---------------      ----- ------------  ---------------
     5      3.813576   1 O  s                72      3.193277   3 C  py        
    36     -2.457566   2 C  s                66     -2.057761   3 C  s         
   138     -1.866995   7 H  s                97      1.597887   4 C  s         
    12      1.475752   1 O  px               41      1.442759   2 C  py        
    42      1.372998   2 C  pz               43      1.227245   2 C  px        
 
 Vector   78  Occ=0.000000D+00  E= 1.789388D+00
              MO Center=  4.0D-01,  2.5D-01,  2.1D-02, r^2= 3.5D+00
   Bfn.  Coefficient  Atom+Function         Bfn.  Coefficient  Atom+Function  
  ----- ------------  ---------------      ----- ------------  ---------------
    35      3.154872   2 C  s                97     -2.839448   4 C  s         
    36      1.721753   2 C  s                45     -1.298933   2 C  pz        
   104     -1.232125   4 C  pz               67     -1.117252   3 C  s         
    42     -1.092108   2 C  pz               72      0.990270   3 C  py        
   102      0.969710   4 C  px               96      0.921146   4 C  s         
 
 Vector   79  Occ=0.000000D+00  E= 1.814744D+00
              MO Center= -6.3D-01,  1.9D-01,  1.9D-01, r^2= 2.6D+00
   Bfn.  Coefficient  Atom+Function         Bfn.  Coefficient  Atom+Function  
  ----- ------------  ---------------      ----- ------------  ---------------
    35      4.190018   2 C  s                 5     -3.328853   1 O  s         
    40     -2.478669   2 C  px               41      2.144367   2 C  py        
    72      2.034957   3 C  py               66     -1.855858   3 C  s         
    71     -1.709058   3 C  px               12     -1.384739   1 O  px        
   132     -1.060478   6 H  s               138     -1.038855   7 H  s         
 
 Vector   80  Occ=0.000000D+00  E= 1.841707D+00
              MO Center=  9.3D-02,  2.5D-01, -9.2D-02, r^2= 3.7D+00
   Bfn.  Coefficient  Atom+Function         Bfn.  Coefficient  Atom+Function  
  ----- ------------  ---------------      ----- ------------  ---------------
    35      1.674964   2 C  s                36     -1.098470   2 C  s         
   156     -0.945248  10 H  s               104     -0.780773   4 C  pz        
    71     -0.712660   3 C  px              157      0.663030  10 H  s         
    41     -0.644748   2 C  py              126     -0.642197   5 H  s         
    67      0.638252   3 C  s               150      0.630291   9 H  s         
 
 Vector   81  Occ=0.000000D+00  E= 1.865599D+00
              MO Center=  5.1D-01,  1.7D-01, -4.4D-01, r^2= 4.0D+00
   Bfn.  Coefficient  Atom+Function         Bfn.  Coefficient  Atom+Function  
  ----- ------------  ---------------      ----- ------------  ---------------
    35      6.283326   2 C  s                66     -4.263281   3 C  s         
    72      3.445274   3 C  py               97     -3.117069   4 C  s         
    36      2.226261   2 C  s               104     -1.725513   4 C  pz        
    67     -1.624407   3 C  s                34     -1.567989   2 C  s         
    41      1.485741   2 C  py               45     -1.383693   2 C  pz        
 
 Vector   82  Occ=0.000000D+00  E= 1.923589D+00
              MO Center=  3.1D-01, -1.5D-01, -3.0D-01, r^2= 3.2D+00
   Bfn.  Coefficient  Atom+Function         Bfn.  Coefficient  Atom+Function  
  ----- ------------  ---------------      ----- ------------  ---------------
    35      1.572667   2 C  s                97     -1.503654   4 C  s         
    36      1.334312   2 C  s               103     -1.237344   4 C  py        
    45     -1.220899   2 C  pz               98     -1.140795   4 C  s         
    66     -1.065468   3 C  s                42     -0.933112   2 C  pz        
   104     -0.902827   4 C  pz               41      0.816734   2 C  py        
 
 Vector   83  Occ=0.000000D+00  E= 1.991359D+00
              MO Center=  6.6D-01, -1.1D-01, -1.7D-01, r^2= 3.3D+00
   Bfn.  Coefficient  Atom+Function         Bfn.  Coefficient  Atom+Function  
  ----- ------------  ---------------      ----- ------------  ---------------
    35      2.624464   2 C  s                66     -2.413332   3 C  s         
    40     -2.305967   2 C  px               98      2.280609   4 C  s         
    72      1.770453   3 C  py               67     -1.759290   3 C  s         
    41      1.575220   2 C  py               43     -1.571837   2 C  px        
    71     -1.412680   3 C  px               44      1.262894   2 C  py        
 
 Vector   84  Occ=0.000000D+00  E= 1.993499D+00
              MO Center=  7.9D-01, -2.3D-01, -9.2D-01, r^2= 3.4D+00
   Bfn.  Coefficient  Atom+Function         Bfn.  Coefficient  Atom+Function  
  ----- ------------  ---------------      ----- ------------  ---------------
    98     -4.739182   4 C  s                36      4.663576   2 C  s         
    35     -2.920886   2 C  s                45     -2.048990   2 C  pz        
    66      1.386933   3 C  s               107     -1.310953   4 C  pz        
   156      1.247493  10 H  s                67     -1.145384   3 C  s         
    34      1.065252   2 C  s               104      1.027704   4 C  pz        
 
 Vector   85  Occ=0.000000D+00  E= 2.091183D+00
              MO Center= -8.3D-02,  1.6D-01,  7.6D-03, r^2= 3.4D+00
   Bfn.  Coefficient  Atom+Function         Bfn.  Coefficient  Atom+Function  
  ----- ------------  ---------------      ----- ------------  ---------------
    36      3.679476   2 C  s                98     -2.403960   4 C  s         
    67     -1.823913   3 C  s                35     -1.192684   2 C  s         
    66      0.777842   3 C  s                13      0.772019   1 O  py        
    71      0.774222   3 C  px              138     -0.749963   7 H  s         
   156      0.702341  10 H  s                45     -0.604553   2 C  pz        
 
 Vector   86  Occ=0.000000D+00  E= 2.097972D+00
              MO Center= -3.1D-01,  6.5D-02,  1.3D-02, r^2= 3.1D+00
   Bfn.  Coefficient  Atom+Function         Bfn.  Coefficient  Atom+Function  
  ----- ------------  ---------------      ----- ------------  ---------------
    67     -5.248289   3 C  s                36      4.853623   2 C  s         
    66      3.225192   3 C  s                35     -3.100290   2 C  s         
    41     -3.027411   2 C  py               71      2.647302   3 C  px        
    13      1.718814   1 O  py               82     -1.401857   3 C  d -2      
    55      1.281324   2 C  d  2             75      1.285224   3 C  py        
 
 Vector   87  Occ=0.000000D+00  E= 2.166548D+00
              MO Center=  5.1D-01,  5.2D-02, -4.7D-01, r^2= 3.2D+00
   Bfn.  Coefficient  Atom+Function         Bfn.  Coefficient  Atom+Function  
  ----- ------------  ---------------      ----- ------------  ---------------
    67      2.082495   3 C  s                98     -2.063700   4 C  s         
    35      1.283352   2 C  s                36     -1.199589   2 C  s         
    73     -1.058550   3 C  pz              156      0.901999  10 H  s         
    42      0.892410   2 C  pz               43      0.889831   2 C  px        
    44     -0.874253   2 C  py               40     -0.861446   2 C  px        
 
 Vector   88  Occ=0.000000D+00  E= 2.197739D+00
              MO Center=  5.6D-01,  6.8D-02, -4.9D-01, r^2= 3.8D+00
   Bfn.  Coefficient  Atom+Function         Bfn.  Coefficient  Atom+Function  
  ----- ------------  ---------------      ----- ------------  ---------------
    98      1.880548   4 C  s                36     -1.114836   2 C  s         
    45      0.961922   2 C  pz               76     -0.902030   3 C  pz        
   132      0.710192   6 H  s               103     -0.691403   4 C  py        
    71      0.584305   3 C  px              138     -0.559526   7 H  s         
    55      0.544285   2 C  d  2            117     -0.534433   4 C  d  2      
 
 Vector   89  Occ=0.000000D+00  E= 2.228602D+00
              MO Center=  7.1D-01, -1.2D-02, -1.9D-01, r^2= 3.6D+00
   Bfn.  Coefficient  Atom+Function         Bfn.  Coefficient  Atom+Function  
  ----- ------------  ---------------      ----- ------------  ---------------
    36      3.586885   2 C  s                67     -1.902737   3 C  s         
    98     -1.821258   4 C  s                 5     -1.068964   1 O  s         
   150      0.973059   9 H  s                45     -0.905838   2 C  pz        
    35     -0.868284   2 C  s                42     -0.842329   2 C  pz        
    72     -0.774342   3 C  py               43     -0.755491   2 C  px        
 
 Vector   90  Occ=0.000000D+00  E= 2.239771D+00
              MO Center=  5.3D-01, -1.3D-01, -4.7D-01, r^2= 3.7D+00
   Bfn.  Coefficient  Atom+Function         Bfn.  Coefficient  Atom+Function  
  ----- ------------  ---------------      ----- ------------  ---------------
    66      1.218368   3 C  s               150     -1.158242   9 H  s         
    72     -1.087021   3 C  py               98      0.870210   4 C  s         
   117     -0.847149   4 C  d  2             42     -0.794078   2 C  pz        
   144      0.698373   8 H  s                83     -0.634716   3 C  d -1      
     5     -0.615962   1 O  s                97     -0.548600   4 C  s         
 
 Vector   91  Occ=0.000000D+00  E= 2.276636D+00
              MO Center=  7.1D-01, -7.2D-02, -8.5D-01, r^2= 3.4D+00
   Bfn.  Coefficient  Atom+Function         Bfn.  Coefficient  Atom+Function  
  ----- ------------  ---------------      ----- ------------  ---------------
    36      2.475537   2 C  s                98     -2.431556   4 C  s         
    67     -1.193717   3 C  s                66      1.155911   3 C  s         
    76      1.150570   3 C  pz               41     -0.933714   2 C  py        
    45     -0.784015   2 C  pz              156      0.742529  10 H  s         
    35     -0.680239   2 C  s                71      0.613716   3 C  px        
 
 Vector   92  Occ=0.000000D+00  E= 2.287289D+00
              MO Center=  8.0D-01, -1.6D-01, -5.0D-01, r^2= 3.7D+00
   Bfn.  Coefficient  Atom+Function         Bfn.  Coefficient  Atom+Function  
  ----- ------------  ---------------      ----- ------------  ---------------
    66      3.172942   3 C  s                98      2.984406   4 C  s         
[...]
    21     -0.870941   1 O  d -1             42     -0.813506   2 C  pz        
    97     -0.725477   4 C  s                45     -0.701462   2 C  pz        
     5     -0.513202   1 O  s                67     -0.512671   3 C  s         
    98     -0.515091   4 C  s               102      0.493466   4 C  px        
 
 Vector  154  Occ=0.000000D+00  E= 6.676739D+00
              MO Center= -8.7D-01, -1.8D-01,  2.0D-01, r^2= 5.7D-01
   Bfn.  Coefficient  Atom+Function         Bfn.  Coefficient  Atom+Function  
  ----- ------------  ---------------      ----- ------------  ---------------
    18      1.061339   1 O  d  1             23     -1.035944   1 O  d  1      
    97     -0.862054   4 C  s                42     -0.783556   2 C  pz        
    35      0.755874   2 C  s               102      0.640906   4 C  px        
    54     -0.544286   2 C  d  1             14      0.406016   1 O  pz        
    16     -0.396042   1 O  d -1             11      0.388832   1 O  pz        
 
 Vector  155  Occ=0.000000D+00  E= 6.842249D+00
              MO Center= -8.8D-01, -1.9D-01,  2.0D-01, r^2= 5.9D-01
   Bfn.  Coefficient  Atom+Function         Bfn.  Coefficient  Atom+Function  
  ----- ------------  ---------------      ----- ------------  ---------------
     5      2.114079   1 O  s                40      1.770632   2 C  px        
     9      1.362639   1 O  px               97     -1.281271   4 C  s         
     4      1.207094   1 O  s                20      1.049564   1 O  d -2      
    42     -0.972665   2 C  pz               35     -0.852812   2 C  s         
    12      0.847501   1 O  px               15     -0.834153   1 O  d -2      
 
 Vector  156  Occ=0.000000D+00  E= 7.055590D+00
              MO Center= -8.9D-01, -1.9D-01,  2.0D-01, r^2= 6.4D-01
   Bfn.  Coefficient  Atom+Function         Bfn.  Coefficient  Atom+Function  
  ----- ------------  ---------------      ----- ------------  ---------------
    66     -3.169132   3 C  s                35      3.031545   2 C  s         
    40     -2.721440   2 C  px               72      2.684492   3 C  py        
    24     -1.579021   1 O  d  2             36      1.440596   2 C  s         
    10      1.280797   1 O  py               67     -1.286794   3 C  s         
    19      1.017157   1 O  d  2             13      0.865592   1 O  py        
 
 Vector  157  Occ=0.000000D+00  E= 2.194068D+01
              MO Center=  7.8D-02,  7.8D-01,  5.2D-02, r^2= 1.2D+00
   Bfn.  Coefficient  Atom+Function         Bfn.  Coefficient  Atom+Function  
  ----- ------------  ---------------      ----- ------------  ---------------
    64      1.581947   3 C  s                65     -1.346516   3 C  s         
    67     -1.266544   3 C  s                63     -1.246744   3 C  s         
    98      1.069907   4 C  s                95     -0.755574   4 C  s         
    96      0.619872   4 C  s                94      0.597734   4 C  s         
    35      0.506426   2 C  s                40     -0.481089   2 C  px        
 
 Vector  158  Occ=0.000000D+00  E= 2.198239D+01
              MO Center=  9.0D-01, -2.6D-01, -7.4D-01, r^2= 1.1D+00
   Bfn.  Coefficient  Atom+Function         Bfn.  Coefficient  Atom+Function  
  ----- ------------  ---------------      ----- ------------  ---------------
    95      1.443329   4 C  s                96     -1.333632   4 C  s         
    98     -1.179798   4 C  s                94     -1.135574   4 C  s         
    34     -0.934272   2 C  s                36     -0.880808   2 C  s         
    33      0.848757   2 C  s                32     -0.662993   2 C  s         
    65     -0.636786   3 C  s                64      0.589161   3 C  s         
 
 Vector  159  Occ=0.000000D+00  E= 2.210210D+01
              MO Center=  6.0D-01, -1.0D-01, -5.6D-02, r^2= 6.8D-01
   Bfn.  Coefficient  Atom+Function         Bfn.  Coefficient  Atom+Function  
  ----- ------------  ---------------      ----- ------------  ---------------
    36      2.202283   2 C  s                33     -1.553130   2 C  s         
    34      1.539873   2 C  s                35     -1.341152   2 C  s         
    98     -1.265065   4 C  s                32      1.216194   2 C  s         
    67     -1.174874   3 C  s                95      0.688170   4 C  s         
    97      0.690445   4 C  s                96     -0.621368   4 C  s         
 
 Vector  160  Occ=0.000000D+00  E= 4.341518D+01
              MO Center= -8.8D-01, -1.8D-01,  2.0D-01, r^2= 1.2D-01
   Bfn.  Coefficient  Atom+Function         Bfn.  Coefficient  Atom+Function  
  ----- ------------  ---------------      ----- ------------  ---------------
     4      2.507716   1 O  s                 3     -1.874778   1 O  s         
     2      1.731569   1 O  s                 1     -1.395848   1 O  s         
     5     -0.880983   1 O  s                36      0.841603   2 C  s         
     9      0.561826   1 O  px               66     -0.515999   3 C  s         
    40      0.464548   2 C  px               72      0.456065   3 C  py        
 

 center of mass
 --------------
 x =   0.30619326 y =   0.09486509 z =  -0.27792457

 moments of inertia (a.u.)
 ------------------
         199.904944402142          45.727743904038          83.684686755096
          45.727743904038         248.101157342646         -52.766587507980
          83.684686755096         -52.766587507980         238.846820120624
 
     Multipole analysis of the density
     ---------------------------------
 
     L   x y z        total         alpha         beta         nuclear
     -   - - -        -----         -----         ----         -------
     0   0 0 0     -0.000000    -16.000000    -16.000000     32.000000
 
     1   1 0 0      0.688358     -6.222308     -6.222308     13.132974
     1   0 1 0      0.321891     -1.605550     -1.605550      3.532992
     1   0 0 1     -0.055725      5.323893      5.323893    -10.703510
 
     2   2 0 0    -20.005975    -54.374120    -54.374120     88.742265
     2   1 1 0     -1.138525     13.940681     13.940681    -29.019887
     2   1 0 1      0.183073     26.448964     26.448964    -52.714856
     2   0 2 0    -17.865630    -40.434524    -40.434524     63.003417
     2   0 1 1      0.287709    -15.462867    -15.462867     31.213442
     2   0 0 2    -18.192032    -45.753142    -45.753142     73.314252
 
 *** CALLING NEW AORESP DRIVER FOR CLOSED AND OPEN SHELLS ***
 Entering AOResponse driver routine


--------------------------------------------------------------------------------

          ****************
          *** RESPONSE ***
          ****************

 Response module for NWChem and dynamic CPKS solver
 developed by J. Autschbach and coworkers, SUNY Buffalo
 The methodology used in this program is described in 
 ChemPhysChem 12 (2011), 3224-3235 (main reference)
 J. Chem. Phys. 123 (2005), 114103
 J. Chem. Phys. 122 (2005), 224115
 J. Chem. Phys. 122 (2005), 074105
 Comp. Lett. 3 (2007), 131-150 (contact JA for a copy)
 Please cite this work in publications based on results
 obtained with this code. Thank you!

 For extension of response module to open shell
 calculations please acknowledge:
 F. Aquino, Northwestern University, Schatz Rsrch Group
 The update to the methodology is described in
 J. Phys. Chem. A 118 (2014) 517-525



          -----------------------------------------------
          Solving response equations for perturbing field
          -----------------------------------------------

 number of frequencies:     1
 frequency in a.u.:  0.9319600E-01
 Perturbing field: electric
 Using GIAO formalism for OptRot
 Adding quadrupole terms to OptRot
 to create an origin in dependent tensor.
 Using El. Dipole Length Gauge
 
 Applying DAMPING constant of  0.003700 a.u.
 
 Setting up CPKS
 with frequency omega =      0.09319600 a.u.
 and a damping of            0.00370000 a.u.

 
                            NWChem Dynamic CPHF Module
                            --------------------------
 
 
    scftype = RHF 
    nclosed =   16
      nopen =    0
  variables =     9216
  num. vecs =        3
  tolerance =   1.0D-07
  max. iter =  100

 SCF residual:   1.008840363916539E-006


Iterative solution of linear equations
  No. of variables     4608
  No. of equations        3
  Maximum subspace       99
       Convergence  1.0D-07
        Start time     95.0


   iter   nsub   residual    time 
   ----  ------  --------  --------- 
 dft_CPHF2_read: failed to open
 ./methyloxirane_blyp-def2-tzvp_488.9_40.inp.aoresp_fiao_f1
     1      3    3.77D+00     144.7
     2      6    2.53D+00     194.7
     3      9    2.42D-01     244.9
     4     12    4.90D-02     295.0
     5     15    1.05D-02     345.3
     6     18    1.25D-03     395.6
     7     21    1.41D-04     445.9
     8     24    1.26D-05     496.2
     9     27    1.27D-06     546.5
    10     30    4.42D-07     596.9
    11     33    2.02D-08     647.2

 Calculating some arrays needed for GIAO optical rotation

    0 giaofock schwarz done =      95.02%
    0 giaofock schwarz done =      93.68%
 aor_r1_tensor_giao: roadata output requested
 dip-quad polarizability Re:

              1        2        3        4        5        6      
    1   77.5504  -6.5940 -27.5316  -4.2668   1.3368   8.7332
    2  -11.9767  25.7099   3.7685  23.1630 -21.8742   3.5417
    3   -6.3521   1.3721  39.0286  -0.5010  13.5323 -40.9727
 traceless dip-quad polarizability:

              1        2        3      
    1   75.3171  -9.8911 -41.2974
    2   -9.8911 -47.4086   2.0051
    3  -41.2974   2.0051 -27.9086

              1        2        3      
    1  -25.3290  38.5648   5.6528
    2   38.5648  27.3805 -32.8112
    3    5.6528 -32.8112  -2.0514

              1        2        3      
    1   14.3848   2.0581  58.5429
    2    2.0581  23.1614  20.2984
    3   58.5429  20.2984 -37.5461

 roa begin

 alpha real:
 XX       0.4104426095072E+02
 XY      -0.5247854234867E+01
 XZ      -0.2969164842224E+01
 YX      -0.5247854242887E+01
 YY       0.4401649277280E+02
 YZ       0.3289654538330E+01
 ZX      -0.2969164852218E+01
 ZY       0.3289654536950E+01
 ZZ       0.4148805900616E+02

 alpha im:
 XX       0.1111242871493E+00
 XY      -0.3020955423149E-01
 XZ      -0.1099619768422E-01
 YX      -0.3020954936624E-01
 YY       0.1294958716675E+00
 YZ       0.1899061180551E-01
 ZX      -0.1099619307170E-01
 ZY       0.1899061094377E-01
 ZZ       0.1228976199024E+00

 beta real:
 XX      -0.1317144054056E+00
 XY       0.9520266176627E+00
 XZ       0.2066485398879E+00
 YX      -0.8852484446097E+00
 YY       0.1532514891873E+00
 YZ      -0.1548606374125E+01
 ZX      -0.4982616269372E+00
 ZY       0.1878381879438E+01
 ZZ      -0.2515074770944E-01

 G-prime = -omega beta(real):
 XX      -0.1317144054056E+00
 XY       0.9520266176627E+00
 XZ       0.2066485398879E+00
 YX      -0.8852484446097E+00
 YY       0.1532514891873E+00
 YZ      -0.1548606374125E+01
 ZX      -0.4982616269372E+00
 ZY       0.1878381879438E+01
 ZZ      -0.2515074770944E-01

 beta im:
 XX      -0.5722335131842E-02
 XY       0.1381070852261E-01
 XZ       0.3192008431794E-02
 YX      -0.7501745883399E-02
 YY       0.5020678501597E-02
 YZ      -0.2358837014562E-01
 ZX      -0.1420510119460E-01
 ZY       0.4040152459545E-01
 ZZ      -0.6649307844784E-04

 G-prime = -omega beta(imag):
 XX      -0.5722335131842E-02
 XY       0.1381070852261E-01
 XZ       0.3192008431794E-02
 YX      -0.7501745883399E-02
 YY       0.5020678501597E-02
 YZ      -0.2358837014562E-01
 ZX      -0.1420510119460E-01
 ZY       0.4040152459545E-01
 ZZ      -0.6649307844784E-04

 dipole-quadrupole real (Cartesian):
 XXX      0.7755035167515E+02
 XXY     -0.6594041311235E+01
 XXZ     -0.2753159678381E+02
 XYY     -0.4266776833189E+01
 XYZ      0.1336754500437E+01
 XZZ      0.8733203186466E+01
 YXX     -0.1197666708316E+02
 YXY      0.2570988301167E+02
 YXZ      0.3768523986886E+01
 YYY      0.2316300970920E+02
 YYZ     -0.2187416274557E+02
 YZZ      0.3541747898919E+01
 ZXX     -0.6352084397104E+01
 ZXY      0.1372056280239E+01
 ZXZ      0.3902856879834E+02
 ZYY     -0.5010329266686E+00
 ZYZ      0.1353226306068E+02
 ZZZ     -0.4097268209045E+02

 dipole-quadrupole imag (Cartesian):
 XXX      0.2710543307403E+00
 XXY     -0.3637178588054E-01
 XXZ     -0.7576819205518E-01
 XYY     -0.2782207442241E-01
 XYZ      0.2784365943582E-02
 XZZ      0.5961230571287E-01
 YXX     -0.5738085227000E-01
 YXY      0.6355632363322E-01
 YXZ      0.2107009387137E-01
 YYY      0.9065646224639E-01
 YYZ     -0.6337595182266E-01
 YZZ      0.8039451536780E-02
 ZXX     -0.3333369693631E-01
 ZXY      0.1265062382407E-02
 ZXZ      0.1447062630250E+00
 ZYY      0.3865647352285E-02
 ZYZ      0.6427454964467E-01
 ZZZ     -0.9499133742482E-01

 dipole-quadrupole (traceless):
 XXX      0.7531713849851E+02
 XXY     -0.9891061966852E+01
 XXZ     -0.4129739517571E+02
 XYY     -0.4740855426400E+02
 XYZ      0.2005131750656E+01
 XZZ     -0.2790858423452E+02
 YXX     -0.2532904588722E+02
 YXY      0.3856482451750E+02
 YXZ      0.5652785980328E+01
 YYY      0.2738046930133E+02
 YYZ     -0.3281124411836E+02
 YZZ     -0.2051423414103E+01
 ZXX      0.1438477311146E+02
 ZXY      0.2058084420359E+01
 ZXZ      0.5854285319751E+02
 ZYY      0.2316135031711E+02
 ZYZ      0.2029839459102E+02
 ZZZ     -0.3754612342857E+02

 roa end


 Electric Dipole Response Matrix (nonzero elements):

              1        2        3      
    1   41.0443  -5.2479  -2.9692
    2   -5.2479  44.0165   3.2897
    3   -2.9692   3.2897  41.4881
 
 Imaginary part:

              1        2        3      
    1    0.1111  -0.0302  -0.0110
    2   -0.0302   0.1295   0.0190
    3   -0.0110   0.0190   0.1229

 ------------------------------------------
 average:        42.18294 + I       0.12117


 DFT Linear Response polarizability / au 
 Frequency  =       0.0931960 / au
 Wavelength =     488.8981609 / nm
              X              Y              Z
 -----------------------------------------------
 X      41.0442610     -5.2478542     -2.9691648
 Y      -5.2478542     44.0164928      3.2896545
 Z      -2.9691649      3.2896545     41.4880590
 -----------------------------------------------
 Eigenvalues =      37.0212501     50.2196186     39.3079441
 Isotropic   =      42.1829376
 Anisotropic =       9.9748106
 -----------------------------------------------
 *************************

 DFT Linear Response IMAG polarizability / au 
 Frequency  =       0.0931960 / au
 Wavelength =     488.8981609 / nm
              X              Y              Z
 -----------------------------------------------
 X       0.1111243     -0.0302096     -0.0109962
 Y      -0.0302095      0.1294959      0.0189906
 Z      -0.0109962      0.0189906      0.1228976
 -----------------------------------------------
 Eigenvalues =       0.0885073      0.1635921      0.1114184
 Isotropic   =       0.1211726
 Anisotropic =       0.0544204
 -----------------------------------------------
 *************************

 Magnetic Dipole Response Matrix (nonzero elements):
 Optical rotation tensor Beta
 (Buckingham-Dunn version including dipole-quadrupole terms)

              1        2        3      
    1    2.6115  -0.4067   0.4125
    2   -0.4067  -1.6267  -1.6896
    3    0.4125  -1.6896  -0.9460
 
 Imaginary part:

              1        2        3      
    1    0.0614  -0.1482  -0.0343
    2    0.0805  -0.0539   0.2531
    3    0.1524  -0.4335   0.0007

 ------------------------------------------
 average:         0.01292 + I       0.00275

 Principal components and PAS (Real part)
                 -3.01042
                  2.75555
                  0.29365
 ------------------------
 average:         0.01292

              1        2        3      
    1    0.0097   0.9704  -0.2414
    2    0.7748  -0.1599  -0.6117
    3    0.6322   0.1811   0.7534

 Chiral response tensor (Real part):

              1        2        3      
    1   -1.2864   0.2033  -0.2063
    2    0.2033   0.8328   0.8448
    3   -0.2063   0.8448   0.4924
 
 Principal components and PAS (Real part)
                  1.52460
                 -1.35839
                 -0.12744
 ------------------------
 average:         0.01292

              1        2        3      
    1    0.0097   0.9704  -0.2414
    2    0.7748  -0.1599  -0.6117
    3    0.6322   0.1811   0.7534
 Exiting AOResponse driver routine

 Task  times  cpu:      621.5s     wall:      640.9s
 
 
                                NWChem Input Module
                                -------------------
 
 
 Summary of allocated global arrays
-----------------------------------
  No active global arrays



                         GA Statistics for process    0
                         ------------------------------

       create   destroy   get      put      acc     scatter   gather  read&inc
calls: 3294     3294     7.61e+06 3.14e+06 7.04e+05 2694        0     1140     
number of processes/call 1.01e+00 1.03e+00 1.42e+00 0.00e+00 0.00e+00
bytes total:             1.62e+09 1.26e+08 1.68e+09 1.84e+02 0.00e+00 9.12e+03
bytes remote:            6.65e+08 3.29e+07 9.38e+08 0.00e+00 0.00e+00 0.00e+00
Max memory consumed for GA by this process: 11242192 bytes
 
MA_summarize_allocated_blocks: starting scan ...
MA_summarize_allocated_blocks: scan completed: 0 heap blocks, 0 stack blocks
MA usage statistics:

	allocation statistics:
					      heap	     stack
					      ----	     -----
	current number of blocks	         0	         0
	maximum number of blocks	        24	        52
	current total bytes		         0	         0
	maximum total bytes		   7519856	  49602536
	maximum total K-bytes		      7520	     49603
	maximum total M-bytes		         8	        50
 
 
                                     CITATION
                                     --------
                Please cite the following reference when publishing
                           results obtained with NWChem:
 
                 M. Valiev, E.J. Bylaska, N. Govind, K. Kowalski,
              T.P. Straatsma, H.J.J. van Dam, D. Wang, J. Nieplocha,
                        E. Apra, T.L. Windus, W.A. de Jong
                 "NWChem: a comprehensive and scalable open-source
                  solution for large scale molecular simulations"
                      Comput. Phys. Commun. 181, 1477 (2010)
                           doi:10.1016/j.cpc.2010.04.018
 
                                      AUTHORS
                                      -------
          E. Apra, E. J. Bylaska, W. A. de Jong, N. Govind, K. Kowalski,
       T. P. Straatsma, M. Valiev, H. J. J. van Dam, D. Wang, T. L. Windus,
        J. Hammond, J. Autschbach, K. Bhaskaran-Nair, J. Brabec, K. Lopata,
    S. A. Fischer, S. Krishnamoorthy, M. Jacquelin, W. Ma, M. Klemm, O. Villa,
      Y. Chen, V. Anisimov, F. Aquino, S. Hirata, M. T. Hackler, V. Konjkov,
            D. Mejia-Rodriguez, T. Risthaus, M. Malagoli, A. Marenich,
   A. Otero-de-la-Roza, J. Mullin, P. Nichols, R. Peverati, J. Pittner, Y. Zhao,
        P.-D. Fan, A. Fonari, M. J. Williamson, R. J. Harrison, J. R. Rehr,
      M. Dupuis, D. Silverstein, D. M. A. Smith, J. Nieplocha, V. Tipparaju,
    M. Krishnan, B. E. Van Kuiken, A. Vazquez-Mayagoitia, L. Jensen, M. Swart,
      Q. Wu, T. Van Voorhis, A. A. Auer, M. Nooijen, L. D. Crosby, E. Brown,
      G. Cisneros, G. I. Fann, H. Fruchtl, J. Garza, K. Hirao, R. A. Kendall,
      J. A. Nichols, K. Tsemekhman, K. Wolinski, J. Anchell, D. E. Bernholdt,
      P. Borowski, T. Clark, D. Clerc, H. Dachsel, M. J. O. Deegan, K. Dyall,
    D. Elwood, E. Glendening, M. Gutowski, A. C. Hess, J. Jaffe, B. G. Johnson,
     J. Ju, R. Kobayashi, R. Kutteh, Z. Lin, R. Littlefield, X. Long, B. Meng,
      T. Nakajima, S. Niu, L. Pollack, M. Rosing, K. Glaesemann, G. Sandrone,
      M. Stave, H. Taylor, G. Thomas, J. H. van Lenthe, A. T. Wong, Z. Zhang.

 Total times  cpu:      695.2s     wall:      716.7s
