 argument  1 = methyloxirane_blyp-def2-tzvp_488.9_24.inp
 


============================== echo of input deck ==============================
echo
start methyloxirane_blyp-def2-tzvp_488.9_24.inp
title "methyloxirane roa calculations at 488.9 nm, input generated in va  with delta_type=2"
charge 0



geometry units angstrom nocenter noautoz noautosym nucleus point;symmetry c1
 O -0.879114 -0.180300  0.205299
 C  0.574089 -0.157528  0.122358
 C -0.185663  1.088701  0.337157
 C  1.185345 -0.520330 -1.211479
 H  1.059908 -0.605310  1.000510
 H -0.229186  1.546661  1.354864
 H -0.322434  1.769642 -0.477706
 H  2.241990 -0.215996 -1.245779
 H  1.142442 -1.606454 -1.374287
 H  0.652371 -0.027785 -2.032355
end

basis spherical
* library def2-TZVP
end

 set prop:newaoresp 1
 set aor:roadata T
 set cphf:maxsub 100
 set cphf:acc 1.0d-10
 set cphf:maxiter 100

property
    response 1   0.093196
    bdtensor
    convergence 1e-7
    damping 0.0037
    giao
end

dft
 direct
 mult 1
 xc becke88 lyp
 iterations 250
 tolerances tight
 grid xfine
 convergence nolevelshifting
 convergence energy 1e-8
 convergence gradient 1e-7


end

task dft gradient
task dft property
================================================================================


                                         
                                         
 
 
              Northwest Computational Chemistry Package (NWChem) 6.8
              ------------------------------------------------------
 
 
                    Environmental Molecular Sciences Laboratory
                       Pacific Northwest National Laboratory
                                Richland, WA 99352
 
                              Copyright (c) 1994-2017
                       Pacific Northwest National Laboratory
                            Battelle Memorial Institute
 
             NWChem is an open-source computational chemistry package
                        distributed under the terms of the
                      Educational Community License (ECL) 2.0
             A copy of the license is included with this distribution
                              in the LICENSE.TXT file
 
                                  ACKNOWLEDGMENT
                                  --------------

            This software and its documentation were developed at the
            EMSL at Pacific Northwest National Laboratory, a multiprogram
            national laboratory, operated for the U.S. Department of Energy
            by Battelle under Contract Number DE-AC05-76RL01830. Support
            for this work was provided by the Department of Energy Office
            of Biological and Environmental Research, Office of Basic
            Energy Sciences, and the Office of Advanced Scientific Computing.


           Job information
           ---------------

    hostname        = cpn-f11-19-01.cbls.ccr.buffalo.edu
    program         = /util/academic/nwchem/nwchem-6.8/bin/LINUX64/nwchem
    date            = Fri Mar  1 10:17:58 2019

    compiled        = Tue_Nov_06_14:59:08_2018
    source          = /util/academic/nwchem/nwchem-6.8
    nwchem branch   = 6.8
    nwchem revision = v6.8-47-gdf6c956
    ga revision     = ga-5.6.3
    use scalapack   = F
    input           = methyloxirane_blyp-def2-tzvp_488.9_24.inp
    prefix          = methyloxirane_blyp-def2-tzvp_488.9_24.inp.
    data base       = ./methyloxirane_blyp-def2-tzvp_488.9_24.inp.db
    status          = startup
    nproc           =        7
    time left       =     -1s



           Memory information
           ------------------

    heap     =   13107198 doubles =    100.0 Mbytes
    stack    =   13107195 doubles =    100.0 Mbytes
    global   =   26214400 doubles =    200.0 Mbytes (distinct from heap & stack)
    total    =   52428793 doubles =    400.0 Mbytes
    verify   = yes
    hardfail = no 


           Directory information
           ---------------------
 
  0 permanent = .
  0 scratch   = .
 
 
 
 
                                NWChem Input Module
                                -------------------
 
 
                    methyloxirane roa calculations at 488.9 nm, input generated in va  with delta_type=2
                    ------------------------------------------

 Scaling coordinates for geometry "geometry" by  1.889725989
 (inverse scale =  0.529177249)

 
 
                             Geometry "geometry" -> ""
                             -------------------------
 
 Output coordinates in angstroms (scale by  1.889725989 to convert to a.u.)
 
  No.       Tag          Charge          X              Y              Z
 ---- ---------------- ---------- -------------- -------------- --------------
    1 O                    8.0000    -0.87911400    -0.18030000     0.20529900
    2 C                    6.0000     0.57408900    -0.15752800     0.12235800
    3 C                    6.0000    -0.18566300     1.08870100     0.33715700
    4 C                    6.0000     1.18534500    -0.52033000    -1.21147900
    5 H                    1.0000     1.05990800    -0.60531000     1.00051000
    6 H                    1.0000    -0.22918600     1.54666100     1.35486400
    7 H                    1.0000    -0.32243400     1.76964200    -0.47770600
    8 H                    1.0000     2.24199000    -0.21599600    -1.24577900
    9 H                    1.0000     1.14244200    -1.60645400    -1.37428700
   10 H                    1.0000     0.65237100    -0.02778500    -2.03235500
 
      Atomic Mass 
      ----------- 
 
      O                 15.994910
      C                 12.000000
      H                  1.007825
 

 Effective nuclear repulsion energy (a.u.)     123.5271859476

            Nuclear Dipole moment (a.u.) 
            ----------------------------
        X                 Y               Z
 ---------------- ---------------- ----------------
    13.1426757540     3.5591401625   -10.6658874898
 
 
            XYZ format geometry
            -------------------
    10
 geometry
 O                    -0.87911400    -0.18030000     0.20529900
 C                     0.57408900    -0.15752800     0.12235800
 C                    -0.18566300     1.08870100     0.33715700
 C                     1.18534500    -0.52033000    -1.21147900
 H                     1.05990800    -0.60531000     1.00051000
 H                    -0.22918600     1.54666100     1.35486400
 H                    -0.32243400     1.76964200    -0.47770600
 H                     2.24199000    -0.21599600    -1.24577900
 H                     1.14244200    -1.60645400    -1.37428700
 H                     0.65237100    -0.02778500    -2.03235500
 
 ==============================================================================
                                internuclear distances
 ------------------------------------------------------------------------------
       center one      |      center two      | atomic units |  angstroms
 ------------------------------------------------------------------------------
    2 C                |   1 O                |     2.75096  |     1.45575
    3 C                |   1 O                |     2.74409  |     1.45211
    3 C                |   2 C                |     2.78787  |     1.47528
    4 C                |   2 C                |     2.85616  |     1.51142
    5 H                |   2 C                |     2.07670  |     1.09894
    6 H                |   3 C                |     2.11054  |     1.11685
    7 H                |   3 C                |     2.02332  |     1.07070
    8 H                |   4 C                |     2.07895  |     1.10013
    9 H                |   4 C                |     2.07699  |     1.09910
   10 H                |   4 C                |     2.07052  |     1.09567
 ------------------------------------------------------------------------------
                         number of included internuclear distances:         10
 ==============================================================================



 ==============================================================================
                                 internuclear angles
 ------------------------------------------------------------------------------
        center 1       |       center 2       |       center 3       |  degrees
 ------------------------------------------------------------------------------
    2 C                |   1 O                |   3 C                |    60.97
    2 C                |   1 O                |   3 C                |    60.97
    1 O                |   2 C                |   4 C                |   116.76
    1 O                |   2 C                |   5 H                |   112.92
    3 C                |   2 C                |   4 C                |   122.65
    3 C                |   2 C                |   5 H                |   117.10
    4 C                |   2 C                |   5 H                |   115.38
    3 C                |   1 O                |   2 C                |    60.97
    1 O                |   3 C                |   6 H                |   114.99
    1 O                |   3 C                |   7 H                |   115.19
    2 C                |   3 C                |   6 H                |   119.94
    2 C                |   3 C                |   7 H                |   119.49
    6 H                |   3 C                |   7 H                |   115.32
    2 C                |   4 C                |   8 H                |   110.46
    2 C                |   4 C                |   9 H                |   110.62
    2 C                |   4 C                |  10 H                |   110.89
    8 H                |   4 C                |   9 H                |   107.83
    8 H                |   4 C                |  10 H                |   108.63
    9 H                |   4 C                |  10 H                |   108.32
 ------------------------------------------------------------------------------
                            number of included internuclear angles:         19
 ==============================================================================



  warning:::::::::::::: from_environment
  NWCHEM_BASIS_LIBRARY set to: <
 /util/academic/nwchem/nwchem-6.8/src/basis/libraries>
  but file does not exist !
  using .nwchemrc or compiled library


 Summary of "ao basis" -> "" (spherical)
 ------------------------------------------------------------------------------
       Tag                 Description            Shells   Functions and Types
 ---------------- ------------------------------  ------  ---------------------
 *                         def2-TZVP                  on all atoms 


 
                                 NWChem DFT Module
                                 -----------------
 
 
                    methyloxirane roa calculations at 488.9 nm, input generated in va  with delta_type=2
 
 
                      Basis "ao basis" -> "ao basis" (spherical)
                      -----
  O (Oxygen)
  ----------
            Exponent  Coefficients 
       -------------- ---------------------------------------------------------
  1 S  2.70323826E+04  0.000217
  1 S  4.05238714E+03  0.001684
  1 S  9.22327227E+02  0.008740
  1 S  2.61240710E+02  0.035240
  1 S  8.53546414E+01  0.111535
  1 S  3.10350352E+01  0.255890
 
  2 S  1.22608607E+01  0.397687
  2 S  4.99870760E+00  0.246278
 
  3 S  1.17031082E+00  1.000000
 
  4 S  4.64747410E-01  1.000000
 
  5 S  1.85045364E-01  1.000000
 
  6 P  6.32749548E+01  0.006069
  6 P  1.46270494E+01  0.041913
  6 P  4.45012235E+00  0.161538
  6 P  1.52757996E+00  0.357070
 
  7 P  5.29351179E-01  1.000000
 
  8 P  1.74784213E-01  1.000000
 
  9 D  2.31400000E+00  1.000000
 
 10 D  6.45000000E-01  1.000000
 
 11 F  1.42800000E+00  1.000000
 
  C (Carbon)
  ----------
            Exponent  Coefficients 
       -------------- ---------------------------------------------------------
  1 S  1.35753497E+04  0.000222
  1 S  2.03523337E+03  0.001723
  1 S  4.63225624E+02  0.008926
  1 S  1.31200196E+02  0.035728
  1 S  4.28530159E+01  0.110763
  1 S  1.55841858E+01  0.242956
 
  2 S  6.20671385E+00  0.414403
  2 S  2.57648965E+00  0.237450
 
  3 S  5.76963394E-01  1.000000
 
  4 S  2.29728314E-01  1.000000
 
  5 S  9.51644400E-02  1.000000
 
  6 P  3.46972322E+01  0.005333
  6 P  7.95826228E+00  0.035864
  6 P  2.37808269E+00  0.142159
  6 P  8.14332082E-01  0.342705
 
  7 P  2.88875473E-01  1.000000
 
  8 P  1.00568237E-01  1.000000
 
  9 D  1.09700000E+00  1.000000
 
 10 D  3.18000000E-01  1.000000
 
 11 F  7.61000000E-01  1.000000
 
  H (Hydrogen)
  ------------
            Exponent  Coefficients 
       -------------- ---------------------------------------------------------
  1 S  3.40613410E+01  0.006025
  1 S  5.12357460E+00  0.045021
  1 S  1.16466260E+00  0.201897
 
  2 S  3.27230410E-01  1.000000
 
  3 S  1.03072410E-01  1.000000
 
  4 P  8.00000000E-01  1.000000
 


 Summary of "ao basis" -> "ao basis" (spherical)
 ------------------------------------------------------------------------------
       Tag                 Description            Shells   Functions and Types
 ---------------- ------------------------------  ------  ---------------------
 O                         def2-TZVP                11       31   5s3p2d1f
 C                         def2-TZVP                11       31   5s3p2d1f
 H                         def2-TZVP                 4        6   3s1p




 Summary of "ao basis" -> "ao basis" (spherical)
 ------------------------------------------------------------------------------
       Tag                 Description            Shells   Functions and Types
 ---------------- ------------------------------  ------  ---------------------
 O                         def2-TZVP                11       31   5s3p2d1f
 C                         def2-TZVP                11       31   5s3p2d1f
 H                         def2-TZVP                 4        6   3s1p


  Caching 1-el integrals 
  itol2e modified to match energy
  convergence criterion.
  tol_rho modified to match energy
  convergence criterion.
 
            General Information
            -------------------
          SCF calculation type: DFT
          Wavefunction type:  closed shell.
          No. of atoms     :    10
          No. of electrons :    32
           Alpha electrons :    16
            Beta electrons :    16
          Charge           :     0
          Spin multiplicity:     1
          Use of symmetry is: off; symmetry adaption is: off
          Maximum number of iterations: 250
          This is a Direct SCF calculation.
          AO basis - number of functions:   160
                     number of shells:    68
          Convergence on energy requested:  1.00D-08
          Convergence on density requested:  1.00D-05
          Convergence on gradient requested:  1.00D-07
 
              XC Information
              --------------
                    Becke 1988 Exchange Functional  1.000          
              Lee-Yang-Parr Correlation Functional  1.000          
 
             Grid Information
             ----------------
          Grid used for XC integration:  xfine     
          Radial quadrature: Mura-Knowles        
          Angular quadrature: Lebedev. 
          Tag              B.-S. Rad. Rad. Pts. Rad. Cut. Ang. Pts.
          ---              ---------- --------- --------- ---------
          O                   0.60      100          11.0      1454
          C                   0.70      100          11.0      1454
          H                   0.35      100          12.0      1202
          Grid pruning is: on 
          Number of quadrature shells:  1000
          Spatial weights used:  Erf1
 
          Convergence Information
          -----------------------
          Convergence aids based upon iterative change in 
          total energy or number of iterations. 
          Levelshifting, if invoked, occurs when the 
          HOMO/LUMO gap drops below (HL_TOL):  1.00D-02
          DIIS, if invoked, will attempt to extrapolate 
          using up to (NFOCK): 10 stored Fock matrices.

                    Damping( 0%)  Levelshifting(0.0)       DIIS
                  --------------- ------------------- ---------------
          dE  on:    start             N/A                start   
          dE off:    2 iters           N/A              250 iters 

 
      Screening Tolerance Information
      -------------------------------
          Density screening/tol_rho:  1.00D-11
          AO Gaussian exp screening on grid/accAOfunc:  18
          CD Gaussian exp screening on grid/accCDfunc:  20
          XC Gaussian exp screening on grid/accXCfunc:  20
          Schwarz screening/accCoul:  1.00D-09

 
      Superposition of Atomic Density Guess
      -------------------------------------
 
 Sum of atomic energies:        -190.79714706
 
      Non-variational initial energy
      ------------------------------

 Total energy =    -193.159967
 1-e energy   =    -502.017068
 2-e energy   =     185.329915
 HOMO         =      -0.351416
 LUMO         =       0.090242
 
   Time after variat. SCF:      0.6
   Time prior to 1st pass:      0.6

 Grid_pts file          = ./methyloxirane_blyp-def2-tzvp_488.9_24.inp.gridpts.0
 Record size in doubles =  12289        No. of grid_pts per rec  =   3070
 Max. records in memory =     76        Max. recs in file   =    554542


           Memory utilization after 1st SCF pass: 
           Heap Space remaining (MW):       12.17            12167542
          Stack Space remaining (MW):       13.11            13106116

   convergence    iter        energy       DeltaE   RMS-Dens  Diis-err    time
 ---------------- ----- ----------------- --------- --------- ---------  ------
 d= 0,ls=0.0,diis     1   -193.0195234447 -3.17D+02  9.16D-03  1.06D+00     6.9
 d= 0,ls=0.0,diis     2   -192.8571209353  1.62D-01  7.58D-03  2.56D+00    13.0
 d= 0,ls=0.0,diis     3   -193.0764581111 -2.19D-01  1.82D-03  3.87D-01    19.1
 d= 0,ls=0.0,diis     4   -193.1066627933 -3.02D-02  6.85D-04  1.83D-02    25.3
 d= 0,ls=0.0,diis     5   -193.1083429094 -1.68D-03  2.93D-04  2.72D-03    31.3
 d= 0,ls=0.0,diis     6   -193.1086820840 -3.39D-04  3.07D-05  3.65D-05    37.3
 d= 0,ls=0.0,diis     7   -193.1086864495 -4.37D-06  8.50D-06  4.09D-06    43.3
 d= 0,ls=0.0,diis     8   -193.1086868973 -4.48D-07  2.15D-06  3.23D-07    49.3
 d= 0,ls=0.0,diis     9   -193.1086869322 -3.49D-08  7.01D-07  1.98D-08    55.3
 d= 0,ls=0.0,diis    10   -193.1086869344 -2.22D-09  2.06D-07  2.74D-09    61.3


         Total DFT energy =     -193.108686934450
      One electron energy =     -505.668885798416
           Coulomb energy =      216.052879153189
    Exchange-Corr. energy =      -27.019866236860
 Nuclear repulsion energy =      123.527185947636

 Numeric. integr. density =       32.000000031307

     Total iterative time =     60.7s


 
                       DFT Final Molecular Orbital Analysis
                       ------------------------------------
 
 Vector    1  Occ=2.000000D+00  E=-1.877984D+01
              MO Center= -8.8D-01, -1.8D-01,  2.1D-01, r^2= 1.5D-02
   Bfn.  Coefficient  Atom+Function         Bfn.  Coefficient  Atom+Function  
  ----- ------------  ---------------      ----- ------------  ---------------
     2      0.638477   1 O  s                 1      0.435422   1 O  s         
     3      0.039886   1 O  s                 4     -0.033240   1 O  s         
 
 Vector    2  Occ=2.000000D+00  E=-9.963539D+00
              MO Center=  5.7D-01, -1.6D-01,  1.2D-01, r^2= 2.8D-02
   Bfn.  Coefficient  Atom+Function         Bfn.  Coefficient  Atom+Function  
  ----- ------------  ---------------      ----- ------------  ---------------
    33      0.606922   2 C  s                32      0.467266   2 C  s         
    34      0.042472   2 C  s                36      0.037377   2 C  s         
    35     -0.027272   2 C  s         
 
 Vector    3  Occ=2.000000D+00  E=-9.955654D+00
              MO Center= -1.9D-01,  1.1D+00,  3.4D-01, r^2= 2.8D-02
   Bfn.  Coefficient  Atom+Function         Bfn.  Coefficient  Atom+Function  
  ----- ------------  ---------------      ----- ------------  ---------------
    64      0.607031   3 C  s                63      0.467225   3 C  s         
    65      0.039738   3 C  s         
 
 Vector    4  Occ=2.000000D+00  E=-9.908045D+00
              MO Center=  1.2D+00, -5.2D-01, -1.2D+00, r^2= 2.8D-02
   Bfn.  Coefficient  Atom+Function         Bfn.  Coefficient  Atom+Function  
  ----- ------------  ---------------      ----- ------------  ---------------
    95      0.606960   4 C  s                94      0.467215   4 C  s         
    96      0.040601   4 C  s                98      0.035699   4 C  s         
 
 Vector    5  Occ=2.000000D+00  E=-9.625812D-01
              MO Center= -4.7D-01,  5.6D-02,  2.1D-01, r^2= 6.5D-01
   Bfn.  Coefficient  Atom+Function         Bfn.  Coefficient  Atom+Function  
  ----- ------------  ---------------      ----- ------------  ---------------
     4      0.375249   1 O  s                 3      0.277444   1 O  s         
     2     -0.192793   1 O  s                34      0.139788   2 C  s         
    65      0.139157   3 C  s                 5      0.122778   1 O  s         
    35      0.105071   2 C  s                 6      0.093278   1 O  px        
    66      0.093554   3 C  s                69     -0.091324   3 C  py        
 
 Vector    6  Occ=2.000000D+00  E=-6.699196D-01
              MO Center=  9.4D-01, -3.9D-01, -7.7D-01, r^2= 1.5D+00
   Bfn.  Coefficient  Atom+Function         Bfn.  Coefficient  Atom+Function  
  ----- ------------  ---------------      ----- ------------  ---------------
    97      0.285364   4 C  s                96      0.276457   4 C  s         
    35      0.184556   2 C  s                34      0.174031   2 C  s         
    95     -0.174081   4 C  s                 4     -0.147868   1 O  s         
    33     -0.108712   2 C  s                 3     -0.103391   1 O  s         
    94     -0.083410   4 C  s                 5     -0.073280   1 O  s         
 
 Vector    7  Occ=2.000000D+00  E=-5.897511D-01
              MO Center= -1.3D-01,  7.3D-01,  1.9D-01, r^2= 2.0D+00
   Bfn.  Coefficient  Atom+Function         Bfn.  Coefficient  Atom+Function  
  ----- ------------  ---------------      ----- ------------  ---------------
    66      0.327235   3 C  s                65      0.278934   3 C  s         
     4     -0.237561   1 O  s                64     -0.172431   3 C  s         
     3     -0.167802   1 O  s                 5     -0.147510   1 O  s         
     2      0.110787   1 O  s                38      0.105732   2 C  py        
   138      0.105066   7 H  s                97     -0.099670   4 C  s         
 
 Vector    8  Occ=2.000000D+00  E=-5.302463D-01
              MO Center=  4.1D-01,  1.6D-02, -1.0D-01, r^2= 2.7D+00
   Bfn.  Coefficient  Atom+Function         Bfn.  Coefficient  Atom+Function  
  ----- ------------  ---------------      ----- ------------  ---------------
    35      0.303646   2 C  s                34      0.225662   2 C  s         
    97     -0.153933   4 C  s                66     -0.148513   3 C  s         
    33     -0.138731   2 C  s               126      0.132379   5 H  s         
    96     -0.128010   4 C  s                 6      0.107484   1 O  px        
   125      0.105758   5 H  s                39      0.097731   2 C  pz        
 
 Vector    9  Occ=2.000000D+00  E=-4.460955D-01
              MO Center=  1.3D-01,  2.8D-01,  2.4D-01, r^2= 2.5D+00
   Bfn.  Coefficient  Atom+Function         Bfn.  Coefficient  Atom+Function  
  ----- ------------  ---------------      ----- ------------  ---------------
    70      0.206947   3 C  pz               39      0.158241   2 C  pz        
   132      0.143660   6 H  s                73      0.131687   3 C  pz        
     8      0.129781   1 O  pz              126      0.115579   5 H  s         
     6     -0.111138   1 O  px              131      0.105818   6 H  s         
    11      0.105183   1 O  pz               37      0.104761   2 C  px        
 
 Vector   10  Occ=2.000000D+00  E=-4.153380D-01
              MO Center=  4.6D-02,  2.8D-01, -2.3D-01, r^2= 2.5D+00
   Bfn.  Coefficient  Atom+Function         Bfn.  Coefficient  Atom+Function  
  ----- ------------  ---------------      ----- ------------  ---------------
    69      0.217025   3 C  py              138      0.154681   7 H  s         
   101      0.153480   4 C  pz               38     -0.144001   2 C  py        
     6     -0.141388   1 O  px               37      0.128303   2 C  px        
     7     -0.126167   1 O  py               72      0.120672   3 C  py        
    70     -0.118531   3 C  pz                9     -0.113008   1 O  px        
 
 Vector   11  Occ=2.000000D+00  E=-3.764484D-01
              MO Center=  9.2D-01, -3.3D-01, -7.6D-01, r^2= 2.7D+00
   Bfn.  Coefficient  Atom+Function         Bfn.  Coefficient  Atom+Function  
  ----- ------------  ---------------      ----- ------------  ---------------
    99      0.206511   4 C  px              144      0.184541   8 H  s         
   100      0.171967   4 C  py              150     -0.145946   9 H  s         
   102      0.132482   4 C  px              143      0.129081   8 H  s         
    37      0.126850   2 C  px                6     -0.117337   1 O  px        
   103      0.113635   4 C  py                7      0.111273   1 O  py        
 
 Vector   12  Occ=2.000000D+00  E=-3.558849D-01
              MO Center=  5.9D-01, -3.3D-01, -8.7D-01, r^2= 2.9D+00
   Bfn.  Coefficient  Atom+Function         Bfn.  Coefficient  Atom+Function  
  ----- ------------  ---------------      ----- ------------  ---------------
   100      0.251450   4 C  py              150     -0.182280   9 H  s         
   156      0.179604  10 H  s                 7     -0.168596   1 O  py        
   103      0.162867   4 C  py               10     -0.134958   1 O  py        
   149     -0.126983   9 H  s               155      0.127101  10 H  s         
    70      0.115947   3 C  pz               99     -0.101644   4 C  px        
 
 Vector   13  Occ=2.000000D+00  E=-3.297456D-01
              MO Center=  3.3D-01,  2.2D-01, -2.2D-01, r^2= 2.8D+00
   Bfn.  Coefficient  Atom+Function         Bfn.  Coefficient  Atom+Function  
  ----- ------------  ---------------      ----- ------------  ---------------
    39      0.209068   2 C  pz              101     -0.186086   4 C  pz        
     7     -0.178084   1 O  py               70     -0.166337   3 C  pz        
   138      0.157301   7 H  s                10     -0.143871   1 O  py        
    99      0.143346   4 C  px               42      0.141844   2 C  pz        
   104     -0.131027   4 C  pz              137      0.106373   7 H  s         
 
 Vector   14  Occ=2.000000D+00  E=-3.206062D-01
              MO Center=  4.0D-01, -2.8D-02, -1.9D-01, r^2= 3.0D+00
   Bfn.  Coefficient  Atom+Function         Bfn.  Coefficient  Atom+Function  
  ----- ------------  ---------------      ----- ------------  ---------------
     7      0.197223   1 O  py              126      0.168891   5 H  s         
    10      0.161806   1 O  py              156      0.152333  10 H  s         
    99     -0.145819   4 C  px               39      0.144078   2 C  pz        
     6     -0.140377   1 O  px              101     -0.130190   4 C  pz        
    37      0.127049   2 C  px              144     -0.123853   8 H  s         
 
 Vector   15  Occ=2.000000D+00  E=-2.634872D-01
              MO Center=  1.6D-02,  1.5D-01,  3.4D-02, r^2= 2.3D+00
   Bfn.  Coefficient  Atom+Function         Bfn.  Coefficient  Atom+Function  
  ----- ------------  ---------------      ----- ------------  ---------------
    68      0.264337   3 C  px               38      0.256260   2 C  py        
     6     -0.237177   1 O  px               41      0.199878   2 C  py        
    71      0.196358   3 C  px                9     -0.185518   1 O  px        
    12     -0.156999   1 O  px              150      0.115229   9 H  s         
   100     -0.111425   4 C  py               67      0.106601   3 C  s         
 
 Vector   16  Occ=2.000000D+00  E=-2.197507D-01
              MO Center= -5.8D-01, -2.5D-02,  2.1D-01, r^2= 1.6D+00
   Bfn.  Coefficient  Atom+Function         Bfn.  Coefficient  Atom+Function  
  ----- ------------  ---------------      ----- ------------  ---------------
     8      0.449088   1 O  pz               11      0.357677   1 O  pz        
    14      0.296146   1 O  pz              133     -0.132486   6 H  s         
   139      0.114718   7 H  s               132     -0.105994   6 H  s         
   138      0.102269   7 H  s               145     -0.102733   8 H  s         
   126     -0.096750   5 H  s                98      0.090818   4 C  s         
 
 Vector   17  Occ=0.000000D+00  E= 2.526643D-02
              MO Center=  1.2D+00, -9.6D-02, -5.2D-01, r^2= 7.3D+00
   Bfn.  Coefficient  Atom+Function         Bfn.  Coefficient  Atom+Function  
  ----- ------------  ---------------      ----- ------------  ---------------
    98      4.406567   4 C  s               145     -1.501800   8 H  s         
   151     -1.488437   9 H  s               157     -1.311794  10 H  s         
   127     -1.267339   5 H  s                45      1.119685   2 C  pz        
   139     -0.858795   7 H  s                67      0.749736   3 C  s         
   133     -0.669525   6 H  s                75      0.326162   3 C  py        
 
 Vector   18  Occ=0.000000D+00  E= 4.280031D-02
              MO Center= -1.4D-01,  6.7D-01,  1.1D-01, r^2= 4.4D+00
   Bfn.  Coefficient  Atom+Function         Bfn.  Coefficient  Atom+Function  
  ----- ------------  ---------------      ----- ------------  ---------------
    98     -2.071075   4 C  s                36      1.990795   2 C  s         
     5     -1.270608   1 O  s                74     -0.950436   3 C  px        
   151      0.791571   9 H  s                45     -0.480317   2 C  pz        
    67     -0.481413   3 C  s                13     -0.436114   1 O  py        
    44      0.425567   2 C  py              157      0.413213  10 H  s         
 
 Vector   19  Occ=0.000000D+00  E= 4.946813D-02
              MO Center=  6.5D-01,  4.1D-01,  3.8D-01, r^2= 7.8D+00
   Bfn.  Coefficient  Atom+Function         Bfn.  Coefficient  Atom+Function  
  ----- ------------  ---------------      ----- ------------  ---------------
    98      3.558984   4 C  s                67     -1.992203   3 C  s         
   133      1.755230   6 H  s               127      1.412795   5 H  s         
    36     -1.379766   2 C  s               157     -1.270625  10 H  s         
   145     -1.116202   8 H  s                44      0.933364   2 C  py        
   151     -0.748276   9 H  s                43     -0.723477   2 C  px        
 
 Vector   20  Occ=0.000000D+00  E= 5.092330D-02
              MO Center=  3.4D-01,  5.9D-01, -9.7D-02, r^2= 6.4D+00
   Bfn.  Coefficient  Atom+Function         Bfn.  Coefficient  Atom+Function  
  ----- ------------  ---------------      ----- ------------  ---------------
    67      3.221772   3 C  s                36     -2.526350   2 C  s         
   139     -1.604450   7 H  s               127      1.501907   5 H  s         
   145      0.676970   8 H  s                44     -0.658740   2 C  py        
   157     -0.645202  10 H  s               133     -0.619575   6 H  s         
    45     -0.589007   2 C  pz                5     -0.551404   1 O  s         
 
 Vector   21  Occ=0.000000D+00  E= 6.523326D-02
              MO Center=  2.8D-01,  1.4D-01, -1.6D-01, r^2= 4.9D+00
   Bfn.  Coefficient  Atom+Function         Bfn.  Coefficient  Atom+Function  
  ----- ------------  ---------------      ----- ------------  ---------------
   139      1.289902   7 H  s                67     -1.137450   3 C  s         
    98      1.079836   4 C  s               151     -0.951278   9 H  s         
     5     -0.853459   1 O  s                43     -0.789143   2 C  px        
   133      0.641262   6 H  s               127     -0.573855   5 H  s         
    75     -0.532578   3 C  py               12     -0.482163   1 O  px        
 
 Vector   22  Occ=0.000000D+00  E= 8.595593D-02
              MO Center=  1.3D+00,  2.0D-01, -5.1D-01, r^2= 7.1D+00
   Bfn.  Coefficient  Atom+Function         Bfn.  Coefficient  Atom+Function  
  ----- ------------  ---------------      ----- ------------  ---------------
    36      2.907872   2 C  s               145      1.985522   8 H  s         
   127     -1.332025   5 H  s               157     -1.323499  10 H  s         
    67     -1.251798   3 C  s               107     -1.151886   4 C  pz        
   133      1.147908   6 H  s                98     -1.037321   4 C  s         
   105     -0.987577   4 C  px               75      0.788606   3 C  py        
 
 Vector   23  Occ=0.000000D+00  E= 9.106906D-02
              MO Center=  1.2D+00, -6.8D-01, -6.0D-01, r^2= 6.4D+00
   Bfn.  Coefficient  Atom+Function         Bfn.  Coefficient  Atom+Function  
  ----- ------------  ---------------      ----- ------------  ---------------
    36      2.399592   2 C  s               151      2.088358   9 H  s         
   145     -1.588548   8 H  s                98     -1.328218   4 C  s         
   106      1.148246   4 C  py              105      1.125044   4 C  px        
   133      0.833661   6 H  s               127     -0.802324   5 H  s         
   107     -0.688498   4 C  pz               44     -0.672289   2 C  py        
 
 Vector   24  Occ=0.000000D+00  E= 1.026441D-01
              MO Center=  4.2D-01,  4.5D-01, -1.1D+00, r^2= 6.6D+00
   Bfn.  Coefficient  Atom+Function         Bfn.  Coefficient  Atom+Function  
  ----- ------------  ---------------      ----- ------------  ---------------
   157      2.033384  10 H  s               139     -1.618628   7 H  s         
    98     -1.515836   4 C  s               106     -1.470317   4 C  py        
   133      1.437328   6 H  s               151     -1.386807   9 H  s         
    36      1.169965   2 C  s                76     -1.142154   3 C  pz        
   105      0.987435   4 C  px               45     -0.570819   2 C  pz        
 
 Vector   25  Occ=0.000000D+00  E= 1.384916D-01
              MO Center=  7.8D-01,  2.1D-01, -4.4D-01, r^2= 7.9D+00
   Bfn.  Coefficient  Atom+Function         Bfn.  Coefficient  Atom+Function  
  ----- ------------  ---------------      ----- ------------  ---------------
    36      4.780942   2 C  s                98     -3.556904   4 C  s         
    45     -3.387568   2 C  pz               67     -3.007447   3 C  s         
   127      2.699273   5 H  s                76      2.129514   3 C  pz        
   105      2.091537   4 C  px              139      1.733952   7 H  s         
   133     -1.661654   6 H  s               107     -1.551486   4 C  pz        
 
 Vector   26  Occ=0.000000D+00  E= 1.704521D-01
              MO Center=  4.6D-01,  5.2D-01, -1.4D-01, r^2= 7.3D+00
   Bfn.  Coefficient  Atom+Function         Bfn.  Coefficient  Atom+Function  
  ----- ------------  ---------------      ----- ------------  ---------------
    75      2.307622   3 C  py              107      1.633986   4 C  pz        
    36      1.449592   2 C  s                67     -1.415826   3 C  s         
   139     -1.342743   7 H  s               157      1.069277  10 H  s         
    74     -0.972212   3 C  px               44      0.709787   2 C  py        
   106     -0.592387   4 C  py               43     -0.578795   2 C  px        
 
 Vector   27  Occ=0.000000D+00  E= 1.972790D-01
              MO Center=  7.9D-01, -1.1D-01, -9.7D-01, r^2= 5.1D+00
   Bfn.  Coefficient  Atom+Function         Bfn.  Coefficient  Atom+Function  
  ----- ------------  ---------------      ----- ------------  ---------------
    67      3.115946   3 C  s                44     -2.611580   2 C  py        
    36     -1.931487   2 C  s               106      1.927664   4 C  py        
    43      1.009233   2 C  px              105      0.782391   4 C  px        
    74      0.763805   3 C  px               45     -0.733168   2 C  pz        
   157     -0.681970  10 H  s                75     -0.622582   3 C  py        
 
 Vector   28  Occ=0.000000D+00  E= 2.021601D-01
              MO Center=  9.9D-01, -4.3D-01, -7.0D-01, r^2= 6.7D+00
   Bfn.  Coefficient  Atom+Function         Bfn.  Coefficient  Atom+Function  
  ----- ------------  ---------------      ----- ------------  ---------------
    36      2.458942   2 C  s                75      1.660520   3 C  py        
   105     -1.403152   4 C  px              133     -1.103380   6 H  s         
   106      0.961334   4 C  py              107     -0.921929   4 C  pz        
   139     -0.876495   7 H  s                45      0.759773   2 C  pz        
   156     -0.718667  10 H  s                76      0.568031   3 C  pz        
 
 Vector   29  Occ=0.000000D+00  E= 2.365169D-01
              MO Center= -3.2D-01,  4.2D-01, -4.7D-02, r^2= 5.4D+00
   Bfn.  Coefficient  Atom+Function         Bfn.  Coefficient  Atom+Function  
  ----- ------------  ---------------      ----- ------------  ---------------
    67      4.721696   3 C  s                36     -3.176992   2 C  s         
   139     -1.642872   7 H  s                66     -1.446156   3 C  s         
    98      1.289416   4 C  s               133     -1.179137   6 H  s         
   107      0.945714   4 C  pz               74     -0.792692   3 C  px        
   106      0.768358   4 C  py                5     -0.758470   1 O  s         
 
 Vector   30  Occ=0.000000D+00  E= 2.476454D-01
              MO Center=  5.6D-01,  6.0D-03, -1.2D-01, r^2= 5.8D+00
   Bfn.  Coefficient  Atom+Function         Bfn.  Coefficient  Atom+Function  
  ----- ------------  ---------------      ----- ------------  ---------------
    67      5.795907   3 C  s                43      4.171853   2 C  px        
    75     -3.013090   3 C  py               44     -2.609496   2 C  py        
    36     -2.111660   2 C  s               107     -2.077847   4 C  pz        
   157     -1.868505  10 H  s                45     -1.505408   2 C  pz        
    98     -1.349435   4 C  s               105     -1.225924   4 C  px        
 
 Vector   31  Occ=0.000000D+00  E= 2.684210D-01
              MO Center=  2.8D-01, -1.4D-01,  2.5D-01, r^2= 5.6D+00
   Bfn.  Coefficient  Atom+Function         Bfn.  Coefficient  Atom+Function  
  ----- ------------  ---------------      ----- ------------  ---------------
    36      4.307727   2 C  s                 5     -2.226154   1 O  s         
    67      2.202815   3 C  s                43     -1.513032   2 C  px        
   105      1.501438   4 C  px               66     -1.171004   3 C  s         
    98     -1.147571   4 C  s               139     -0.988094   7 H  s         
   127     -0.858426   5 H  s               106     -0.821045   4 C  py        
 
 Vector   32  Occ=0.000000D+00  E= 2.776960D-01
              MO Center=  4.1D-01,  3.2D-01,  3.0D-01, r^2= 4.2D+00
   Bfn.  Coefficient  Atom+Function         Bfn.  Coefficient  Atom+Function  
  ----- ------------  ---------------      ----- ------------  ---------------
    36      2.508967   2 C  s                 5     -1.734949   1 O  s         
    67     -1.594318   3 C  s                43     -1.285671   2 C  px        
    74     -0.730671   3 C  px               98     -0.683973   4 C  s         
    45     -0.657824   2 C  pz              145      0.566060   8 H  s         
     4      0.495552   1 O  s                66      0.390977   3 C  s         
 
 Vector   33  Occ=0.000000D+00  E= 3.005919D-01
              MO Center=  4.4D-01,  3.8D-01, -3.5D-01, r^2= 5.1D+00
   Bfn.  Coefficient  Atom+Function         Bfn.  Coefficient  Atom+Function  
  ----- ------------  ---------------      ----- ------------  ---------------
    43      1.880434   2 C  px               98     -1.778489   4 C  s         
   106      1.752446   4 C  py              151      1.697622   9 H  s         
    76      1.404219   3 C  pz               44     -1.224993   2 C  py        
   139      1.135332   7 H  s                36     -1.120691   2 C  s         
    66      1.060321   3 C  s               107     -1.028389   4 C  pz        
 
 Vector   34  Occ=0.000000D+00  E= 3.371345D-01
              MO Center=  1.1D-01,  4.1D-01, -3.9D-01, r^2= 5.8D+00
   Bfn.  Coefficient  Atom+Function         Bfn.  Coefficient  Atom+Function  
  ----- ------------  ---------------      ----- ------------  ---------------
    67      4.551993   3 C  s                76     -3.962777   3 C  pz        
   139     -3.214993   7 H  s                36     -2.251433   2 C  s         
   133      1.988853   6 H  s               107     -1.780979   4 C  pz        
   157     -1.764783  10 H  s                98      1.476473   4 C  s         
    43      1.376005   2 C  px               44     -1.086074   2 C  py        
 
 Vector   35  Occ=0.000000D+00  E= 3.623952D-01
              MO Center=  8.0D-01, -2.2D-02, -3.5D-01, r^2= 6.9D+00
   Bfn.  Coefficient  Atom+Function         Bfn.  Coefficient  Atom+Function  
  ----- ------------  ---------------      ----- ------------  ---------------
    98      7.864119   4 C  s               145     -3.302910   8 H  s         
    76      3.245803   3 C  pz               97     -3.171754   4 C  s         
   133     -2.297054   6 H  s               151     -1.935016   9 H  s         
   139      1.604993   7 H  s                44      1.448128   2 C  py        
    45     -1.415181   2 C  pz               36      1.383258   2 C  s         
 
 Vector   36  Occ=0.000000D+00  E= 3.732408D-01
              MO Center=  6.1D-01,  1.4D-01,  2.7D-02, r^2= 6.4D+00
   Bfn.  Coefficient  Atom+Function         Bfn.  Coefficient  Atom+Function  
  ----- ------------  ---------------      ----- ------------  ---------------
    36     13.127107   2 C  s                98     -8.687604   4 C  s         
    67     -8.167834   3 C  s               127     -3.457590   5 H  s         
    97      2.385795   4 C  s               157      2.387209  10 H  s         
    35     -2.044126   2 C  s                44      1.814998   2 C  py        
    75      1.652914   3 C  py               74     -1.618462   3 C  px        
 
 Vector   37  Occ=0.000000D+00  E= 3.857263D-01
              MO Center=  8.7D-01, -3.4D-01, -1.8D-01, r^2= 6.0D+00
   Bfn.  Coefficient  Atom+Function         Bfn.  Coefficient  Atom+Function  
  ----- ------------  ---------------      ----- ------------  ---------------
    36      5.075924   2 C  s                98      4.191903   4 C  s         
   127     -3.789923   5 H  s                45      2.624704   2 C  pz        
   151     -2.335460   9 H  s                35     -2.035665   2 C  s         
    76     -1.979660   3 C  pz              145     -1.976968   8 H  s         
    43      1.713145   2 C  px               67     -1.700549   3 C  s         
 
 Vector   38  Occ=0.000000D+00  E= 3.932169D-01
              MO Center=  2.9D-01,  3.8D-01,  1.3D-01, r^2= 6.6D+00
   Bfn.  Coefficient  Atom+Function         Bfn.  Coefficient  Atom+Function  
  ----- ------------  ---------------      ----- ------------  ---------------
    98     10.808683   4 C  s                67     -7.957052   3 C  s         
    45      4.238951   2 C  pz              133      2.998826   6 H  s         
    44      2.889998   2 C  py               76     -2.744189   3 C  pz        
   157     -2.254272  10 H  s                43     -2.236950   2 C  px        
    75      1.877624   3 C  py               97     -1.826657   4 C  s         
 
 Vector   39  Occ=0.000000D+00  E= 4.006237D-01
              MO Center= -3.8D-01,  1.6D-01,  6.9D-02, r^2= 6.3D+00
   Bfn.  Coefficient  Atom+Function         Bfn.  Coefficient  Atom+Function  
  ----- ------------  ---------------      ----- ------------  ---------------
    36     12.173970   2 C  s                67    -10.968097   3 C  s         
    98     -7.740874   4 C  s                45     -6.221752   2 C  pz        
    44      3.374630   2 C  py              127      2.945758   5 H  s         
   139      2.766820   7 H  s               105      2.642799   4 C  px        
    66      2.451326   3 C  s                76      2.287752   3 C  pz        
 
 Vector   40  Occ=0.000000D+00  E= 4.141581D-01
              MO Center=  6.5D-01, -2.5D-01, -7.3D-01, r^2= 6.1D+00
   Bfn.  Coefficient  Atom+Function         Bfn.  Coefficient  Atom+Function  
  ----- ------------  ---------------      ----- ------------  ---------------
    98      6.632665   4 C  s                45      2.566671   2 C  pz        
    67     -2.536730   3 C  s               151     -2.186061   9 H  s         
   105     -2.170486   4 C  px              157     -2.123178  10 H  s         
   145      1.457095   8 H  s                44      1.410828   2 C  py        
    97     -1.276948   4 C  s                75      1.000070   3 C  py        
 
 Vector   41  Occ=0.000000D+00  E= 4.246454D-01
              MO Center=  6.4D-01,  2.0D-02, -1.7D-01, r^2= 6.9D+00
   Bfn.  Coefficient  Atom+Function         Bfn.  Coefficient  Atom+Function  
  ----- ------------  ---------------      ----- ------------  ---------------
    36     10.117754   2 C  s                67     -5.436987   3 C  s         
    98     -4.610581   4 C  s                44      2.768172   2 C  py        
    75      2.559295   3 C  py              151      2.469239   9 H  s         
    45     -2.049683   2 C  pz               43     -1.922457   2 C  px        
   105      1.736460   4 C  px               74     -1.513564   3 C  px        
 
 Vector   42  Occ=0.000000D+00  E= 4.462326D-01
              MO Center=  1.4D-01, -2.0D-01, -1.8D-01, r^2= 6.0D+00
   Bfn.  Coefficient  Atom+Function         Bfn.  Coefficient  Atom+Function  
  ----- ------------  ---------------      ----- ------------  ---------------
    36      8.921746   2 C  s                98     -8.591537   4 C  s         
    45     -5.482914   2 C  pz              127      2.906037   5 H  s         
    67     -2.814931   3 C  s                76      2.609717   3 C  pz        
   157      2.122481  10 H  s               106     -2.079765   4 C  py        
    44      2.035717   2 C  py              133     -1.898878   6 H  s         
 
 Vector   43  Occ=0.000000D+00  E= 4.649177D-01
              MO Center=  2.2D-01,  5.9D-01, -7.4D-01, r^2= 5.4D+00
   Bfn.  Coefficient  Atom+Function         Bfn.  Coefficient  Atom+Function  
  ----- ------------  ---------------      ----- ------------  ---------------
   139      3.374087   7 H  s               107     -2.583601   4 C  pz        
   157     -2.592188  10 H  s                75     -2.389082   3 C  py        
    98     -2.254915   4 C  s                45     -2.164038   2 C  pz        
    43      1.868379   2 C  px               44     -1.770345   2 C  py        
   138     -1.314371   7 H  s                36      1.237746   2 C  s         
 
 Vector   44  Occ=0.000000D+00  E= 4.677012D-01
              MO Center=  2.8D-01,  4.7D-01, -1.8D-02, r^2= 5.3D+00
   Bfn.  Coefficient  Atom+Function         Bfn.  Coefficient  Atom+Function  
  ----- ------------  ---------------      ----- ------------  ---------------
    36      5.536774   2 C  s                98     -5.260843   4 C  s         
    45     -1.930593   2 C  pz              145      1.567427   8 H  s         
    67     -1.404208   3 C  s                35     -1.326751   2 C  s         
   138      1.231545   7 H  s               126      1.070255   5 H  s         
   139     -1.062861   7 H  s               133      1.021406   6 H  s         
 
 Vector   45  Occ=0.000000D+00  E= 5.080185D-01
              MO Center=  8.9D-01, -3.8D-01, -9.3D-01, r^2= 4.8D+00
   Bfn.  Coefficient  Atom+Function         Bfn.  Coefficient  Atom+Function  
  ----- ------------  ---------------      ----- ------------  ---------------
    98     11.421977   4 C  s                36     -7.496355   2 C  s         
    45      4.605330   2 C  pz              107      3.068118   4 C  pz        
   106      1.334586   4 C  py              144     -1.336784   8 H  s         
   156     -1.225783  10 H  s               127     -1.170125   5 H  s         
    14     -1.069678   1 O  pz              150     -1.068486   9 H  s         
 
 Vector   46  Occ=0.000000D+00  E= 5.368077D-01
              MO Center=  1.1D-01, -4.1D-01, -5.0D-01, r^2= 4.4D+00
   Bfn.  Coefficient  Atom+Function         Bfn.  Coefficient  Atom+Function  
  ----- ------------  ---------------      ----- ------------  ---------------
    98     -7.278258   4 C  s                36      6.853920   2 C  s         
    45     -3.658259   2 C  pz               76      3.198906   3 C  pz        
   133     -1.664617   6 H  s               105      1.506792   4 C  px        
   139      1.511684   7 H  s               107     -1.482980   4 C  pz        
     5     -1.146445   1 O  s                14     -1.145292   1 O  pz        
 
 Vector   47  Occ=0.000000D+00  E= 6.577718D-01
              MO Center= -3.8D-01,  3.6D-02, -2.0D-02, r^2= 4.3D+00
   Bfn.  Coefficient  Atom+Function         Bfn.  Coefficient  Atom+Function  
  ----- ------------  ---------------      ----- ------------  ---------------
    36     11.630148   2 C  s                67     -9.057923   3 C  s         
    98     -4.119962   4 C  s                43     -2.594679   2 C  px        
    75      2.416261   3 C  py               13      2.225012   1 O  py        
    76      2.055924   3 C  pz              105      1.594705   4 C  px        
   139      1.581597   7 H  s                44      1.472989   2 C  py        
 
 Vector   48  Occ=0.000000D+00  E= 6.740198D-01
              MO Center= -2.8D-01,  3.5D-01,  1.2D-01, r^2= 3.9D+00
   Bfn.  Coefficient  Atom+Function         Bfn.  Coefficient  Atom+Function  
  ----- ------------  ---------------      ----- ------------  ---------------
    36      8.054806   2 C  s                67     -7.785264   3 C  s         
     5      2.983564   1 O  s                75      2.537416   3 C  py        
    98     -2.200197   4 C  s                13      2.093699   1 O  py        
    45     -1.255596   2 C  pz               43     -1.208057   2 C  px        
     4     -1.104459   1 O  s                44      0.923896   2 C  py        
 
 Vector   49  Occ=0.000000D+00  E= 7.073575D-01
              MO Center=  1.6D-01, -3.1D-01, -2.6D-01, r^2= 4.5D+00
   Bfn.  Coefficient  Atom+Function         Bfn.  Coefficient  Atom+Function  
  ----- ------------  ---------------      ----- ------------  ---------------
    67      9.487742   3 C  s                36     -7.419043   2 C  s         
    43      3.659856   2 C  px               44     -3.485659   2 C  py        
    75     -2.786119   3 C  py               98     -2.469216   4 C  s         
     5      2.217803   1 O  s                12      1.683601   1 O  px        
   106      1.657286   4 C  py               13     -1.333420   1 O  py        
 
 Vector   50  Occ=0.000000D+00  E= 7.609667D-01
              MO Center=  6.3D-01, -2.1D-02, -3.4D-01, r^2= 4.1D+00
   Bfn.  Coefficient  Atom+Function         Bfn.  Coefficient  Atom+Function  
  ----- ------------  ---------------      ----- ------------  ---------------
    45      2.418851   2 C  pz              127     -1.684368   5 H  s         
   105     -1.640809   4 C  px                5     -1.488024   1 O  s         
    36      1.441086   2 C  s                43      1.437478   2 C  px        
   126     -1.335354   5 H  s               144      1.268033   8 H  s         
    66      1.009473   3 C  s                76     -0.986285   3 C  pz        
 
 Vector   51  Occ=0.000000D+00  E= 7.943035D-01
              MO Center=  2.6D-01,  6.2D-02, -1.7D-01, r^2= 4.4D+00
   Bfn.  Coefficient  Atom+Function         Bfn.  Coefficient  Atom+Function  
  ----- ------------  ---------------      ----- ------------  ---------------
     5      4.205871   1 O  s                36     -2.926631   2 C  s         
    76     -2.536755   3 C  pz               45      1.649734   2 C  pz        
     4     -1.626119   1 O  s                12      1.370274   1 O  px        
    43      1.304814   2 C  px              133      1.272140   6 H  s         
    35     -1.010999   2 C  s                66     -0.963163   3 C  s         
 
 Vector   52  Occ=0.000000D+00  E= 8.317152D-01
              MO Center=  3.2D-01,  1.7D-01, -1.2D-02, r^2= 4.5D+00
   Bfn.  Coefficient  Atom+Function         Bfn.  Coefficient  Atom+Function  
  ----- ------------  ---------------      ----- ------------  ---------------
    36      6.689669   2 C  s                98     -4.169518   4 C  s         
     5     -3.893063   1 O  s                43     -2.575953   2 C  px        
   105      1.966044   4 C  px               35     -1.876312   2 C  s         
    45     -1.837131   2 C  pz               44      1.520075   2 C  py        
    66     -1.220529   3 C  s                97      1.065456   4 C  s         
 
 Vector   53  Occ=0.000000D+00  E= 8.538535D-01
              MO Center=  6.2D-01,  1.2D-01, -4.0D-01, r^2= 4.2D+00
   Bfn.  Coefficient  Atom+Function         Bfn.  Coefficient  Atom+Function  
  ----- ------------  ---------------      ----- ------------  ---------------
    98     -4.609942   4 C  s                45     -4.500304   2 C  pz        
    36      4.462225   2 C  s                76      2.043275   3 C  pz        
   127      1.774839   5 H  s               106     -1.559585   4 C  py        
    44      1.485454   2 C  py              105      1.310127   4 C  px        
   150     -1.242280   9 H  s               139      1.137791   7 H  s         
 
 Vector   54  Occ=0.000000D+00  E= 8.720151D-01
              MO Center=  1.7D-01, -3.6D-02, -1.3D-01, r^2= 4.3D+00
   Bfn.  Coefficient  Atom+Function         Bfn.  Coefficient  Atom+Function  
  ----- ------------  ---------------      ----- ------------  ---------------
     5      4.636646   1 O  s                36     -1.813760   2 C  s         
     4     -1.567321   1 O  s               138      1.527501   7 H  s         
    67     -1.292258   3 C  s                76      1.296552   3 C  pz        
    12      1.183543   1 O  px               66     -1.180149   3 C  s         
    98     -0.886120   4 C  s                43      0.881527   2 C  px        
 
 Vector   55  Occ=0.000000D+00  E= 9.205826D-01
              MO Center=  5.1D-01,  3.0D-01, -4.8D-01, r^2= 4.5D+00
   Bfn.  Coefficient  Atom+Function         Bfn.  Coefficient  Atom+Function  
  ----- ------------  ---------------      ----- ------------  ---------------
    35      4.950226   2 C  s                36     -1.745842   2 C  s         
    67      1.502809   3 C  s                66     -1.303073   3 C  s         
    72      1.243917   3 C  py              132     -1.241403   6 H  s         
   156     -1.171611  10 H  s                84      1.143943   3 C  d  0      
    41      1.132099   2 C  py              116     -1.089059   4 C  d  1      
 
 Vector   56  Occ=0.000000D+00  E= 9.615681D-01
              MO Center=  4.4D-01,  3.1D-01, -5.2D-01, r^2= 4.7D+00
   Bfn.  Coefficient  Atom+Function         Bfn.  Coefficient  Atom+Function  
  ----- ------------  ---------------      ----- ------------  ---------------
    35      4.198500   2 C  s                67      2.552704   3 C  s         
   138     -2.514451   7 H  s                76     -1.792242   3 C  pz        
    42     -1.734179   2 C  pz               83     -1.678021   3 C  d -1      
   115     -1.452247   4 C  d  0             98     -1.423682   4 C  s         
    36     -1.366592   2 C  s               107     -1.290338   4 C  pz        
 
 Vector   57  Occ=0.000000D+00  E= 9.917036D-01
              MO Center=  3.5D-01,  4.7D-01, -1.4D-01, r^2= 4.1D+00
   Bfn.  Coefficient  Atom+Function         Bfn.  Coefficient  Atom+Function  
  ----- ------------  ---------------      ----- ------------  ---------------
    36      7.476631   2 C  s                98     -4.814793   4 C  s         
    67     -3.996061   3 C  s                45     -3.735797   2 C  pz        
    43     -2.340840   2 C  px               44      2.161209   2 C  py        
    66     -1.581052   3 C  s               127      1.563800   5 H  s         
    75      1.458288   3 C  py              126      1.331284   5 H  s         
 
 Vector   58  Occ=0.000000D+00  E= 1.012149D+00
              MO Center=  3.8D-01,  5.4D-01, -5.9D-02, r^2= 4.3D+00
   Bfn.  Coefficient  Atom+Function         Bfn.  Coefficient  Atom+Function  
  ----- ------------  ---------------      ----- ------------  ---------------
    36      5.535552   2 C  s                67     -4.580727   3 C  s         
    45     -2.168783   2 C  pz               44      1.873121   2 C  py        
    98     -1.720264   4 C  s               156     -1.488409  10 H  s         
    82      1.350953   3 C  d -2            144      1.357654   8 H  s         
    43     -1.343746   2 C  px               74     -1.334769   3 C  px        
 
 Vector   59  Occ=0.000000D+00  E= 1.041863D+00
              MO Center=  7.0D-01, -1.7D-01, -4.6D-01, r^2= 4.2D+00
   Bfn.  Coefficient  Atom+Function         Bfn.  Coefficient  Atom+Function  
  ----- ------------  ---------------      ----- ------------  ---------------
    35      2.687876   2 C  s                36      2.688923   2 C  s         
    66     -2.318776   3 C  s               150      1.961495   9 H  s         
   144     -1.907851   8 H  s                 5     -1.886240   1 O  s         
   117      1.723380   4 C  d  2             41      1.505155   2 C  py        
    44      1.363962   2 C  py               67     -1.358990   3 C  s         
 
 Vector   60  Occ=0.000000D+00  E= 1.078836D+00
              MO Center=  6.7D-01,  1.6D-02, -6.6D-02, r^2= 4.1D+00
   Bfn.  Coefficient  Atom+Function         Bfn.  Coefficient  Atom+Function  
  ----- ------------  ---------------      ----- ------------  ---------------
    98      4.111135   4 C  s                66     -4.008628   3 C  s         
    45      3.769984   2 C  pz               97      3.707298   4 C  s         
    36     -3.304873   2 C  s                41      2.549909   2 C  py        
   104      2.523070   4 C  pz               42      2.363140   2 C  pz        
    72      2.320247   3 C  py               53     -2.213558   2 C  d  0      
 
 Vector   61  Occ=0.000000D+00  E= 1.105043D+00
              MO Center=  3.6D-01,  6.7D-02,  6.5D-02, r^2= 3.8D+00
   Bfn.  Coefficient  Atom+Function         Bfn.  Coefficient  Atom+Function  
  ----- ------------  ---------------      ----- ------------  ---------------
    36      7.664095   2 C  s                67     -5.347193   3 C  s         
    98     -3.052369   4 C  s                66      2.264680   3 C  s         
    45     -2.014891   2 C  pz              126     -1.996486   5 H  s         
    72     -1.620393   3 C  py              132      1.586663   6 H  s         
    41     -1.510748   2 C  py               53      1.474341   2 C  d  0      
 
 Vector   62  Occ=0.000000D+00  E= 1.147268D+00
              MO Center=  6.3D-01,  2.0D-03, -3.6D-02, r^2= 3.5D+00
   Bfn.  Coefficient  Atom+Function         Bfn.  Coefficient  Atom+Function  
  ----- ------------  ---------------      ----- ------------  ---------------
    67      5.060689   3 C  s                36     -3.881214   2 C  s         
    44     -2.363630   2 C  py              126      1.803613   5 H  s         
    97     -1.766172   4 C  s                54      1.572614   2 C  d  1      
    43      1.529640   2 C  px               55      1.488349   2 C  d  2      
    75     -1.426115   3 C  py               42     -1.411223   2 C  pz        
 
 Vector   63  Occ=0.000000D+00  E= 1.215349D+00
              MO Center=  5.5D-01,  2.1D-01, -1.4D-01, r^2= 3.8D+00
   Bfn.  Coefficient  Atom+Function         Bfn.  Coefficient  Atom+Function  
  ----- ------------  ---------------      ----- ------------  ---------------
    36      6.781979   2 C  s                66     -5.155344   3 C  s         
    97     -3.389878   4 C  s                67     -3.288552   3 C  s         
    35      3.180924   2 C  s                72      1.872767   3 C  py        
   138      1.805387   7 H  s                51     -1.768271   2 C  d -2      
    52      1.679828   2 C  d -1             41      1.506151   2 C  py        
 
 Vector   64  Occ=0.000000D+00  E= 1.349442D+00
              MO Center=  3.4D-01,  5.5D-01,  1.8D-01, r^2= 3.6D+00
   Bfn.  Coefficient  Atom+Function         Bfn.  Coefficient  Atom+Function  
  ----- ------------  ---------------      ----- ------------  ---------------
    66      4.665148   3 C  s                35      3.854669   2 C  s         
    67     -3.207626   3 C  s                36     -2.506460   2 C  s         
    65     -2.433880   3 C  s               132     -1.803150   6 H  s         
    34     -1.409980   2 C  s                72      1.404084   3 C  py        
   139      1.283987   7 H  s               133      1.261907   6 H  s         
 
 Vector   65  Occ=0.000000D+00  E= 1.412232D+00
              MO Center=  1.5D-01,  5.2D-01, -3.3D-02, r^2= 3.4D+00
   Bfn.  Coefficient  Atom+Function         Bfn.  Coefficient  Atom+Function  
  ----- ------------  ---------------      ----- ------------  ---------------
    36      4.375521   2 C  s                35     -3.910369   2 C  s         
    67     -3.866410   3 C  s                66      3.816355   3 C  s         
   138     -2.407811   7 H  s                73     -2.392016   3 C  pz        
   139      2.268040   7 H  s               126      1.735718   5 H  s         
    76      1.699740   3 C  pz               34      1.611700   2 C  s         
 
 Vector   66  Occ=0.000000D+00  E= 1.432853D+00
              MO Center=  1.1D+00, -4.6D-01, -1.1D+00, r^2= 3.6D+00
   Bfn.  Coefficient  Atom+Function         Bfn.  Coefficient  Atom+Function  
  ----- ------------  ---------------      ----- ------------  ---------------
    98     10.082229   4 C  s                97     -7.547717   4 C  s         
    96      3.048100   4 C  s                36     -2.638030   2 C  s         
   145     -2.383298   8 H  s               151     -2.290733   9 H  s         
   157     -2.104928  10 H  s               144      1.701570   8 H  s         
   150      1.640507   9 H  s               104      1.474608   4 C  pz        
 
 Vector   67  Occ=0.000000D+00  E= 1.445167D+00
              MO Center=  4.5D-01,  2.9D-02, -4.1D-01, r^2= 4.0D+00
   Bfn.  Coefficient  Atom+Function         Bfn.  Coefficient  Atom+Function  
  ----- ------------  ---------------      ----- ------------  ---------------
    66      3.991568   3 C  s                67     -2.824885   3 C  s         
    36      2.642424   2 C  s                35     -2.162478   2 C  s         
   133      1.477729   6 H  s                 5     -1.438136   1 O  s         
    65     -1.429986   3 C  s                76     -1.265509   3 C  pz        
   103      1.115427   4 C  py              132     -1.110758   6 H  s         
 
 Vector   68  Occ=0.000000D+00  E= 1.446942D+00
              MO Center=  2.6D-01, -6.5D-02,  1.0D-01, r^2= 3.1D+00
   Bfn.  Coefficient  Atom+Function         Bfn.  Coefficient  Atom+Function  
  ----- ------------  ---------------      ----- ------------  ---------------
    98      5.925839   4 C  s                97     -3.183898   4 C  s         
    45      2.610089   2 C  pz               35     -2.511706   2 C  s         
   127     -1.821843   5 H  s                36     -1.765681   2 C  s         
     5      1.620426   1 O  s                76     -1.480461   3 C  pz        
    66      1.401363   3 C  s                96      1.344497   4 C  s         
 
 Vector   69  Occ=0.000000D+00  E= 1.474434D+00
              MO Center=  9.6D-01, -2.7D-01, -9.6D-01, r^2= 3.5D+00
   Bfn.  Coefficient  Atom+Function         Bfn.  Coefficient  Atom+Function  
  ----- ------------  ---------------      ----- ------------  ---------------
    66      2.132108   3 C  s                36      1.555705   2 C  s         
    67     -1.376361   3 C  s               103      1.208261   4 C  py        
     5     -1.172207   1 O  s               150      0.937756   9 H  s         
    65     -0.913562   3 C  s               133      0.885897   6 H  s         
    71     -0.866915   3 C  px               97      0.809716   4 C  s         
 
 Vector   70  Occ=0.000000D+00  E= 1.477492D+00
              MO Center=  9.5D-01, -3.6D-01, -9.8D-01, r^2= 3.5D+00
   Bfn.  Coefficient  Atom+Function         Bfn.  Coefficient  Atom+Function  
  ----- ------------  ---------------      ----- ------------  ---------------
    36      2.662215   2 C  s               156     -2.672251  10 H  s         
   102     -2.135604   4 C  px              157      2.047996  10 H  s         
    66     -1.920749   3 C  s               104     -1.756119   4 C  pz        
   126      1.649295   5 H  s               103      1.553715   4 C  py        
   144      1.373994   8 H  s                35     -1.359338   2 C  s         
 
 Vector   71  Occ=0.000000D+00  E= 1.511732D+00
              MO Center=  3.0D-01,  1.6D-01, -2.9D-01, r^2= 4.0D+00
   Bfn.  Coefficient  Atom+Function         Bfn.  Coefficient  Atom+Function  
  ----- ------------  ---------------      ----- ------------  ---------------
    98      2.750876   4 C  s               144      1.779089   8 H  s         
   102     -1.441763   4 C  px              103     -1.372478   4 C  py        
   145     -1.347014   8 H  s                97     -1.335653   4 C  s         
    45      1.314256   2 C  pz               36     -1.092493   2 C  s         
   150     -0.939741   9 H  s                66      0.906238   3 C  s         
 
 Vector   72  Occ=0.000000D+00  E= 1.542001D+00
              MO Center=  3.7D-01,  4.5D-01, -2.1D-01, r^2= 4.6D+00
   Bfn.  Coefficient  Atom+Function         Bfn.  Coefficient  Atom+Function  
  ----- ------------  ---------------      ----- ------------  ---------------
    36      4.552374   2 C  s                35     -3.899486   2 C  s         
    98     -3.495927   4 C  s                97      3.023072   4 C  s         
    67     -2.678389   3 C  s                73      2.103075   3 C  pz        
   132     -1.614093   6 H  s                66      1.524537   3 C  s         
   138      1.477256   7 H  s               133      1.412347   6 H  s         
 
 Vector   73  Occ=0.000000D+00  E= 1.578232D+00
              MO Center=  4.8D-01, -2.1D-02, -5.2D-02, r^2= 3.2D+00
   Bfn.  Coefficient  Atom+Function         Bfn.  Coefficient  Atom+Function  
  ----- ------------  ---------------      ----- ------------  ---------------
    35      3.488950   2 C  s                36     -2.735287   2 C  s         
    40     -2.080762   2 C  px               97     -1.890023   4 C  s         
    67      1.826329   3 C  s               126      1.802304   5 H  s         
    72      1.559272   3 C  py               34     -1.445442   2 C  s         
    42     -1.426485   2 C  pz               45      1.285869   2 C  pz        
 
 Vector   74  Occ=0.000000D+00  E= 1.598940D+00
              MO Center=  3.2D-01,  4.0D-01, -1.4D-01, r^2= 3.4D+00
   Bfn.  Coefficient  Atom+Function         Bfn.  Coefficient  Atom+Function  
  ----- ------------  ---------------      ----- ------------  ---------------
    36     -5.355737   2 C  s                66     -5.109922   3 C  s         
    35      4.959115   2 C  s                67      3.887539   3 C  s         
    41      3.737450   2 C  py               71     -2.580399   3 C  px        
    72      2.382820   3 C  py               40     -2.052174   2 C  px        
    98      1.937154   4 C  s                82      1.690683   3 C  d -2      
 
 Vector   75  Occ=0.000000D+00  E= 1.639553D+00
              MO Center=  4.9D-01,  1.7D-01, -4.4D-02, r^2= 3.7D+00
   Bfn.  Coefficient  Atom+Function         Bfn.  Coefficient  Atom+Function  
  ----- ------------  ---------------      ----- ------------  ---------------
    66      2.908378   3 C  s                35      2.048202   2 C  s         
    98      2.004991   4 C  s                 5     -1.791220   1 O  s         
    97     -1.712811   4 C  s                67     -1.543267   3 C  s         
   104     -1.191036   4 C  pz              144      1.122638   8 H  s         
   150     -1.101644   9 H  s                41     -1.091213   2 C  py        
 
 Vector   76  Occ=0.000000D+00  E= 1.695034D+00
              MO Center=  5.3D-01,  1.9D-01, -4.0D-01, r^2= 3.8D+00
   Bfn.  Coefficient  Atom+Function         Bfn.  Coefficient  Atom+Function  
  ----- ------------  ---------------      ----- ------------  ---------------
    97     -5.711211   4 C  s                35      5.326014   2 C  s         
    42     -2.953649   2 C  pz              104     -2.965656   4 C  pz        
   102      1.838788   4 C  px               40      1.600468   2 C  px        
    34     -1.590104   2 C  s                96      1.540756   4 C  s         
    72     -1.512284   3 C  py               66     -1.388687   3 C  s         
 
 Vector   77  Occ=0.000000D+00  E= 1.700160D+00
              MO Center= -7.9D-03,  2.1D-01, -7.6D-02, r^2= 3.6D+00
   Bfn.  Coefficient  Atom+Function         Bfn.  Coefficient  Atom+Function  
  ----- ------------  ---------------      ----- ------------  ---------------
     5      3.808818   1 O  s                72      3.168229   3 C  py        
    36     -2.339385   2 C  s                66     -2.019168   3 C  s         
   138     -1.896285   7 H  s                12      1.474093   1 O  px        
    41      1.374883   2 C  py               97      1.311483   4 C  s         
    42      1.232599   2 C  pz               43      1.208899   2 C  px        
 
 Vector   78  Occ=0.000000D+00  E= 1.791861D+00
              MO Center=  4.2D-01,  2.1D-01,  4.0D-02, r^2= 3.5D+00
   Bfn.  Coefficient  Atom+Function         Bfn.  Coefficient  Atom+Function  
  ----- ------------  ---------------      ----- ------------  ---------------
    35      2.843383   2 C  s                97     -2.662034   4 C  s         
    36      1.591725   2 C  s                45     -1.226549   2 C  pz        
   104     -1.128192   4 C  pz               42     -1.025536   2 C  pz        
    67     -1.015181   3 C  s               102      0.894913   4 C  px        
    96      0.854790   4 C  s               103     -0.835900   4 C  py        
 
 Vector   79  Occ=0.000000D+00  E= 1.814991D+00
              MO Center= -6.3D-01,  1.8D-01,  1.9D-01, r^2= 2.6D+00
   Bfn.  Coefficient  Atom+Function         Bfn.  Coefficient  Atom+Function  
  ----- ------------  ---------------      ----- ------------  ---------------
    35      4.205977   2 C  s                 5     -3.317018   1 O  s         
    40     -2.480410   2 C  px               41      2.140034   2 C  py        
    72      2.063471   3 C  py               66     -1.864005   3 C  s         
    71     -1.648199   3 C  px               12     -1.379658   1 O  px        
   138     -1.069969   7 H  s               132     -1.047589   6 H  s         
 
 Vector   80  Occ=0.000000D+00  E= 1.839940D+00
              MO Center=  1.6D-02,  3.4D-01, -4.9D-02, r^2= 3.6D+00
   Bfn.  Coefficient  Atom+Function         Bfn.  Coefficient  Atom+Function  
  ----- ------------  ---------------      ----- ------------  ---------------
    36      1.408920   2 C  s                35     -1.195523   2 C  s         
   156      0.960064  10 H  s                66     -0.866553   3 C  s         
    67     -0.854553   3 C  s                 5      0.697749   1 O  s         
    71      0.699398   3 C  px               41      0.683476   2 C  py        
   157     -0.647139  10 H  s               104      0.608658   4 C  pz        
 
 Vector   81  Occ=0.000000D+00  E= 1.865487D+00
              MO Center=  5.6D-01,  1.3D-01, -4.7D-01, r^2= 4.0D+00
   Bfn.  Coefficient  Atom+Function         Bfn.  Coefficient  Atom+Function  
  ----- ------------  ---------------      ----- ------------  ---------------
    35      6.667693   2 C  s                66     -4.276200   3 C  s         
    72      3.423171   3 C  py               97     -3.411215   4 C  s         
    36      2.102991   2 C  s               104     -1.964511   4 C  pz        
    34     -1.656805   2 C  s                67     -1.537018   3 C  s         
    41      1.401663   2 C  py               45     -1.380181   2 C  pz        
 
 Vector   82  Occ=0.000000D+00  E= 1.921145D+00
              MO Center=  3.2D-01, -1.5D-01, -3.2D-01, r^2= 3.2D+00
   Bfn.  Coefficient  Atom+Function         Bfn.  Coefficient  Atom+Function  
  ----- ------------  ---------------      ----- ------------  ---------------
    36      1.583386   2 C  s                98     -1.483654   4 C  s         
    45     -1.327852   2 C  pz               97     -1.278803   4 C  s         
    35      1.248138   2 C  s               103     -1.219257   4 C  py        
    66     -1.027621   3 C  s                41      0.846889   2 C  py        
    42     -0.812690   2 C  pz              150     -0.740597   9 H  s         
 
 Vector   83  Occ=0.000000D+00  E= 1.991534D+00
              MO Center=  7.8D-01, -1.9D-01, -2.8D-01, r^2= 3.4D+00
   Bfn.  Coefficient  Atom+Function         Bfn.  Coefficient  Atom+Function  
  ----- ------------  ---------------      ----- ------------  ---------------
    35      3.258996   2 C  s                98      3.187276   4 C  s         
    66     -2.626674   3 C  s                40     -2.301365   2 C  px        
    72      1.946339   3 C  py               41      1.719871   2 C  py        
    43     -1.550680   2 C  px               67     -1.466408   3 C  s         
    71     -1.405211   3 C  px              126      1.214701   5 H  s         
 
 Vector   84  Occ=0.000000D+00  E= 1.995281D+00
              MO Center=  6.7D-01, -1.3D-01, -8.1D-01, r^2= 3.5D+00
   Bfn.  Coefficient  Atom+Function         Bfn.  Coefficient  Atom+Function  
  ----- ------------  ---------------      ----- ------------  ---------------
    36      4.551889   2 C  s                98     -4.194312   4 C  s         
    35     -2.238928   2 C  s                45     -2.086217   2 C  pz        
    67     -1.558608   3 C  s               156      1.177449  10 H  s         
   107     -1.107352   4 C  pz              104      1.025748   4 C  pz        
    34      0.882960   2 C  s                66      0.849811   3 C  s         
 
 Vector   85  Occ=0.000000D+00  E= 2.087648D+00
              MO Center= -3.5D-02,  1.5D-01, -5.0D-02, r^2= 3.6D+00
   Bfn.  Coefficient  Atom+Function         Bfn.  Coefficient  Atom+Function  
  ----- ------------  ---------------      ----- ------------  ---------------
    67      1.853978   3 C  s                98     -1.648879   4 C  s         
    41      1.550345   2 C  py               66     -1.425756   3 C  s         
    71     -1.057629   3 C  px               35      0.931210   2 C  s         
   156      0.777074  10 H  s                14     -0.752240   1 O  pz        
   138     -0.612930   7 H  s                82      0.575816   3 C  d -2      
 
 Vector   86  Occ=0.000000D+00  E= 2.097280D+00
              MO Center= -3.7D-01,  6.9D-02,  1.2D-01, r^2= 2.9D+00
   Bfn.  Coefficient  Atom+Function         Bfn.  Coefficient  Atom+Function  
  ----- ------------  ---------------      ----- ------------  ---------------
    36      6.148900   2 C  s                67     -5.248609   3 C  s         
    35     -3.192358   2 C  s                66      2.991767   3 C  s         
    41     -2.642759   2 C  py               71      2.536664   3 C  px        
    13      1.819849   1 O  py               98     -1.639773   4 C  s         
    82     -1.353434   3 C  d -2             55      1.240994   2 C  d  2      
 
 Vector   87  Occ=0.000000D+00  E= 2.169251D+00
              MO Center=  5.1D-01, -4.9D-02, -4.8D-01, r^2= 3.2D+00
   Bfn.  Coefficient  Atom+Function         Bfn.  Coefficient  Atom+Function  
  ----- ------------  ---------------      ----- ------------  ---------------
    98     -2.176925   4 C  s                67      1.980999   3 C  s         
    35      1.517260   2 C  s                36     -1.018740   2 C  s         
    73     -0.999010   3 C  pz              156      0.897390  10 H  s         
    40     -0.888092   2 C  px               44     -0.872345   2 C  py        
    43      0.864633   2 C  px               42      0.806870   2 C  pz        
 
 Vector   88  Occ=0.000000D+00  E= 2.199265D+00
              MO Center=  4.2D-01,  1.9D-01, -2.8D-01, r^2= 3.7D+00
   Bfn.  Coefficient  Atom+Function         Bfn.  Coefficient  Atom+Function  
  ----- ------------  ---------------      ----- ------------  ---------------
    98      2.086761   4 C  s                36     -1.067999   2 C  s         
    45      1.008274   2 C  pz               76     -0.897755   3 C  pz        
   132      0.848559   6 H  s                42     -0.792887   2 C  pz        
    97     -0.705749   4 C  s               103     -0.705342   4 C  py        
   117     -0.678989   4 C  d  2             71      0.609539   3 C  px        
 
 Vector   89  Occ=0.000000D+00  E= 2.225609D+00
              MO Center=  5.5D-01,  1.1D-01,  2.9D-02, r^2= 3.5D+00
   Bfn.  Coefficient  Atom+Function         Bfn.  Coefficient  Atom+Function  
  ----- ------------  ---------------      ----- ------------  ---------------
    36      3.063218   2 C  s                67     -1.614313   3 C  s         
    98     -1.236038   4 C  s                 5     -1.170739   1 O  s         
    72     -1.099433   3 C  py               42     -1.075362   2 C  pz        
    35     -0.880899   2 C  s                66      0.824692   3 C  s         
   102      0.735201   4 C  px               45     -0.713711   2 C  pz        
 
 Vector   90  Occ=0.000000D+00  E= 2.242062D+00
              MO Center=  8.3D-01, -2.9D-01, -8.7D-01, r^2= 3.4D+00
   Bfn.  Coefficient  Atom+Function         Bfn.  Coefficient  Atom+Function  
  ----- ------------  ---------------      ----- ------------  ---------------
   150      1.360354   9 H  s                36      1.162737   2 C  s         
   144     -0.901190   8 H  s                98     -0.787440   4 C  s         
   117      0.788278   4 C  d  2             67     -0.740412   3 C  s         
    66     -0.735228   3 C  s                72      0.683329   3 C  py        
   149     -0.536157   9 H  s               147      0.515568   8 H  py        
 
 Vector   91  Occ=0.000000D+00  E= 2.266560D+00
              MO Center=  9.5D-01, -2.8D-01, -1.1D+00, r^2= 3.0D+00
   Bfn.  Coefficient  Atom+Function         Bfn.  Coefficient  Atom+Function  
  ----- ------------  ---------------      ----- ------------  ---------------
    66      2.253678   3 C  s                36      1.907426   2 C  s         
    41     -1.564035   2 C  py               67     -1.413832   3 C  s         
    35     -1.274445   2 C  s                72     -1.089374   3 C  py        
    98     -1.068468   4 C  s                71      0.944949   3 C  px        
   156      0.935918  10 H  s               126     -0.892763   5 H  s         
 
 Vector   92  Occ=0.000000D+00  E= 2.282247D+00
              MO Center=  5.1D-01,  9.2D-02, -2.3D-01, r^2= 3.6D+00
   Bfn.  Coefficient  Atom+Function         Bfn.  Coefficient  Atom+Function  
  ----- ------------  ---------------      ----- ------------  ---------------
    98      3.739786   4 C  s                36     -2.700757   2 C  s         
[...]
    21     -0.872596   1 O  d -1             42     -0.800115   2 C  pz        
    97     -0.709931   4 C  s                45     -0.700690   2 C  pz        
    98     -0.527161   4 C  s                 5     -0.519770   1 O  s         
    67     -0.511429   3 C  s                83     -0.493963   3 C  d -1      
 
 Vector  154  Occ=0.000000D+00  E= 6.676703D+00
              MO Center= -8.7D-01, -1.8D-01,  2.0D-01, r^2= 5.7D-01
   Bfn.  Coefficient  Atom+Function         Bfn.  Coefficient  Atom+Function  
  ----- ------------  ---------------      ----- ------------  ---------------
    18      1.062736   1 O  d  1             23     -1.037274   1 O  d  1      
    97     -0.869352   4 C  s                42     -0.787472   2 C  pz        
    35      0.757550   2 C  s               102      0.646053   4 C  px        
    54     -0.546612   2 C  d  1             14      0.406325   1 O  pz        
    16     -0.393439   1 O  d -1             11      0.389046   1 O  pz        
 
 Vector  155  Occ=0.000000D+00  E= 6.841974D+00
              MO Center= -8.8D-01, -1.9D-01,  2.0D-01, r^2= 5.9D-01
   Bfn.  Coefficient  Atom+Function         Bfn.  Coefficient  Atom+Function  
  ----- ------------  ---------------      ----- ------------  ---------------
     5      2.111771   1 O  s                40      1.768683   2 C  px        
     9      1.361345   1 O  px               97     -1.284502   4 C  s         
     4      1.204811   1 O  s                20      1.049182   1 O  d -2      
    42     -0.974912   2 C  pz               12      0.847040   1 O  px        
    35     -0.843820   2 C  s                15     -0.834108   1 O  d -2      
 
 Vector  156  Occ=0.000000D+00  E= 7.055415D+00
              MO Center= -8.9D-01, -1.9D-01,  2.0D-01, r^2= 6.4D-01
   Bfn.  Coefficient  Atom+Function         Bfn.  Coefficient  Atom+Function  
  ----- ------------  ---------------      ----- ------------  ---------------
    66     -3.179317   3 C  s                35      3.029301   2 C  s         
    40     -2.724520   2 C  px               72      2.694548   3 C  py        
    24     -1.579390   1 O  d  2             36      1.452160   2 C  s         
    67     -1.291838   3 C  s                10      1.283701   1 O  py        
    19      1.017244   1 O  d  2             13      0.866884   1 O  py        
 
 Vector  157  Occ=0.000000D+00  E= 2.194110D+01
              MO Center=  4.2D-02,  8.2D-01,  9.1D-02, r^2= 1.1D+00
   Bfn.  Coefficient  Atom+Function         Bfn.  Coefficient  Atom+Function  
  ----- ------------  ---------------      ----- ------------  ---------------
    64      1.606058   3 C  s                65     -1.376602   3 C  s         
    63     -1.265580   3 C  s                67     -1.249426   3 C  s         
    98      1.023174   4 C  s                95     -0.698840   4 C  s         
    96      0.568568   4 C  s                94      0.552948   4 C  s         
    35      0.494660   2 C  s                40     -0.468583   2 C  px        
 
 Vector  158  Occ=0.000000D+00  E= 2.198058D+01
              MO Center=  9.2D-01, -3.0D-01, -7.6D-01, r^2= 1.0D+00
   Bfn.  Coefficient  Atom+Function         Bfn.  Coefficient  Atom+Function  
  ----- ------------  ---------------      ----- ------------  ---------------
    95      1.451910   4 C  s                96     -1.336860   4 C  s         
    98     -1.170508   4 C  s                94     -1.142412   4 C  s         
    34     -0.956676   2 C  s                36     -0.931031   2 C  s         
    33      0.877726   2 C  s                32     -0.685974   2 C  s         
    67      0.634798   3 C  s                65     -0.581466   3 C  s         
 
 Vector  159  Occ=0.000000D+00  E= 2.209777D+01
              MO Center=  6.1D-01, -1.1D-01, -8.1D-02, r^2= 7.1D-01
   Bfn.  Coefficient  Atom+Function         Bfn.  Coefficient  Atom+Function  
  ----- ------------  ---------------      ----- ------------  ---------------
    36      2.184602   2 C  s                33     -1.533898   2 C  s         
    34      1.518808   2 C  s                35     -1.343656   2 C  s         
    98     -1.302004   4 C  s                32      1.201485   2 C  s         
    67     -1.157521   3 C  s                95      0.729245   4 C  s         
    97      0.695832   4 C  s                96     -0.657601   4 C  s         
 
 Vector  160  Occ=0.000000D+00  E= 4.341423D+01
              MO Center= -8.8D-01, -1.8D-01,  2.1D-01, r^2= 1.2D-01
   Bfn.  Coefficient  Atom+Function         Bfn.  Coefficient  Atom+Function  
  ----- ------------  ---------------      ----- ------------  ---------------
     4      2.506701   1 O  s                 3     -1.874434   1 O  s         
     2      1.731529   1 O  s                 1     -1.395841   1 O  s         
     5     -0.879051   1 O  s                36      0.833966   2 C  s         
     9      0.561589   1 O  px               66     -0.512942   3 C  s         
    40      0.465110   2 C  px               72      0.456459   3 C  py        
 

 center of mass
 --------------
 x =   0.30619349 y =   0.09486508 z =  -0.27792454

 moments of inertia (a.u.)
 ------------------
         200.059742701340          45.651611185994          83.800461840702
          45.651611185994         248.048658615192         -52.769723524222
          83.800461840702         -52.769723524222         238.888031714789
 
     Multipole analysis of the density
     ---------------------------------
 
     L   x y z        total         alpha         beta         nuclear
     -   - - -        -----         -----         ----         -------
     0   0 0 0     -0.000000    -16.000000    -16.000000     32.000000
 
     1   1 0 0      0.689308     -6.226684     -6.226684     13.142676
     1   0 1 0      0.326167     -1.616487     -1.616487      3.559140
     1   0 0 1     -0.068472      5.298708      5.298708    -10.665887
 
     2   2 0 0    -20.027240    -54.356342    -54.356342     88.685444
     2   1 1 0     -1.112429     13.892839     13.892839    -28.898106
     2   1 0 1      0.151293     26.499822     26.499822    -52.848351
     2   0 2 0    -17.832334    -40.454643    -40.454643     63.076952
     2   0 1 1      0.218464    -15.515298    -15.515298     31.249059
     2   0 0 2    -18.216347    -45.802867    -45.802867     73.389386
 
 *** CALLING NEW AORESP DRIVER FOR CLOSED AND OPEN SHELLS ***
 Entering AOResponse driver routine


--------------------------------------------------------------------------------

          ****************
          *** RESPONSE ***
          ****************

 Response module for NWChem and dynamic CPKS solver
 developed by J. Autschbach and coworkers, SUNY Buffalo
 The methodology used in this program is described in 
 ChemPhysChem 12 (2011), 3224-3235 (main reference)
 J. Chem. Phys. 123 (2005), 114103
 J. Chem. Phys. 122 (2005), 224115
 J. Chem. Phys. 122 (2005), 074105
 Comp. Lett. 3 (2007), 131-150 (contact JA for a copy)
 Please cite this work in publications based on results
 obtained with this code. Thank you!

 For extension of response module to open shell
 calculations please acknowledge:
 F. Aquino, Northwestern University, Schatz Rsrch Group
 The update to the methodology is described in
 J. Phys. Chem. A 118 (2014) 517-525



          -----------------------------------------------
          Solving response equations for perturbing field
          -----------------------------------------------

 number of frequencies:     1
 frequency in a.u.:  0.9319600E-01
 Perturbing field: electric
 Using GIAO formalism for OptRot
 Adding quadrupole terms to OptRot
 to create an origin in dependent tensor.
 Using El. Dipole Length Gauge
 
 Applying DAMPING constant of  0.003700 a.u.
 
 Setting up CPKS
 with frequency omega =      0.09319600 a.u.
 and a damping of            0.00370000 a.u.

 
                            NWChem Dynamic CPHF Module
                            --------------------------
 
 
    scftype = RHF 
    nclosed =   16
      nopen =    0
  variables =     9216
  num. vecs =        3
  tolerance =   1.0D-07
  max. iter =  100

 SCF residual:   4.783425980444668E-006


Iterative solution of linear equations
  No. of variables     4608
  No. of equations        3
  Maximum subspace       99
       Convergence  1.0D-07
        Start time     94.1


   iter   nsub   residual    time 
   ----  ------  --------  --------- 
 dft_CPHF2_read: failed to open
 ./methyloxirane_blyp-def2-tzvp_488.9_24.inp.aoresp_fiao_f1
     1      3    3.66D+00     143.4
     2      6    2.66D+00     192.9
     3      9    2.40D-01     242.3
     4     12    5.92D-02     291.8
     5     15    9.10D-03     341.3
     6     18    1.37D-03     390.9
     7     21    1.57D-04     440.5
     8     24    1.56D-05     490.0
     9     27    1.13D-06     539.5
    10     30    5.09D-07     589.2
    11     33    1.33D-08     638.8

 Calculating some arrays needed for GIAO optical rotation

    0 giaofock schwarz done =      93.12%
    0 giaofock schwarz done =      93.12%
 aor_r1_tensor_giao: roadata output requested
 dip-quad polarizability Re:

              1        2        3        4        5        6      
    1   77.4431  -6.3495 -27.3175  -4.2993   0.8626   9.0806
    2  -11.8576  25.8259   3.0886  22.8613 -19.6767   4.8325
    3   -6.9612   0.8638  39.4623   1.4340  14.6277 -39.1401
 traceless dip-quad polarizability:

              1        2        3      
    1   75.0524  -9.5242 -40.9763
    2   -9.5242 -47.5611   1.2939
    3  -40.9763   1.2939 -27.4913

              1        2        3      
    1  -25.7046  38.7388   4.6330
    2   38.7388  26.3739 -29.5151
    3    4.6330 -29.5151  -0.6693

              1        2        3      
    1   11.8919   1.2957  59.1935
    2    1.2957  24.4846  21.9415
    3   59.1935  21.9415 -36.3765

 roa begin

 alpha real:
 XX       0.4102226276900E+02
 XY      -0.5182196590874E+01
 XZ      -0.3086262582834E+01
 YX      -0.5182196597436E+01
 YY       0.4398687524603E+02
 YZ       0.3590446406933E+01
 ZX      -0.3086262584782E+01
 ZY       0.3590446406947E+01
 ZZ       0.4173184439956E+02

 alpha im:
 XX       0.1112259543493E+00
 XY      -0.2992062456287E-01
 XZ      -0.1143144245453E-01
 YX      -0.2992062115425E-01
 YY       0.1289718041909E+00
 YZ       0.2170467541133E-01
 ZX      -0.1143143944041E-01
 ZY       0.2170467523821E-01
 ZZ       0.1250438779106E+00

 beta real:
 XX      -0.1340633064928E+00
 XY       0.9257844180681E+00
 XZ       0.1992850782847E+00
 YX      -0.9305611179845E+00
 YY       0.1452181335909E+00
 YZ      -0.1546882243636E+01
 ZX      -0.4937226760696E+00
 ZY       0.1878007571442E+01
 ZZ      -0.3154687307536E-02

 G-prime = -omega beta(real):
 XX      -0.1340633064928E+00
 XY       0.9257844180681E+00
 XZ       0.1992850782847E+00
 YX      -0.9305611179845E+00
 YY       0.1452181335909E+00
 YZ      -0.1546882243636E+01
 ZX      -0.4937226760696E+00
 ZY       0.1878007571442E+01
 ZZ      -0.3154687307536E-02

 beta im:
 XX      -0.5818077248152E-02
 XY       0.1321164740370E-01
 XZ       0.2816672249071E-02
 YX      -0.9934085567985E-02
 YY       0.4901635794543E-02
 YZ      -0.2346815454187E-01
 ZX      -0.1410608728956E-01
 ZY       0.4043910908815E-01
 ZZ       0.7290762915668E-03

 G-prime = -omega beta(imag):
 XX      -0.5818077248152E-02
 XY       0.1321164740370E-01
 XZ       0.2816672249071E-02
 YX      -0.9934085567985E-02
 YY       0.4901635794543E-02
 YZ      -0.2346815454187E-01
 ZX      -0.1410608728956E-01
 ZY       0.4043910908815E-01
 ZZ       0.7290762915668E-03

 dipole-quadrupole real (Cartesian):
 XXX      0.7744305916916E+02
 XXY     -0.6349455535865E+01
 XXZ     -0.2731750917022E+02
 XYY     -0.4299309127111E+01
 XYZ      0.8626029069597E+00
 XZZ      0.9080619358987E+01
 YXX     -0.1185763390936E+02
 YXY      0.2582588331950E+02
 YXZ      0.3088639494946E+01
 YYY      0.2286131328128E+02
 YYZ     -0.1967670194195E+02
 YZZ      0.4832525366239E+01
 ZXX     -0.6961161702458E+01
 ZXY      0.8637980080351E+00
 ZXZ      0.3946234267442E+02
 ZYY      0.1433980438441E+01
 ZYZ      0.1462766042138E+02
 ZZZ     -0.3914007689164E+02

 dipole-quadrupole imag (Cartesian):
 XXX      0.2710862769966E+00
 XXY     -0.3546411959602E-01
 XXZ     -0.7532826269054E-01
 XYY     -0.2747348035249E-01
 XYZ      0.1148958363620E-03
 XZZ      0.6076893595076E-01
 YXX     -0.5738805081111E-01
 YXY      0.6362066943411E-01
 YXZ      0.1792579267220E-01
 YYY      0.8886879294404E-01
 YYZ     -0.4707908458101E-01
 YZZ      0.1654442104463E-01
 ZXX     -0.3715675301613E-01
 ZXY     -0.1973467810116E-02
 ZXZ      0.1472658486121E+00
 ZYY      0.1731544130477E-01
 ZYZ      0.7248617174951E-01
 ZZZ     -0.8431683114121E-01

 dipole-quadrupole (traceless):
 XXX      0.7505240405322E+02
 XXY     -0.9524183303798E+01
 XXZ     -0.4097626375533E+02
 XYY     -0.4756114839119E+02
 XYZ      0.1293904360440E+01
 XZZ     -0.2749125566204E+02
 YXX     -0.2570455323312E+02
 YXY      0.3873882497924E+02
 YXZ      0.4632959242419E+01
 YYY      0.2637386755284E+02
 YYZ     -0.2951505291293E+02
 YZZ     -0.6693143197211E+00
 ZXX      0.1189188652414E+02
 ZXY      0.1295697012053E+01
 ZXZ      0.5919351401163E+02
 ZYY      0.2448459973549E+02
 ZYZ      0.2194149063207E+02
 ZZZ     -0.3637648625963E+02

 roa end


 Electric Dipole Response Matrix (nonzero elements):

              1        2        3      
    1   41.0223  -5.1822  -3.0863
    2   -5.1822  43.9869   3.5904
    3   -3.0863   3.5904  41.7318
 
 Imaginary part:

              1        2        3      
    1    0.1112  -0.0299  -0.0114
    2   -0.0299   0.1290   0.0217
    3   -0.0114   0.0217   0.1250

 ------------------------------------------
 average:        42.24699 + I       0.12175


 DFT Linear Response polarizability / au 
 Frequency  =       0.0931960 / au
 Wavelength =     488.8981609 / nm
              X              Y              Z
 -----------------------------------------------
 X      41.0222628     -5.1821966     -3.0862626
 Y      -5.1821966     43.9868752      3.5904464
 Z      -3.0862626      3.5904464     41.7318444
 -----------------------------------------------
 Eigenvalues =      37.0791973     50.4556732     39.2061119
 Isotropic   =      42.2469941
 Anisotropic =      10.1654070
 -----------------------------------------------
 *************************

 DFT Linear Response IMAG polarizability / au 
 Frequency  =       0.0931960 / au
 Wavelength =     488.8981609 / nm
              X              Y              Z
 -----------------------------------------------
 X       0.1112260     -0.0299206     -0.0114314
 Y      -0.0299206      0.1289718      0.0217047
 Z      -0.0114314      0.0217047      0.1250439
 -----------------------------------------------
 Eigenvalues =       0.0883561      0.1657863      0.1110992
 Isotropic   =       0.1217472
 Anisotropic =       0.0562831
 -----------------------------------------------
 *************************

 Magnetic Dipole Response Matrix (nonzero elements):
 Optical rotation tensor Beta
 (Buckingham-Dunn version including dipole-quadrupole terms)

              1        2        3      
    1    2.5509  -0.1630   0.5079
    2   -0.1630  -1.5576  -1.7124
    3    0.5079  -1.7124  -1.0792
 
 Imaginary part:

              1        2        3      
    1    0.0624  -0.1418  -0.0302
    2    0.1066  -0.0526   0.2518
    3    0.1514  -0.4339  -0.0078

 ------------------------------------------
 average:        -0.02861 + I       0.00067

 Principal components and PAS (Real part)
                 -3.05538
                  2.66524
                  0.30429
 ------------------------
 average:        -0.02861

              1        2        3      
    1   -0.0380   0.9765  -0.2120
    2    0.7504  -0.1122  -0.6514
    3    0.6599   0.1838   0.7285

 Chiral response tensor (Real part):

              1        2        3      
    1   -1.3184   0.0815  -0.2540
    2    0.0815   0.7359   0.8562
    3   -0.2540   0.8562   0.4967
 
 Principal components and PAS (Real part)
                  1.48477
                 -1.37554
                 -0.19507
 ------------------------
 average:        -0.02861

              1        2        3      
    1   -0.0380   0.9765  -0.2120
    2    0.7504  -0.1122  -0.6514
    3    0.6599   0.1838   0.7285
 Exiting AOResponse driver routine

 Task  times  cpu:      617.0s     wall:      631.6s
 
 
                                NWChem Input Module
                                -------------------
 
 
 Summary of allocated global arrays
-----------------------------------
  No active global arrays



                         GA Statistics for process    0
                         ------------------------------

       create   destroy   get      put      acc     scatter   gather  read&inc
calls: 3294     3294     7.66e+06 3.14e+06 7.94e+05 2694        0     1191     
number of processes/call 1.01e+00 1.03e+00 1.44e+00 0.00e+00 0.00e+00
bytes total:             1.86e+09 1.26e+08 1.89e+09 1.84e+02 0.00e+00 9.53e+03
bytes remote:            8.11e+08 3.29e+07 1.12e+09 0.00e+00 0.00e+00 0.00e+00
Max memory consumed for GA by this process: 11242192 bytes
 
MA_summarize_allocated_blocks: starting scan ...
MA_summarize_allocated_blocks: scan completed: 0 heap blocks, 0 stack blocks
MA usage statistics:

	allocation statistics:
					      heap	     stack
					      ----	     -----
	current number of blocks	         0	         0
	maximum number of blocks	        24	        52
	current total bytes		         0	         0
	maximum total bytes		   7519840	  48608440
	maximum total K-bytes		      7520	     48609
	maximum total M-bytes		         8	        49
 
 
                                     CITATION
                                     --------
                Please cite the following reference when publishing
                           results obtained with NWChem:
 
                 M. Valiev, E.J. Bylaska, N. Govind, K. Kowalski,
              T.P. Straatsma, H.J.J. van Dam, D. Wang, J. Nieplocha,
                        E. Apra, T.L. Windus, W.A. de Jong
                 "NWChem: a comprehensive and scalable open-source
                  solution for large scale molecular simulations"
                      Comput. Phys. Commun. 181, 1477 (2010)
                           doi:10.1016/j.cpc.2010.04.018
 
                                      AUTHORS
                                      -------
          E. Apra, E. J. Bylaska, W. A. de Jong, N. Govind, K. Kowalski,
       T. P. Straatsma, M. Valiev, H. J. J. van Dam, D. Wang, T. L. Windus,
        J. Hammond, J. Autschbach, K. Bhaskaran-Nair, J. Brabec, K. Lopata,
    S. A. Fischer, S. Krishnamoorthy, M. Jacquelin, W. Ma, M. Klemm, O. Villa,
      Y. Chen, V. Anisimov, F. Aquino, S. Hirata, M. T. Hackler, V. Konjkov,
            D. Mejia-Rodriguez, T. Risthaus, M. Malagoli, A. Marenich,
   A. Otero-de-la-Roza, J. Mullin, P. Nichols, R. Peverati, J. Pittner, Y. Zhao,
        P.-D. Fan, A. Fonari, M. J. Williamson, R. J. Harrison, J. R. Rehr,
      M. Dupuis, D. Silverstein, D. M. A. Smith, J. Nieplocha, V. Tipparaju,
    M. Krishnan, B. E. Van Kuiken, A. Vazquez-Mayagoitia, L. Jensen, M. Swart,
      Q. Wu, T. Van Voorhis, A. A. Auer, M. Nooijen, L. D. Crosby, E. Brown,
      G. Cisneros, G. I. Fann, H. Fruchtl, J. Garza, K. Hirao, R. A. Kendall,
      J. A. Nichols, K. Tsemekhman, K. Wolinski, J. Anchell, D. E. Bernholdt,
      P. Borowski, T. Clark, D. Clerc, H. Dachsel, M. J. O. Deegan, K. Dyall,
    D. Elwood, E. Glendening, M. Gutowski, A. C. Hess, J. Jaffe, B. G. Johnson,
     J. Ju, R. Kobayashi, R. Kutteh, Z. Lin, R. Littlefield, X. Long, B. Meng,
      T. Nakajima, S. Niu, L. Pollack, M. Rosing, K. Glaesemann, G. Sandrone,
      M. Stave, H. Taylor, G. Thomas, J. H. van Lenthe, A. T. Wong, Z. Zhang.

 Total times  cpu:      690.3s     wall:      706.6s
