 argument  1 = methyloxirane_blyp-def2-tzvp_488.9_15.inp
 


============================== echo of input deck ==============================
echo
start methyloxirane_blyp-def2-tzvp_488.9_15.inp
title "methyloxirane roa calculations at 488.9 nm, input generated in va  with delta_type=2"
charge 0



geometry units angstrom nocenter noautoz noautosym nucleus point;symmetry c1
 O -0.878523 -0.179459  0.204953
 C  0.570684 -0.154351  0.125828
 C -0.185117  1.086794  0.339260
 C  1.188027 -0.522502 -1.213737
 H  1.072732 -0.613496  0.985643
 H -0.225558  1.530447  1.337109
 H -0.327513  1.777351 -0.496134
 H  2.240435 -0.205222 -1.239037
 H  1.131813 -1.608218 -1.369998
 H  0.645914 -0.022713 -2.026313
end

basis spherical
* library def2-TZVP
end

 set prop:newaoresp 1
 set aor:roadata T
 set cphf:maxsub 100
 set cphf:acc 1.0d-10
 set cphf:maxiter 100

property
    response 1   0.093196
    bdtensor
    convergence 1e-7
    damping 0.0037
    giao
end

dft
 direct
 mult 1
 xc becke88 lyp
 iterations 250
 tolerances tight
 grid xfine
 convergence nolevelshifting
 convergence energy 1e-8
 convergence gradient 1e-7


end

task dft gradient
task dft property
================================================================================


                                         
                                         
 
 
              Northwest Computational Chemistry Package (NWChem) 6.8
              ------------------------------------------------------
 
 
                    Environmental Molecular Sciences Laboratory
                       Pacific Northwest National Laboratory
                                Richland, WA 99352
 
                              Copyright (c) 1994-2017
                       Pacific Northwest National Laboratory
                            Battelle Memorial Institute
 
             NWChem is an open-source computational chemistry package
                        distributed under the terms of the
                      Educational Community License (ECL) 2.0
             A copy of the license is included with this distribution
                              in the LICENSE.TXT file
 
                                  ACKNOWLEDGMENT
                                  --------------

            This software and its documentation were developed at the
            EMSL at Pacific Northwest National Laboratory, a multiprogram
            national laboratory, operated for the U.S. Department of Energy
            by Battelle under Contract Number DE-AC05-76RL01830. Support
            for this work was provided by the Department of Energy Office
            of Biological and Environmental Research, Office of Basic
            Energy Sciences, and the Office of Advanced Scientific Computing.


           Job information
           ---------------

    hostname        = cpn-f11-19-02.cbls.ccr.buffalo.edu
    program         = /util/academic/nwchem/nwchem-6.8/bin/LINUX64/nwchem
    date            = Fri Mar  1 10:06:42 2019

    compiled        = Tue_Nov_06_14:59:08_2018
    source          = /util/academic/nwchem/nwchem-6.8
    nwchem branch   = 6.8
    nwchem revision = v6.8-47-gdf6c956
    ga revision     = ga-5.6.3
    use scalapack   = F
    input           = methyloxirane_blyp-def2-tzvp_488.9_15.inp
    prefix          = methyloxirane_blyp-def2-tzvp_488.9_15.inp.
    data base       = ./methyloxirane_blyp-def2-tzvp_488.9_15.inp.db
    status          = startup
    nproc           =        7
    time left       =     -1s



           Memory information
           ------------------

    heap     =   13107198 doubles =    100.0 Mbytes
    stack    =   13107195 doubles =    100.0 Mbytes
    global   =   26214400 doubles =    200.0 Mbytes (distinct from heap & stack)
    total    =   52428793 doubles =    400.0 Mbytes
    verify   = yes
    hardfail = no 


           Directory information
           ---------------------
 
  0 permanent = .
  0 scratch   = .
 
 
 
 
                                NWChem Input Module
                                -------------------
 
 
                    methyloxirane roa calculations at 488.9 nm, input generated in va  with delta_type=2
                    ------------------------------------------

 Scaling coordinates for geometry "geometry" by  1.889725989
 (inverse scale =  0.529177249)

 
 
                             Geometry "geometry" -> ""
                             -------------------------
 
 Output coordinates in angstroms (scale by  1.889725989 to convert to a.u.)
 
  No.       Tag          Charge          X              Y              Z
 ---- ---------------- ---------- -------------- -------------- --------------
    1 O                    8.0000    -0.87852300    -0.17945900     0.20495300
    2 C                    6.0000     0.57068400    -0.15435100     0.12582800
    3 C                    6.0000    -0.18511700     1.08679400     0.33926000
    4 C                    6.0000     1.18802700    -0.52250200    -1.21373700
    5 H                    1.0000     1.07273200    -0.61349600     0.98564300
    6 H                    1.0000    -0.22555800     1.53044700     1.33710900
    7 H                    1.0000    -0.32751300     1.77735100    -0.49613400
    8 H                    1.0000     2.24043500    -0.20522200    -1.23903700
    9 H                    1.0000     1.13181300    -1.60821800    -1.36999800
   10 H                    1.0000     0.64591400    -0.02271300    -2.02631300
 
      Atomic Mass 
      ----------- 
 
      O                 15.994910
      C                 12.000000
      H                  1.007825
 

 Effective nuclear repulsion energy (a.u.)     123.6165363820

            Nuclear Dipole moment (a.u.) 
            ----------------------------
        X                 Y               Z
 ---------------- ---------------- ----------------
    13.1358689610     3.5566967468   -10.6977388214
 
 
            XYZ format geometry
            -------------------
    10
 geometry
 O                    -0.87852300    -0.17945900     0.20495300
 C                     0.57068400    -0.15435100     0.12582800
 C                    -0.18511700     1.08679400     0.33926000
 C                     1.18802700    -0.52250200    -1.21373700
 H                     1.07273200    -0.61349600     0.98564300
 H                    -0.22555800     1.53044700     1.33710900
 H                    -0.32751300     1.77735100    -0.49613400
 H                     2.24043500    -0.20522200    -1.23903700
 H                     1.13181300    -1.60821800    -1.36999800
 H                     0.64591400    -0.02271300    -2.02631300
 
 ==============================================================================
                                internuclear distances
 ------------------------------------------------------------------------------
       center one      |      center two      | atomic units |  angstroms
 ------------------------------------------------------------------------------
    2 C                |   1 O                |     2.74309  |     1.45158
    3 C                |   1 O                |     2.73994  |     1.44991
    3 C                |   2 C                |     2.77554  |     1.46875
    4 C                |   2 C                |     2.87281  |     1.52022
    5 H                |   2 C                |     2.07194  |     1.09643
    6 H                |   3 C                |     2.06505  |     1.09278
    7 H                |   3 C                |     2.06580  |     1.09317
    8 H                |   4 C                |     2.07773  |     1.09949
    9 H                |   4 C                |     2.07557  |     1.09834
   10 H                |   4 C                |     2.07350  |     1.09725
 ------------------------------------------------------------------------------
                         number of included internuclear distances:         10
 ==============================================================================



 ==============================================================================
                                 internuclear angles
 ------------------------------------------------------------------------------
        center 1       |       center 2       |       center 3       |  degrees
 ------------------------------------------------------------------------------
    2 C                |   1 O                |   3 C                |    60.82
    2 C                |   1 O                |   3 C                |    60.82
    1 O                |   2 C                |   4 C                |   116.70
    1 O                |   2 C                |   5 H                |   114.03
    3 C                |   2 C                |   4 C                |   122.80
    3 C                |   2 C                |   5 H                |   118.39
    4 C                |   2 C                |   5 H                |   113.81
    3 C                |   1 O                |   2 C                |    60.82
    1 O                |   3 C                |   6 H                |   114.93
    1 O                |   3 C                |   7 H                |   114.75
    2 C                |   3 C                |   6 H                |   119.66
    2 C                |   3 C                |   7 H                |   119.33
    6 H                |   3 C                |   7 H                |   115.88
    2 C                |   4 C                |   8 H                |   109.82
    2 C                |   4 C                |   9 H                |   110.12
    2 C                |   4 C                |  10 H                |   109.98
    8 H                |   4 C                |   9 H                |   109.33
    8 H                |   4 C                |  10 H                |   108.93
    9 H                |   4 C                |  10 H                |   108.64
 ------------------------------------------------------------------------------
                            number of included internuclear angles:         19
 ==============================================================================



  warning:::::::::::::: from_environment
  NWCHEM_BASIS_LIBRARY set to: <
 /util/academic/nwchem/nwchem-6.8/src/basis/libraries>
  but file does not exist !
  using .nwchemrc or compiled library


 Summary of "ao basis" -> "" (spherical)
 ------------------------------------------------------------------------------
       Tag                 Description            Shells   Functions and Types
 ---------------- ------------------------------  ------  ---------------------
 *                         def2-TZVP                  on all atoms 


 
                                 NWChem DFT Module
                                 -----------------
 
 
                    methyloxirane roa calculations at 488.9 nm, input generated in va  with delta_type=2
 
 
                      Basis "ao basis" -> "ao basis" (spherical)
                      -----
  O (Oxygen)
  ----------
            Exponent  Coefficients 
       -------------- ---------------------------------------------------------
  1 S  2.70323826E+04  0.000217
  1 S  4.05238714E+03  0.001684
  1 S  9.22327227E+02  0.008740
  1 S  2.61240710E+02  0.035240
  1 S  8.53546414E+01  0.111535
  1 S  3.10350352E+01  0.255890
 
  2 S  1.22608607E+01  0.397687
  2 S  4.99870760E+00  0.246278
 
  3 S  1.17031082E+00  1.000000
 
  4 S  4.64747410E-01  1.000000
 
  5 S  1.85045364E-01  1.000000
 
  6 P  6.32749548E+01  0.006069
  6 P  1.46270494E+01  0.041913
  6 P  4.45012235E+00  0.161538
  6 P  1.52757996E+00  0.357070
 
  7 P  5.29351179E-01  1.000000
 
  8 P  1.74784213E-01  1.000000
 
  9 D  2.31400000E+00  1.000000
 
 10 D  6.45000000E-01  1.000000
 
 11 F  1.42800000E+00  1.000000
 
  C (Carbon)
  ----------
            Exponent  Coefficients 
       -------------- ---------------------------------------------------------
  1 S  1.35753497E+04  0.000222
  1 S  2.03523337E+03  0.001723
  1 S  4.63225624E+02  0.008926
  1 S  1.31200196E+02  0.035728
  1 S  4.28530159E+01  0.110763
  1 S  1.55841858E+01  0.242956
 
  2 S  6.20671385E+00  0.414403
  2 S  2.57648965E+00  0.237450
 
  3 S  5.76963394E-01  1.000000
 
  4 S  2.29728314E-01  1.000000
 
  5 S  9.51644400E-02  1.000000
 
  6 P  3.46972322E+01  0.005333
  6 P  7.95826228E+00  0.035864
  6 P  2.37808269E+00  0.142159
  6 P  8.14332082E-01  0.342705
 
  7 P  2.88875473E-01  1.000000
 
  8 P  1.00568237E-01  1.000000
 
  9 D  1.09700000E+00  1.000000
 
 10 D  3.18000000E-01  1.000000
 
 11 F  7.61000000E-01  1.000000
 
  H (Hydrogen)
  ------------
            Exponent  Coefficients 
       -------------- ---------------------------------------------------------
  1 S  3.40613410E+01  0.006025
  1 S  5.12357460E+00  0.045021
  1 S  1.16466260E+00  0.201897
 
  2 S  3.27230410E-01  1.000000
 
  3 S  1.03072410E-01  1.000000
 
  4 P  8.00000000E-01  1.000000
 


 Summary of "ao basis" -> "ao basis" (spherical)
 ------------------------------------------------------------------------------
       Tag                 Description            Shells   Functions and Types
 ---------------- ------------------------------  ------  ---------------------
 O                         def2-TZVP                11       31   5s3p2d1f
 C                         def2-TZVP                11       31   5s3p2d1f
 H                         def2-TZVP                 4        6   3s1p




 Summary of "ao basis" -> "ao basis" (spherical)
 ------------------------------------------------------------------------------
       Tag                 Description            Shells   Functions and Types
 ---------------- ------------------------------  ------  ---------------------
 O                         def2-TZVP                11       31   5s3p2d1f
 C                         def2-TZVP                11       31   5s3p2d1f
 H                         def2-TZVP                 4        6   3s1p


  Caching 1-el integrals 
  itol2e modified to match energy
  convergence criterion.
  tol_rho modified to match energy
  convergence criterion.
 
            General Information
            -------------------
          SCF calculation type: DFT
          Wavefunction type:  closed shell.
          No. of atoms     :    10
          No. of electrons :    32
           Alpha electrons :    16
            Beta electrons :    16
          Charge           :     0
          Spin multiplicity:     1
          Use of symmetry is: off; symmetry adaption is: off
          Maximum number of iterations: 250
          This is a Direct SCF calculation.
          AO basis - number of functions:   160
                     number of shells:    68
          Convergence on energy requested:  1.00D-08
          Convergence on density requested:  1.00D-05
          Convergence on gradient requested:  1.00D-07
 
              XC Information
              --------------
                    Becke 1988 Exchange Functional  1.000          
              Lee-Yang-Parr Correlation Functional  1.000          
 
             Grid Information
             ----------------
          Grid used for XC integration:  xfine     
          Radial quadrature: Mura-Knowles        
          Angular quadrature: Lebedev. 
          Tag              B.-S. Rad. Rad. Pts. Rad. Cut. Ang. Pts.
          ---              ---------- --------- --------- ---------
          O                   0.60      100          11.0      1454
          C                   0.70      100          11.0      1454
          H                   0.35      100          12.0      1202
          Grid pruning is: on 
          Number of quadrature shells:  1000
          Spatial weights used:  Erf1
 
          Convergence Information
          -----------------------
          Convergence aids based upon iterative change in 
          total energy or number of iterations. 
          Levelshifting, if invoked, occurs when the 
          HOMO/LUMO gap drops below (HL_TOL):  1.00D-02
          DIIS, if invoked, will attempt to extrapolate 
          using up to (NFOCK): 10 stored Fock matrices.

                    Damping( 0%)  Levelshifting(0.0)       DIIS
                  --------------- ------------------- ---------------
          dE  on:    start             N/A                start   
          dE off:    2 iters           N/A              250 iters 

 
      Screening Tolerance Information
      -------------------------------
          Density screening/tol_rho:  1.00D-11
          AO Gaussian exp screening on grid/accAOfunc:  18
          CD Gaussian exp screening on grid/accCDfunc:  20
          XC Gaussian exp screening on grid/accXCfunc:  20
          Schwarz screening/accCoul:  1.00D-09

 
      Superposition of Atomic Density Guess
      -------------------------------------
 
 Sum of atomic energies:        -190.79714706
 
      Non-variational initial energy
      ------------------------------

 Total energy =    -193.170380
 1-e energy   =    -502.188459
 2-e energy   =     185.401543
 HOMO         =      -0.353859
 LUMO         =       0.090683
 
   Time after variat. SCF:      0.6
   Time prior to 1st pass:      0.6

 Grid_pts file          = ./methyloxirane_blyp-def2-tzvp_488.9_15.inp.gridpts.0
 Record size in doubles =  12289        No. of grid_pts per rec  =   3070
 Max. records in memory =     76        Max. recs in file   =    554542


           Memory utilization after 1st SCF pass: 
           Heap Space remaining (MW):       12.17            12167542
          Stack Space remaining (MW):       13.11            13106116

   convergence    iter        energy       DeltaE   RMS-Dens  Diis-err    time
 ---------------- ----- ----------------- --------- --------- ---------  ------
 d= 0,ls=0.0,diis     1   -193.0204900818 -3.17D+02  9.10D-03  1.06D+00     6.9
 d= 0,ls=0.0,diis     2   -192.8637690581  1.57D-01  7.51D-03  2.50D+00    13.0
 d= 0,ls=0.0,diis     3   -193.0768322097 -2.13D-01  1.82D-03  3.88D-01    19.1
 d= 0,ls=0.0,diis     4   -193.1070991698 -3.03D-02  6.82D-04  1.82D-02    25.2
 d= 0,ls=0.0,diis     5   -193.1087617847 -1.66D-03  2.92D-04  2.71D-03    31.4
 d= 0,ls=0.0,diis     6   -193.1090996231 -3.38D-04  3.02D-05  3.74D-05    37.5
 d= 0,ls=0.0,diis     7   -193.1091039258 -4.30D-06  9.44D-06  5.26D-06    43.6
 d= 0,ls=0.0,diis     8   -193.1091045216 -5.96D-07  2.13D-06  2.92D-07    49.7
 d= 0,ls=0.0,diis     9   -193.1091045543 -3.27D-08  6.21D-07  1.30D-08    55.8
 d= 0,ls=0.0,diis    10   -193.1091045558 -1.52D-09  1.66D-07  1.40D-09    61.9


         Total DFT energy =     -193.109104555781
      One electron energy =     -505.843527506254
           Coulomb energy =      216.140671159922
    Exchange-Corr. energy =      -27.022784591465
 Nuclear repulsion energy =      123.616536382015

 Numeric. integr. density =       31.999999967800

     Total iterative time =     61.3s


 
                       DFT Final Molecular Orbital Analysis
                       ------------------------------------
 
 Vector    1  Occ=2.000000D+00  E=-1.878007D+01
              MO Center= -8.8D-01, -1.8D-01,  2.0D-01, r^2= 1.5D-02
   Bfn.  Coefficient  Atom+Function         Bfn.  Coefficient  Atom+Function  
  ----- ------------  ---------------      ----- ------------  ---------------
     2      0.638474   1 O  s                 1      0.435422   1 O  s         
     3      0.039918   1 O  s                 4     -0.033351   1 O  s         
 
 Vector    2  Occ=2.000000D+00  E=-9.962897D+00
              MO Center=  5.7D-01, -1.5D-01,  1.3D-01, r^2= 2.8D-02
   Bfn.  Coefficient  Atom+Function         Bfn.  Coefficient  Atom+Function  
  ----- ------------  ---------------      ----- ------------  ---------------
    33      0.606900   2 C  s                32      0.467256   2 C  s         
    34      0.042529   2 C  s                36      0.037183   2 C  s         
    35     -0.027249   2 C  s         
 
 Vector    3  Occ=2.000000D+00  E=-9.955515D+00
              MO Center= -1.9D-01,  1.1D+00,  3.4D-01, r^2= 2.8D-02
   Bfn.  Coefficient  Atom+Function         Bfn.  Coefficient  Atom+Function  
  ----- ------------  ---------------      ----- ------------  ---------------
    64      0.607009   3 C  s                63      0.467213   3 C  s         
    65      0.039598   3 C  s         
 
 Vector    4  Occ=2.000000D+00  E=-9.907707D+00
              MO Center=  1.2D+00, -5.2D-01, -1.2D+00, r^2= 2.8D-02
   Bfn.  Coefficient  Atom+Function         Bfn.  Coefficient  Atom+Function  
  ----- ------------  ---------------      ----- ------------  ---------------
    95      0.606971   4 C  s                94      0.467217   4 C  s         
    96      0.040644   4 C  s                98      0.035835   4 C  s         
 
 Vector    5  Occ=2.000000D+00  E=-9.649026D-01
              MO Center= -4.7D-01,  5.8D-02,  2.1D-01, r^2= 6.4D-01
   Bfn.  Coefficient  Atom+Function         Bfn.  Coefficient  Atom+Function  
  ----- ------------  ---------------      ----- ------------  ---------------
     4      0.374725   1 O  s                 3      0.276981   1 O  s         
     2     -0.192539   1 O  s                34      0.140202   2 C  s         
    65      0.139691   3 C  s                 5      0.122319   1 O  s         
    35      0.104545   2 C  s                 6      0.093841   1 O  px        
    66      0.093548   3 C  s                69     -0.092035   3 C  py        
 
 Vector    6  Occ=2.000000D+00  E=-6.685293D-01
              MO Center=  9.4D-01, -3.9D-01, -7.7D-01, r^2= 1.6D+00
   Bfn.  Coefficient  Atom+Function         Bfn.  Coefficient  Atom+Function  
  ----- ------------  ---------------      ----- ------------  ---------------
    97      0.284244   4 C  s                96      0.275386   4 C  s         
    35      0.186039   2 C  s                34      0.174033   2 C  s         
    95     -0.173389   4 C  s                 4     -0.148200   1 O  s         
    33     -0.108807   2 C  s                 3     -0.103500   1 O  s         
    94     -0.083078   4 C  s                 5     -0.073636   1 O  s         
 
 Vector    7  Occ=2.000000D+00  E=-5.903200D-01
              MO Center= -1.3D-01,  7.1D-01,  2.2D-01, r^2= 2.0D+00
   Bfn.  Coefficient  Atom+Function         Bfn.  Coefficient  Atom+Function  
  ----- ------------  ---------------      ----- ------------  ---------------
    66      0.326393   3 C  s                65      0.278321   3 C  s         
     4     -0.238633   1 O  s                64     -0.172011   3 C  s         
     3     -0.168406   1 O  s                 5     -0.147991   1 O  s         
     2      0.111219   1 O  s                38      0.106669   2 C  py        
   132      0.102699   6 H  s                97     -0.100375   4 C  s         
 
 Vector    8  Occ=2.000000D+00  E=-5.293829D-01
              MO Center=  4.1D-01,  1.5D-02, -9.7D-02, r^2= 2.7D+00
   Bfn.  Coefficient  Atom+Function         Bfn.  Coefficient  Atom+Function  
  ----- ------------  ---------------      ----- ------------  ---------------
    35      0.303527   2 C  s                34      0.224756   2 C  s         
    97     -0.155780   4 C  s                66     -0.152622   3 C  s         
    33     -0.138325   2 C  s               126      0.132266   5 H  s         
    96     -0.129697   4 C  s                 6      0.107934   1 O  px        
   125      0.105977   5 H  s                39      0.097482   2 C  pz        
 
 Vector    9  Occ=2.000000D+00  E=-4.482256D-01
              MO Center=  9.6D-02,  2.9D-01,  2.6D-01, r^2= 2.4D+00
   Bfn.  Coefficient  Atom+Function         Bfn.  Coefficient  Atom+Function  
  ----- ------------  ---------------      ----- ------------  ---------------
    70      0.210304   3 C  pz               39      0.151159   2 C  pz        
   132      0.146736   6 H  s                73      0.131695   3 C  pz        
     8      0.126550   1 O  pz                6     -0.114738   1 O  px        
   126      0.114879   5 H  s                38     -0.108904   2 C  py        
   131      0.108948   6 H  s                37      0.107673   2 C  px        
 
 Vector   10  Occ=2.000000D+00  E=-4.140927D-01
              MO Center=  4.2D-02,  3.1D-01, -2.3D-01, r^2= 2.6D+00
   Bfn.  Coefficient  Atom+Function         Bfn.  Coefficient  Atom+Function  
  ----- ------------  ---------------      ----- ------------  ---------------
    69      0.213868   3 C  py              138      0.157589   7 H  s         
   101      0.149671   4 C  pz                6     -0.140789   1 O  px        
    38     -0.138199   2 C  py               37      0.128069   2 C  px        
    70     -0.125129   3 C  pz                7     -0.120580   1 O  py        
    72      0.120914   3 C  py              137      0.114541   7 H  s         
 
 Vector   11  Occ=2.000000D+00  E=-3.777629D-01
              MO Center=  9.3D-01, -3.4D-01, -7.6D-01, r^2= 2.6D+00
   Bfn.  Coefficient  Atom+Function         Bfn.  Coefficient  Atom+Function  
  ----- ------------  ---------------      ----- ------------  ---------------
    99      0.208780   4 C  px              144      0.187366   8 H  s         
   100      0.172126   4 C  py              150     -0.146707   9 H  s         
   102      0.133190   4 C  px              143      0.130988   8 H  s         
    37      0.125491   2 C  px                6     -0.116685   1 O  px        
   103      0.112718   4 C  py                7      0.110973   1 O  py        
 
 Vector   12  Occ=2.000000D+00  E=-3.561466D-01
              MO Center=  5.8D-01, -3.3D-01, -8.6D-01, r^2= 2.9D+00
   Bfn.  Coefficient  Atom+Function         Bfn.  Coefficient  Atom+Function  
  ----- ------------  ---------------      ----- ------------  ---------------
   100      0.251653   4 C  py              150     -0.183315   9 H  s         
   156      0.176800  10 H  s                 7     -0.175899   1 O  py        
   103      0.162459   4 C  py               10     -0.141016   1 O  py        
   149     -0.127439   9 H  s               155      0.124922  10 H  s         
    70      0.116618   3 C  pz              106      0.101319   4 C  py        
 
 Vector   13  Occ=2.000000D+00  E=-3.269330D-01
              MO Center=  2.9D-01,  1.9D-01, -2.7D-01, r^2= 2.7D+00
   Bfn.  Coefficient  Atom+Function         Bfn.  Coefficient  Atom+Function  
  ----- ------------  ---------------      ----- ------------  ---------------
     7      0.204735   1 O  py               39     -0.186202   2 C  pz        
    10      0.165769   1 O  py              101      0.164929   4 C  pz        
    99     -0.162791   4 C  px              138     -0.153472   7 H  s         
    70      0.146817   3 C  pz               42     -0.127475   2 C  pz        
     6     -0.122849   1 O  px               37      0.119168   2 C  px        
 
 Vector   14  Occ=2.000000D+00  E=-3.212073D-01
              MO Center=  4.8D-01, -1.8D-02, -2.2D-01, r^2= 3.0D+00
   Bfn.  Coefficient  Atom+Function         Bfn.  Coefficient  Atom+Function  
  ----- ------------  ---------------      ----- ------------  ---------------
   126      0.178361   5 H  s                39      0.175155   2 C  pz        
     7      0.163195   1 O  py              101     -0.163021   4 C  pz        
   156      0.163573  10 H  s                10      0.134374   1 O  py        
    99     -0.127190   4 C  px              132     -0.125827   6 H  s         
     6     -0.122176   1 O  px              125      0.121477   5 H  s         
 
 Vector   15  Occ=2.000000D+00  E=-2.648885D-01
              MO Center=  7.4D-03,  1.5D-01,  4.1D-02, r^2= 2.3D+00
   Bfn.  Coefficient  Atom+Function         Bfn.  Coefficient  Atom+Function  
  ----- ------------  ---------------      ----- ------------  ---------------
    68      0.264563   3 C  px               38      0.256806   2 C  py        
     6     -0.237936   1 O  px               41      0.200184   2 C  py        
    71      0.195914   3 C  px                9     -0.186122   1 O  px        
    12     -0.157020   1 O  px              150      0.113690   9 H  s         
   100     -0.110669   4 C  py               67      0.105509   3 C  s         
 
 Vector   16  Occ=2.000000D+00  E=-2.198520D-01
              MO Center= -5.7D-01, -3.0D-02,  2.0D-01, r^2= 1.6D+00
   Bfn.  Coefficient  Atom+Function         Bfn.  Coefficient  Atom+Function  
  ----- ------------  ---------------      ----- ------------  ---------------
     8      0.448212   1 O  pz               11      0.357037   1 O  pz        
    14      0.295664   1 O  pz              133     -0.129653   6 H  s         
   139      0.115030   7 H  s               132     -0.103317   6 H  s         
   138      0.102812   7 H  s               145     -0.102663   8 H  s         
   126     -0.098104   5 H  s                98      0.094576   4 C  s         
 
 Vector   17  Occ=0.000000D+00  E= 2.557956D-02
              MO Center=  1.2D+00, -9.2D-02, -5.8D-01, r^2= 7.2D+00
   Bfn.  Coefficient  Atom+Function         Bfn.  Coefficient  Atom+Function  
  ----- ------------  ---------------      ----- ------------  ---------------
    98      4.405187   4 C  s               145     -1.510393   8 H  s         
   151     -1.478518   9 H  s               157     -1.335704  10 H  s         
   127     -1.257256   5 H  s                45      1.109063   2 C  pz        
   139     -0.876754   7 H  s                67      0.730417   3 C  s         
   133     -0.613918   6 H  s                75      0.318120   3 C  py        
 
 Vector   18  Occ=0.000000D+00  E= 4.334961D-02
              MO Center= -1.3D-01,  6.6D-01,  1.0D-01, r^2= 4.5D+00
   Bfn.  Coefficient  Atom+Function         Bfn.  Coefficient  Atom+Function  
  ----- ------------  ---------------      ----- ------------  ---------------
    98     -2.166366   4 C  s                36      2.039736   2 C  s         
     5     -1.292231   1 O  s                74     -0.942119   3 C  px        
   151      0.806861   9 H  s                45     -0.487439   2 C  pz        
   157      0.477283  10 H  s                67     -0.463726   3 C  s         
    13     -0.433350   1 O  py               44      0.396473   2 C  py        
 
 Vector   19  Occ=0.000000D+00  E= 5.048509D-02
              MO Center=  3.7D-01,  5.1D-01, -1.7D-01, r^2= 6.7D+00
   Bfn.  Coefficient  Atom+Function         Bfn.  Coefficient  Atom+Function  
  ----- ------------  ---------------      ----- ------------  ---------------
    36      2.691907   2 C  s                67     -2.601719   3 C  s         
   127     -1.866880   5 H  s               139      1.713331   7 H  s         
   157      0.912109  10 H  s                98     -0.603256   4 C  s         
    76      0.571928   3 C  pz               45      0.520273   2 C  pz        
     5      0.463176   1 O  s                43      0.457685   2 C  px        
 
 Vector   20  Occ=0.000000D+00  E= 5.175940D-02
              MO Center=  5.5D-01,  6.3D-01,  4.6D-01, r^2= 7.6D+00
   Bfn.  Coefficient  Atom+Function         Bfn.  Coefficient  Atom+Function  
  ----- ------------  ---------------      ----- ------------  ---------------
    98      3.375838   4 C  s                67     -2.903131   3 C  s         
   133      1.915162   6 H  s               145     -1.198687   8 H  s         
    44      1.118274   2 C  py              127      1.039405   5 H  s         
   157     -1.028240  10 H  s               151     -0.735535   9 H  s         
    36     -0.653996   2 C  s                43     -0.655549   2 C  px        
 
 Vector   21  Occ=0.000000D+00  E= 6.556283D-02
              MO Center=  3.0D-01,  3.2D-02, -1.4D-01, r^2= 4.5D+00
   Bfn.  Coefficient  Atom+Function         Bfn.  Coefficient  Atom+Function  
  ----- ------------  ---------------      ----- ------------  ---------------
    98      1.242701   4 C  s               139      1.098198   7 H  s         
   151     -0.929649   9 H  s                 5     -0.907323   1 O  s         
    43     -0.842413   2 C  px               75     -0.617022   3 C  py        
    67     -0.599302   3 C  s               133      0.493719   6 H  s         
    12     -0.489183   1 O  px               36     -0.471518   2 C  s         
 
 Vector   22  Occ=0.000000D+00  E= 8.592365D-02
              MO Center=  1.3D+00,  2.0D-01, -4.8D-01, r^2= 7.1D+00
   Bfn.  Coefficient  Atom+Function         Bfn.  Coefficient  Atom+Function  
  ----- ------------  ---------------      ----- ------------  ---------------
    36      2.868934   2 C  s               145      2.015103   8 H  s         
    67     -1.367691   3 C  s               127     -1.316901   5 H  s         
   157     -1.292722  10 H  s               133      1.230434   6 H  s         
   107     -1.120826   4 C  pz               98     -1.004647   4 C  s         
   105     -0.997120   4 C  px               75      0.732401   3 C  py        
 
 Vector   23  Occ=0.000000D+00  E= 9.117623D-02
              MO Center=  1.2D+00, -6.6D-01, -5.6D-01, r^2= 6.6D+00
   Bfn.  Coefficient  Atom+Function         Bfn.  Coefficient  Atom+Function  
  ----- ------------  ---------------      ----- ------------  ---------------
    36      2.498872   2 C  s               151      2.087082   9 H  s         
   145     -1.592823   8 H  s                98     -1.338141   4 C  s         
   106      1.146778   4 C  py              105      1.137734   4 C  px        
   133      0.931819   6 H  s                67     -0.897620   3 C  s         
   127     -0.811204   5 H  s               107     -0.687030   4 C  pz        
 
 Vector   24  Occ=0.000000D+00  E= 1.026289D-01
              MO Center=  4.5D-01,  3.6D-01, -1.1D+00, r^2= 6.7D+00
   Bfn.  Coefficient  Atom+Function         Bfn.  Coefficient  Atom+Function  
  ----- ------------  ---------------      ----- ------------  ---------------
   157      2.077372  10 H  s                98     -1.548453   4 C  s         
   133      1.524579   6 H  s               106     -1.490520   4 C  py        
   139     -1.451744   7 H  s               151     -1.410212   9 H  s         
    36      1.343666   2 C  s                76     -1.108861   3 C  pz        
   105      1.016505   4 C  px               45     -0.573236   2 C  pz        
 
 Vector   25  Occ=0.000000D+00  E= 1.378568D-01
              MO Center=  7.7D-01,  2.4D-01, -4.1D-01, r^2= 7.9D+00
   Bfn.  Coefficient  Atom+Function         Bfn.  Coefficient  Atom+Function  
  ----- ------------  ---------------      ----- ------------  ---------------
    36      4.582010   2 C  s                98     -3.362374   4 C  s         
    45     -3.315548   2 C  pz               67     -2.852096   3 C  s         
   127      2.689678   5 H  s                76      2.191305   3 C  pz        
   105      2.022847   4 C  px              133     -1.795715   6 H  s         
   139      1.734417   7 H  s               107     -1.493558   4 C  pz        
 
 Vector   26  Occ=0.000000D+00  E= 1.701213D-01
              MO Center=  4.3D-01,  5.7D-01, -1.5D-01, r^2= 7.3D+00
   Bfn.  Coefficient  Atom+Function         Bfn.  Coefficient  Atom+Function  
  ----- ------------  ---------------      ----- ------------  ---------------
    75      2.340204   3 C  py              107      1.626472   4 C  pz        
    36      1.593923   2 C  s                67     -1.591416   3 C  s         
   139     -1.261988   7 H  s               157      1.087641  10 H  s         
    74     -0.992636   3 C  px               44      0.762514   2 C  py        
    43     -0.624350   2 C  px              106     -0.587356   4 C  py        
 
 Vector   27  Occ=0.000000D+00  E= 1.973743D-01
              MO Center=  8.7D-01, -6.1D-02, -9.7D-01, r^2= 5.2D+00
   Bfn.  Coefficient  Atom+Function         Bfn.  Coefficient  Atom+Function  
  ----- ------------  ---------------      ----- ------------  ---------------
    67      3.141719   3 C  s                44     -2.620882   2 C  py        
   106      2.079458   4 C  py               36     -1.713972   2 C  s         
    43      1.014084   2 C  px               74      0.697929   3 C  px        
   150      0.659077   9 H  s               157     -0.648628  10 H  s         
    45     -0.568496   2 C  pz              145     -0.571008   8 H  s         
 
 Vector   28  Occ=0.000000D+00  E= 2.012941D-01
              MO Center=  9.4D-01, -4.9D-01, -7.1D-01, r^2= 6.6D+00
   Bfn.  Coefficient  Atom+Function         Bfn.  Coefficient  Atom+Function  
  ----- ------------  ---------------      ----- ------------  ---------------
    36      2.667558   2 C  s                75      1.644323   3 C  py        
   105     -1.458798   4 C  px              133     -1.197070   6 H  s         
   107     -0.906789   4 C  pz               45      0.743171   2 C  pz        
   156     -0.720339  10 H  s               139     -0.700273   7 H  s         
    76      0.665440   3 C  pz              106      0.645530   4 C  py        
 
 Vector   29  Occ=0.000000D+00  E= 2.370116D-01
              MO Center= -3.6D-01,  4.6D-01,  7.2D-03, r^2= 5.4D+00
   Bfn.  Coefficient  Atom+Function         Bfn.  Coefficient  Atom+Function  
  ----- ------------  ---------------      ----- ------------  ---------------
    67      4.956929   3 C  s                36     -3.194787   2 C  s         
    66     -1.471291   3 C  s               139     -1.472770   7 H  s         
   133     -1.280268   6 H  s                98      1.190558   4 C  s         
   107      0.835249   4 C  pz                5     -0.818103   1 O  s         
    74     -0.782386   3 C  px              106      0.767399   4 C  py        
 
 Vector   30  Occ=0.000000D+00  E= 2.480949D-01
              MO Center=  5.9D-01, -5.7D-02, -1.4D-01, r^2= 5.7D+00
   Bfn.  Coefficient  Atom+Function         Bfn.  Coefficient  Atom+Function  
  ----- ------------  ---------------      ----- ------------  ---------------
    67      5.690283   3 C  s                43      4.245400   2 C  px        
    75     -3.023501   3 C  py               44     -2.702762   2 C  py        
    36     -2.459917   2 C  s               107     -1.967459   4 C  pz        
   157     -1.824371  10 H  s                45     -1.490371   2 C  pz        
   105     -1.338258   4 C  px               98     -1.265187   4 C  s         
 
 Vector   31  Occ=0.000000D+00  E= 2.682982D-01
              MO Center=  3.2D-01, -1.1D-01,  2.4D-01, r^2= 5.6D+00
   Bfn.  Coefficient  Atom+Function         Bfn.  Coefficient  Atom+Function  
  ----- ------------  ---------------      ----- ------------  ---------------
    36      4.090567   2 C  s                67      2.756153   3 C  s         
     5     -2.132120   1 O  s               105      1.398192   4 C  px        
    98     -1.270861   4 C  s                66     -1.164894   3 C  s         
    43     -1.130171   2 C  px              127     -0.946716   5 H  s         
   133     -0.912389   6 H  s               139     -0.871317   7 H  s         
 
 Vector   32  Occ=0.000000D+00  E= 2.786196D-01
              MO Center=  3.8D-01,  2.7D-01,  3.0D-01, r^2= 4.2D+00
   Bfn.  Coefficient  Atom+Function         Bfn.  Coefficient  Atom+Function  
  ----- ------------  ---------------      ----- ------------  ---------------
    36      2.789318   2 C  s                 5     -1.836591   1 O  s         
    67     -1.742033   3 C  s                43     -1.436473   2 C  px        
    74     -0.730989   3 C  px               98     -0.686436   4 C  s         
    45     -0.636864   2 C  pz              145      0.540222   8 H  s         
     4      0.501026   1 O  s                66      0.351486   3 C  s         
 
 Vector   33  Occ=0.000000D+00  E= 3.005761D-01
              MO Center=  4.5D-01,  3.5D-01, -4.0D-01, r^2= 5.0D+00
   Bfn.  Coefficient  Atom+Function         Bfn.  Coefficient  Atom+Function  
  ----- ------------  ---------------      ----- ------------  ---------------
    43      2.091318   2 C  px               98     -1.816524   4 C  s         
   106      1.674110   4 C  py              151      1.590381   9 H  s         
    44     -1.472850   2 C  py               36     -1.254632   2 C  s         
    76      1.239290   3 C  pz              107     -1.187408   4 C  pz        
    66      1.014222   3 C  s                75     -0.920619   3 C  py        
 
 Vector   34  Occ=0.000000D+00  E= 3.370862D-01
              MO Center=  1.4D-01,  4.1D-01, -4.5D-01, r^2= 5.9D+00
   Bfn.  Coefficient  Atom+Function         Bfn.  Coefficient  Atom+Function  
  ----- ------------  ---------------      ----- ------------  ---------------
    67      4.804728   3 C  s                76     -3.912955   3 C  pz        
   139     -3.159648   7 H  s                36     -2.408399   2 C  s         
   133      1.946411   6 H  s               107     -1.818879   4 C  pz        
   157     -1.805757  10 H  s                98      1.637548   4 C  s         
    43      1.383100   2 C  px               44     -1.193800   2 C  py        
 
 Vector   35  Occ=0.000000D+00  E= 3.618580D-01
              MO Center=  7.7D-01, -2.2D-02, -3.6D-01, r^2= 6.9D+00
   Bfn.  Coefficient  Atom+Function         Bfn.  Coefficient  Atom+Function  
  ----- ------------  ---------------      ----- ------------  ---------------
    98      7.999176   4 C  s                76      3.412638   3 C  pz        
   145     -3.253222   8 H  s                97     -3.187038   4 C  s         
   133     -2.454429   6 H  s               151     -1.933944   9 H  s         
   139      1.685637   7 H  s                45     -1.459708   2 C  pz        
    44      1.452238   2 C  py              157     -1.439008  10 H  s         
 
 Vector   36  Occ=0.000000D+00  E= 3.726309D-01
              MO Center=  5.6D-01,  2.3D-01,  2.2D-02, r^2= 6.3D+00
   Bfn.  Coefficient  Atom+Function         Bfn.  Coefficient  Atom+Function  
  ----- ------------  ---------------      ----- ------------  ---------------
    36     13.053844   2 C  s                98     -8.414741   4 C  s         
    67     -8.335452   3 C  s               127     -3.316328   5 H  s         
    97      2.247008   4 C  s               157      2.179283  10 H  s         
    35     -1.905616   2 C  s                44      1.821753   2 C  py        
    74     -1.621535   3 C  px               75      1.590385   3 C  py        
 
 Vector   37  Occ=0.000000D+00  E= 3.857940D-01
              MO Center=  8.4D-01, -3.4D-01, -1.3D-01, r^2= 6.2D+00
   Bfn.  Coefficient  Atom+Function         Bfn.  Coefficient  Atom+Function  
  ----- ------------  ---------------      ----- ------------  ---------------
    98      5.482337   4 C  s                36      5.151612   2 C  s         
   127     -3.964595   5 H  s                45      3.289228   2 C  pz        
    67     -2.527843   3 C  s               151     -2.389041   9 H  s         
    76     -2.373811   3 C  pz               35     -2.226690   2 C  s         
   145     -2.174573   8 H  s               133      1.850366   6 H  s         
 
 Vector   38  Occ=0.000000D+00  E= 3.947998D-01
              MO Center=  1.1D-01,  1.4D-01, -1.9D-01, r^2= 6.3D+00
   Bfn.  Coefficient  Atom+Function         Bfn.  Coefficient  Atom+Function  
  ----- ------------  ---------------      ----- ------------  ---------------
    98     11.948205   4 C  s                45      5.276017   2 C  pz        
    67     -4.492452   3 C  s                36     -3.490732   2 C  s         
    76     -2.997979   3 C  pz              157     -2.764518  10 H  s         
   133      2.258298   6 H  s                44      2.091318   2 C  py        
    43     -1.756265   2 C  px              107      1.751681   4 C  pz        
 
 Vector   39  Occ=0.000000D+00  E= 4.014978D-01
              MO Center= -1.3D-01,  3.0D-01,  2.7D-01, r^2= 6.6D+00
   Bfn.  Coefficient  Atom+Function         Bfn.  Coefficient  Atom+Function  
  ----- ------------  ---------------      ----- ------------  ---------------
    67    -13.021979   3 C  s                36     11.985016   2 C  s         
    45     -4.656200   2 C  pz               44      4.170266   2 C  py        
    98     -3.913989   4 C  s               127      2.849925   5 H  s         
    66      2.761721   3 C  s                43     -2.704291   2 C  px        
   139      2.354298   7 H  s               105      2.279998   4 C  px        
 
 Vector   40  Occ=0.000000D+00  E= 4.165030D-01
              MO Center=  7.5D-01, -3.9D-01, -8.4D-01, r^2= 5.8D+00
   Bfn.  Coefficient  Atom+Function         Bfn.  Coefficient  Atom+Function  
  ----- ------------  ---------------      ----- ------------  ---------------
    98      6.970789   4 C  s                45      2.961870   2 C  pz        
    36     -2.891112   2 C  s               105     -2.509366   4 C  px        
   151     -2.361157   9 H  s               157     -2.065209  10 H  s         
   145      1.729150   8 H  s                97     -1.194442   4 C  s         
   144     -0.959782   8 H  s               127     -0.935471   5 H  s         
 
 Vector   41  Occ=0.000000D+00  E= 4.267116D-01
              MO Center=  4.6D-01,  2.3D-01, -1.3D-01, r^2= 6.8D+00
   Bfn.  Coefficient  Atom+Function         Bfn.  Coefficient  Atom+Function  
  ----- ------------  ---------------      ----- ------------  ---------------
    36      9.862061   2 C  s                67     -4.890131   3 C  s         
    98     -4.651202   4 C  s                44      2.695105   2 C  py        
    75      2.679838   3 C  py              151      2.422944   9 H  s         
    43     -1.813030   2 C  px               45     -1.766772   2 C  pz        
    74     -1.511260   3 C  px               35     -1.393149   2 C  s         
 
 Vector   42  Occ=0.000000D+00  E= 4.465955D-01
              MO Center=  1.6D-01, -1.7D-01, -1.8D-01, r^2= 6.1D+00
   Bfn.  Coefficient  Atom+Function         Bfn.  Coefficient  Atom+Function  
  ----- ------------  ---------------      ----- ------------  ---------------
    36      9.199829   2 C  s                98     -8.686890   4 C  s         
    45     -5.532330   2 C  pz               67     -2.911098   3 C  s         
   127      2.861764   5 H  s                76      2.753378   3 C  pz        
    44      2.091895   2 C  py              106     -2.090787   4 C  py        
   133     -2.037915   6 H  s               157      1.978984  10 H  s         
 
 Vector   43  Occ=0.000000D+00  E= 4.593249D-01
              MO Center=  6.3D-02,  8.3D-01, -5.8D-01, r^2= 5.1D+00
   Bfn.  Coefficient  Atom+Function         Bfn.  Coefficient  Atom+Function  
  ----- ------------  ---------------      ----- ------------  ---------------
   139      3.183063   7 H  s               157     -2.585872  10 H  s         
    75     -2.306433   3 C  py              107     -2.144239   4 C  pz        
    44     -1.794753   2 C  py               43      1.736246   2 C  px        
   138     -1.458534   7 H  s                45     -1.304414   2 C  pz        
    36     -0.960009   2 C  s                76      0.924521   3 C  pz        
 
 Vector   44  Occ=0.000000D+00  E= 4.689721D-01
              MO Center=  4.6D-01,  1.8D-01,  1.8D-02, r^2= 5.6D+00
   Bfn.  Coefficient  Atom+Function         Bfn.  Coefficient  Atom+Function  
  ----- ------------  ---------------      ----- ------------  ---------------
    98     -4.956253   4 C  s                36      4.660008   2 C  s         
    45     -2.147036   2 C  pz              145      1.698105   8 H  s         
   107     -1.568652   4 C  pz              133      1.465662   6 H  s         
    67     -1.412708   3 C  s                35     -1.299283   2 C  s         
   132     -1.125306   6 H  s               126      1.048032   5 H  s         
 
 Vector   45  Occ=0.000000D+00  E= 5.065402D-01
              MO Center=  8.9D-01, -3.7D-01, -9.3D-01, r^2= 4.8D+00
   Bfn.  Coefficient  Atom+Function         Bfn.  Coefficient  Atom+Function  
  ----- ------------  ---------------      ----- ------------  ---------------
    98     11.369066   4 C  s                36     -7.367662   2 C  s         
    45      4.618989   2 C  pz              107      3.061825   4 C  pz        
   106      1.362286   4 C  py              144     -1.316591   8 H  s         
   156     -1.247683  10 H  s               127     -1.216809   5 H  s         
   105     -1.066737   4 C  px               14     -1.054289   1 O  pz        
 
 Vector   46  Occ=0.000000D+00  E= 5.360590D-01
              MO Center=  1.1D-01, -3.9D-01, -4.9D-01, r^2= 4.4D+00
   Bfn.  Coefficient  Atom+Function         Bfn.  Coefficient  Atom+Function  
  ----- ------------  ---------------      ----- ------------  ---------------
    98     -6.945302   4 C  s                36      6.587195   2 C  s         
    45     -3.534707   2 C  pz               76      3.266983   3 C  pz        
   133     -1.813116   6 H  s               105      1.488696   4 C  px        
   139      1.464450   7 H  s               107     -1.428424   4 C  pz        
    14     -1.164917   1 O  pz                5     -1.118258   1 O  s         
 
 Vector   47  Occ=0.000000D+00  E= 6.578799D-01
              MO Center= -3.8D-01,  3.6D-02, -1.3D-02, r^2= 4.3D+00
   Bfn.  Coefficient  Atom+Function         Bfn.  Coefficient  Atom+Function  
  ----- ------------  ---------------      ----- ------------  ---------------
    36     11.707780   2 C  s                67     -8.989024   3 C  s         
    98     -4.146081   4 C  s                43     -2.566899   2 C  px        
    75      2.444414   3 C  py               13      2.210907   1 O  py        
    76      2.111650   3 C  pz              105      1.587388   4 C  px        
   139      1.531337   7 H  s                44      1.455304   2 C  py        
 
 Vector   48  Occ=0.000000D+00  E= 6.751165D-01
              MO Center= -3.2D-01,  3.6D-01,  1.4D-01, r^2= 3.9D+00
   Bfn.  Coefficient  Atom+Function         Bfn.  Coefficient  Atom+Function  
  ----- ------------  ---------------      ----- ------------  ---------------
    36      8.276462   2 C  s                67     -8.229969   3 C  s         
     5      2.979039   1 O  s                75      2.664462   3 C  py        
    13      2.152737   1 O  py               98     -2.009044   4 C  s         
    43     -1.345751   2 C  px               45     -1.241091   2 C  pz        
     4     -1.098284   1 O  s                44      1.059596   2 C  py        
 
 Vector   49  Occ=0.000000D+00  E= 7.091441D-01
              MO Center=  1.7D-01, -3.0D-01, -2.7D-01, r^2= 4.5D+00
   Bfn.  Coefficient  Atom+Function         Bfn.  Coefficient  Atom+Function  
  ----- ------------  ---------------      ----- ------------  ---------------
    67      9.435473   3 C  s                36     -7.320137   2 C  s         
    43      3.639550   2 C  px               44     -3.468246   2 C  py        
    75     -2.747088   3 C  py               98     -2.517541   4 C  s         
     5      2.362753   1 O  s                12      1.703045   1 O  px        
   106      1.628011   4 C  py               13     -1.269025   1 O  py        
 
 Vector   50  Occ=0.000000D+00  E= 7.635453D-01
              MO Center=  6.4D-01,  1.9D-02, -3.4D-01, r^2= 4.0D+00
   Bfn.  Coefficient  Atom+Function         Bfn.  Coefficient  Atom+Function  
  ----- ------------  ---------------      ----- ------------  ---------------
    45      2.306025   2 C  pz              127     -1.648578   5 H  s         
    43      1.627485   2 C  px              105     -1.616602   4 C  px        
   126     -1.332941   5 H  s                 5     -1.287506   1 O  s         
   144      1.263093   8 H  s                36      1.163105   2 C  s         
    76     -1.162013   3 C  pz               67      1.131855   3 C  s         
 
 Vector   51  Occ=0.000000D+00  E= 7.953455D-01
              MO Center=  2.7D-01,  3.6D-02, -2.0D-01, r^2= 4.4D+00
   Bfn.  Coefficient  Atom+Function         Bfn.  Coefficient  Atom+Function  
  ----- ------------  ---------------      ----- ------------  ---------------
     5      4.126157   1 O  s                36     -2.670037   2 C  s         
    76     -2.551754   3 C  pz                4     -1.635940   1 O  s         
    45      1.538929   2 C  pz               12      1.366525   1 O  px        
   133      1.339729   6 H  s                66     -1.140974   3 C  s         
    43      1.097277   2 C  px               35     -1.031962   2 C  s         
 
 Vector   52  Occ=0.000000D+00  E= 8.318417D-01
              MO Center=  3.0D-01,  1.6D-01,  8.3D-03, r^2= 4.4D+00
   Bfn.  Coefficient  Atom+Function         Bfn.  Coefficient  Atom+Function  
  ----- ------------  ---------------      ----- ------------  ---------------
    36      6.889535   2 C  s                 5     -4.108753   1 O  s         
    98     -4.092321   4 C  s                43     -2.710610   2 C  px        
   105      1.966588   4 C  px               45     -1.910180   2 C  pz        
    35     -1.877255   2 C  s                44      1.554928   2 C  py        
    66     -1.122279   3 C  s                97      1.019985   4 C  s         
 
 Vector   53  Occ=0.000000D+00  E= 8.538796D-01
              MO Center=  6.4D-01,  9.0D-02, -4.2D-01, r^2= 4.1D+00
   Bfn.  Coefficient  Atom+Function         Bfn.  Coefficient  Atom+Function  
  ----- ------------  ---------------      ----- ------------  ---------------
    98     -4.421380   4 C  s                36      4.372913   2 C  s         
    45     -4.354485   2 C  pz               76      2.077958   3 C  pz        
   127      1.747231   5 H  s                44      1.598445   2 C  py        
   106     -1.571088   4 C  py              150     -1.301449   9 H  s         
   105      1.241249   4 C  px               67     -1.145908   3 C  s         
 
 Vector   54  Occ=0.000000D+00  E= 8.713191D-01
              MO Center=  1.7D-01, -1.2D-02, -1.3D-01, r^2= 4.3D+00
   Bfn.  Coefficient  Atom+Function         Bfn.  Coefficient  Atom+Function  
  ----- ------------  ---------------      ----- ------------  ---------------
     5      4.570690   1 O  s                36     -1.706478   2 C  s         
     4     -1.560076   1 O  s               138      1.496057   7 H  s         
    67     -1.327811   3 C  s                76      1.272639   3 C  pz        
    12      1.165157   1 O  px               66     -1.119499   3 C  s         
    97      0.914736   4 C  s               156     -0.915483  10 H  s         
 
 Vector   55  Occ=0.000000D+00  E= 9.211576D-01
              MO Center=  5.2D-01,  3.0D-01, -4.9D-01, r^2= 4.5D+00
   Bfn.  Coefficient  Atom+Function         Bfn.  Coefficient  Atom+Function  
  ----- ------------  ---------------      ----- ------------  ---------------
    35      4.829610   2 C  s                36     -1.460844   2 C  s         
   132     -1.396483   6 H  s                67      1.357371   3 C  s         
    66     -1.318790   3 C  s                72      1.298123   3 C  py        
    98     -1.269257   4 C  s               156     -1.176957  10 H  s         
    41      1.168620   2 C  py               84      1.163000   3 C  d  0      
 
 Vector   56  Occ=0.000000D+00  E= 9.605667D-01
              MO Center=  4.8D-01,  2.8D-01, -5.6D-01, r^2= 4.7D+00
   Bfn.  Coefficient  Atom+Function         Bfn.  Coefficient  Atom+Function  
  ----- ------------  ---------------      ----- ------------  ---------------
    35      4.253522   2 C  s                67      2.545173   3 C  s         
   138     -2.343628   7 H  s                76     -1.841283   3 C  pz        
    42     -1.692346   2 C  pz               83     -1.649821   3 C  d -1      
    98     -1.581104   4 C  s               115     -1.443359   4 C  d  0      
    36     -1.382177   2 C  s               132      1.337767   6 H  s         
 
 Vector   57  Occ=0.000000D+00  E= 9.913545D-01
              MO Center=  3.6D-01,  4.5D-01, -1.4D-01, r^2= 4.1D+00
   Bfn.  Coefficient  Atom+Function         Bfn.  Coefficient  Atom+Function  
  ----- ------------  ---------------      ----- ------------  ---------------
    36      7.636681   2 C  s                98     -4.579668   4 C  s         
    67     -4.295681   3 C  s                45     -3.588595   2 C  pz        
    43     -2.513739   2 C  px               44      2.313299   2 C  py        
    66     -1.697629   3 C  s                75      1.575932   3 C  py        
   127      1.570562   5 H  s               126      1.329936   5 H  s         
 
 Vector   58  Occ=0.000000D+00  E= 1.011753D+00
              MO Center=  3.8D-01,  5.5D-01, -5.2D-02, r^2= 4.3D+00
   Bfn.  Coefficient  Atom+Function         Bfn.  Coefficient  Atom+Function  
  ----- ------------  ---------------      ----- ------------  ---------------
    36      5.290965   2 C  s                67     -4.489131   3 C  s         
    45     -1.944166   2 C  pz               44      1.833687   2 C  py        
    98     -1.478005   4 C  s               156     -1.444638  10 H  s         
   144      1.400130   8 H  s                43     -1.362494   2 C  px        
    82      1.340114   3 C  d -2             74     -1.312491   3 C  px        
 
 Vector   59  Occ=0.000000D+00  E= 1.040017D+00
              MO Center=  6.9D-01, -1.6D-01, -4.5D-01, r^2= 4.2D+00
   Bfn.  Coefficient  Atom+Function         Bfn.  Coefficient  Atom+Function  
  ----- ------------  ---------------      ----- ------------  ---------------
    36      2.899735   2 C  s                35      2.791491   2 C  s         
    66     -2.311574   3 C  s               150      1.971462   9 H  s         
     5     -1.911850   1 O  s               144     -1.833066   8 H  s         
   117      1.695769   4 C  d  2             41      1.528237   2 C  py        
    67     -1.452171   3 C  s                44      1.405471   2 C  py        
 
 Vector   60  Occ=0.000000D+00  E= 1.079360D+00
              MO Center=  6.6D-01,  4.7D-02, -5.1D-02, r^2= 4.1D+00
   Bfn.  Coefficient  Atom+Function         Bfn.  Coefficient  Atom+Function  
  ----- ------------  ---------------      ----- ------------  ---------------
    66      4.294350   3 C  s                98     -4.256483   4 C  s         
    36      3.900494   2 C  s                45     -3.855639   2 C  pz        
    97     -3.561665   4 C  s                41     -2.713369   2 C  py        
    72     -2.511418   3 C  py              104     -2.437282   4 C  pz        
    42     -2.288245   2 C  pz               40      2.273195   2 C  px        
 
 Vector   61  Occ=0.000000D+00  E= 1.105135D+00
              MO Center=  3.7D-01,  5.8D-02,  5.6D-02, r^2= 3.7D+00
   Bfn.  Coefficient  Atom+Function         Bfn.  Coefficient  Atom+Function  
  ----- ------------  ---------------      ----- ------------  ---------------
    36      7.325426   2 C  s                67     -5.226960   3 C  s         
    98     -2.743891   4 C  s                66      2.070756   3 C  s         
   126     -1.998873   5 H  s                45     -1.762591   2 C  pz        
   132      1.636401   6 H  s                72     -1.554066   3 C  py        
    41     -1.425096   2 C  py               53      1.331646   2 C  d  0      
 
 Vector   62  Occ=0.000000D+00  E= 1.147021D+00
              MO Center=  6.2D-01,  9.1D-03, -2.8D-02, r^2= 3.6D+00
   Bfn.  Coefficient  Atom+Function         Bfn.  Coefficient  Atom+Function  
  ----- ------------  ---------------      ----- ------------  ---------------
    67      5.160270   3 C  s                36     -3.932107   2 C  s         
    44     -2.417392   2 C  py              126      1.851175   5 H  s         
    97     -1.772776   4 C  s                54      1.596044   2 C  d  1      
    43      1.569603   2 C  px               55      1.459680   2 C  d  2      
    75     -1.462928   3 C  py               42     -1.423444   2 C  pz        
 
 Vector   63  Occ=0.000000D+00  E= 1.214758D+00
              MO Center=  5.5D-01,  2.1D-01, -1.3D-01, r^2= 3.8D+00
   Bfn.  Coefficient  Atom+Function         Bfn.  Coefficient  Atom+Function  
  ----- ------------  ---------------      ----- ------------  ---------------
    36      6.842180   2 C  s                66     -5.173071   3 C  s         
    67     -3.341862   3 C  s                97     -3.231822   4 C  s         
    35      3.174445   2 C  s                72      1.986849   3 C  py        
    51     -1.774424   2 C  d -2             52      1.673115   2 C  d -1      
   138      1.657306   7 H  s                41      1.605264   2 C  py        
 
 Vector   64  Occ=0.000000D+00  E= 1.347673D+00
              MO Center=  3.3D-01,  5.5D-01,  2.3D-01, r^2= 3.6D+00
   Bfn.  Coefficient  Atom+Function         Bfn.  Coefficient  Atom+Function  
  ----- ------------  ---------------      ----- ------------  ---------------
    66      4.753296   3 C  s                35      3.847464   2 C  s         
    67     -3.218578   3 C  s                36     -2.585798   2 C  s         
    65     -2.436334   3 C  s               132     -2.027006   6 H  s         
   133      1.449622   6 H  s                34     -1.415752   2 C  s         
    72      1.346754   3 C  py              139      1.084872   7 H  s         
 
 Vector   65  Occ=0.000000D+00  E= 1.415610D+00
              MO Center=  1.7D-01,  5.0D-01, -1.9D-02, r^2= 3.4D+00
   Bfn.  Coefficient  Atom+Function         Bfn.  Coefficient  Atom+Function  
  ----- ------------  ---------------      ----- ------------  ---------------
    36      4.539740   2 C  s                35     -4.047140   2 C  s         
    66      3.950792   3 C  s                67     -3.947013   3 C  s         
    73     -2.310376   3 C  pz              138     -2.234622   7 H  s         
   139      2.182256   7 H  s               126      1.854534   5 H  s         
    34      1.638542   2 C  s                76      1.637024   3 C  pz        
 
 Vector   66  Occ=0.000000D+00  E= 1.431937D+00
              MO Center=  1.0D+00, -4.4D-01, -1.1D+00, r^2= 3.6D+00
   Bfn.  Coefficient  Atom+Function         Bfn.  Coefficient  Atom+Function  
  ----- ------------  ---------------      ----- ------------  ---------------
    98      9.918705   4 C  s                97     -7.502116   4 C  s         
    96      3.018830   4 C  s                36     -2.456578   2 C  s         
   145     -2.357990   8 H  s               151     -2.217406   9 H  s         
   157     -2.123699  10 H  s               144      1.707249   8 H  s         
   150      1.571574   9 H  s               104      1.464849   4 C  pz        
 
 Vector   67  Occ=0.000000D+00  E= 1.442687D+00
              MO Center=  4.8D-01, -4.4D-04, -4.1D-01, r^2= 4.1D+00
   Bfn.  Coefficient  Atom+Function         Bfn.  Coefficient  Atom+Function  
  ----- ------------  ---------------      ----- ------------  ---------------
    66      3.920255   3 C  s                67     -2.710903   3 C  s         
    35     -2.525281   2 C  s                36      2.210686   2 C  s         
    98      1.723228   4 C  s               133      1.680579   6 H  s         
    76     -1.537306   3 C  pz               65     -1.355619   3 C  s         
    45      1.306453   2 C  pz              132     -1.298139   6 H  s         
 
 Vector   68  Occ=0.000000D+00  E= 1.447482D+00
              MO Center=  3.2D-01, -5.9D-02, -2.5D-02, r^2= 3.3D+00
   Bfn.  Coefficient  Atom+Function         Bfn.  Coefficient  Atom+Function  
  ----- ------------  ---------------      ----- ------------  ---------------
    98      6.196043   4 C  s                97     -3.425232   4 C  s         
    45      2.458732   2 C  pz               36     -2.242560   2 C  s         
    35     -2.183873   2 C  s                 5      1.779606   1 O  s         
   127     -1.632730   5 H  s                96      1.450317   4 C  s         
    76     -1.387401   3 C  pz              151     -1.174769   9 H  s         
 
 Vector   69  Occ=0.000000D+00  E= 1.473757D+00
              MO Center=  8.0D-01, -1.9D-01, -8.2D-01, r^2= 3.9D+00
   Bfn.  Coefficient  Atom+Function         Bfn.  Coefficient  Atom+Function  
  ----- ------------  ---------------      ----- ------------  ---------------
    66      2.899351   3 C  s                67     -1.656512   3 C  s         
     5     -1.352784   1 O  s               133      1.189470   6 H  s         
    65     -1.177163   3 C  s                36      1.165074   2 C  s         
   132     -1.040384   6 H  s                71     -0.939102   3 C  px        
    97      0.788418   4 C  s                76     -0.766710   3 C  pz        
 
 Vector   70  Occ=0.000000D+00  E= 1.479462D+00
              MO Center=  9.8D-01, -3.9D-01, -1.0D+00, r^2= 3.3D+00
   Bfn.  Coefficient  Atom+Function         Bfn.  Coefficient  Atom+Function  
  ----- ------------  ---------------      ----- ------------  ---------------
    36      3.122601   2 C  s               156     -2.753120  10 H  s         
   157      2.092795  10 H  s               102     -1.967691   4 C  px        
   103      1.853385   4 C  py              104     -1.747621   4 C  pz        
   126      1.739886   5 H  s                35     -1.398277   2 C  s         
   127     -1.399923   5 H  s                66     -1.312248   3 C  s         
 
 Vector   71  Occ=0.000000D+00  E= 1.514699D+00
              MO Center=  3.4D-01,  1.4D-01, -3.1D-01, r^2= 4.0D+00
   Bfn.  Coefficient  Atom+Function         Bfn.  Coefficient  Atom+Function  
  ----- ------------  ---------------      ----- ------------  ---------------
    98      2.668027   4 C  s               144      1.883279   8 H  s         
   102     -1.568820   4 C  px              103     -1.410067   4 C  py        
   145     -1.389941   8 H  s                45      1.307455   2 C  pz        
    36     -1.208861   2 C  s                97     -1.204392   4 C  s         
   150     -1.008763   9 H  s               106      0.801217   4 C  py        
 
 Vector   72  Occ=0.000000D+00  E= 1.544802D+00
              MO Center=  3.9D-01,  4.0D-01, -2.6D-01, r^2= 4.6D+00
   Bfn.  Coefficient  Atom+Function         Bfn.  Coefficient  Atom+Function  
  ----- ------------  ---------------      ----- ------------  ---------------
    36      4.579312   2 C  s                35     -3.869997   2 C  s         
    98     -3.596831   4 C  s                97      3.091329   4 C  s         
    67     -2.617659   3 C  s                73      2.112201   3 C  pz        
   132     -1.705228   6 H  s               102     -1.437236   4 C  px        
   138      1.378637   7 H  s                34      1.352675   2 C  s         
 
 Vector   73  Occ=0.000000D+00  E= 1.576424D+00
              MO Center=  4.8D-01,  1.7D-04, -4.5D-02, r^2= 3.3D+00
   Bfn.  Coefficient  Atom+Function         Bfn.  Coefficient  Atom+Function  
  ----- ------------  ---------------      ----- ------------  ---------------
    35      3.283393   2 C  s                36     -2.517822   2 C  s         
    40     -2.224396   2 C  px              126      1.895944   5 H  s         
    67      1.786824   3 C  s                72      1.653216   3 C  py        
    97     -1.533103   4 C  s                42     -1.380277   2 C  pz        
    34     -1.357619   2 C  s                66     -1.346422   3 C  s         
 
 Vector   74  Occ=0.000000D+00  E= 1.594509D+00
              MO Center=  3.3D-01,  4.1D-01, -1.4D-01, r^2= 3.4D+00
   Bfn.  Coefficient  Atom+Function         Bfn.  Coefficient  Atom+Function  
  ----- ------------  ---------------      ----- ------------  ---------------
    66     -5.409198   3 C  s                35      5.323986   2 C  s         
    36     -5.307865   2 C  s                67      3.952436   3 C  s         
    41      3.824736   2 C  py               71     -2.641309   3 C  px        
    72      2.504899   3 C  py               40     -2.090431   2 C  px        
    98      1.736255   4 C  s                82      1.718924   3 C  d -2      
 
 Vector   75  Occ=0.000000D+00  E= 1.641003D+00
              MO Center=  4.8D-01,  1.5D-01, -5.4D-02, r^2= 3.7D+00
   Bfn.  Coefficient  Atom+Function         Bfn.  Coefficient  Atom+Function  
  ----- ------------  ---------------      ----- ------------  ---------------
    66      2.818034   3 C  s                35      2.207421   2 C  s         
    98      2.035810   4 C  s                 5     -1.922922   1 O  s         
    97     -1.792347   4 C  s                67     -1.408851   3 C  s         
   144      1.207768   8 H  s               104     -1.162524   4 C  pz        
   103     -1.112164   4 C  py              150     -1.076297   9 H  s         
 
 Vector   76  Occ=0.000000D+00  E= 1.693883D+00
              MO Center=  4.9D-01,  2.5D-01, -3.9D-01, r^2= 3.8D+00
   Bfn.  Coefficient  Atom+Function         Bfn.  Coefficient  Atom+Function  
  ----- ------------  ---------------      ----- ------------  ---------------
    97     -5.471609   4 C  s                35      5.109367   2 C  s         
    42     -2.829729   2 C  pz              104     -2.789169   4 C  pz        
   102      1.737029   4 C  px               72     -1.616532   3 C  py        
    34     -1.594306   2 C  s                96      1.493627   4 C  s         
    40      1.454453   2 C  px               66     -1.382828   3 C  s         
 
 Vector   77  Occ=0.000000D+00  E= 1.699574D+00
              MO Center=  8.3D-03,  1.7D-01, -9.0D-02, r^2= 3.6D+00
   Bfn.  Coefficient  Atom+Function         Bfn.  Coefficient  Atom+Function  
  ----- ------------  ---------------      ----- ------------  ---------------
     5      3.775362   1 O  s                72      3.134214   3 C  py        
    36     -2.573404   2 C  s                66     -2.296528   3 C  s         
   138     -1.743359   7 H  s                12      1.464909   1 O  px        
    41      1.437340   2 C  py               43      1.230326   2 C  px        
    67      1.047837   3 C  s                44     -1.032230   2 C  py        
 
 Vector   78  Occ=0.000000D+00  E= 1.789627D+00
              MO Center=  4.0D-01,  2.6D-01,  1.2D-02, r^2= 3.5D+00
   Bfn.  Coefficient  Atom+Function         Bfn.  Coefficient  Atom+Function  
  ----- ------------  ---------------      ----- ------------  ---------------
    35      3.147967   2 C  s                97     -2.662361   4 C  s         
    36      1.824898   2 C  s                45     -1.367746   2 C  pz        
    72      1.172611   3 C  py               67     -1.114153   3 C  s         
   104     -1.056919   4 C  pz               42     -0.963540   2 C  pz        
   102      0.959070   4 C  px                5     -0.902797   1 O  s         
 
 Vector   79  Occ=0.000000D+00  E= 1.814112D+00
              MO Center= -6.1D-01,  2.0D-01,  1.8D-01, r^2= 2.6D+00
   Bfn.  Coefficient  Atom+Function         Bfn.  Coefficient  Atom+Function  
  ----- ------------  ---------------      ----- ------------  ---------------
    35      4.252164   2 C  s                 5     -3.273113   1 O  s         
    40     -2.518961   2 C  px               41      2.253457   2 C  py        
    72      2.110490   3 C  py               66     -2.011481   3 C  s         
    71     -1.761321   3 C  px               12     -1.357238   1 O  px        
   132     -1.047436   6 H  s               138     -1.047108   7 H  s         
 
 Vector   80  Occ=0.000000D+00  E= 1.843011D+00
              MO Center=  8.3D-02,  2.6D-01, -7.9D-02, r^2= 3.7D+00
   Bfn.  Coefficient  Atom+Function         Bfn.  Coefficient  Atom+Function  
  ----- ------------  ---------------      ----- ------------  ---------------
    35      1.654428   2 C  s                36     -1.159219   2 C  s         
   156     -0.968522  10 H  s               104     -0.828310   4 C  pz        
    41     -0.745749   2 C  py               66      0.714861   3 C  s         
    71     -0.694223   3 C  px              157      0.672449  10 H  s         
    67      0.661228   3 C  s                97     -0.659829   4 C  s         
 
 Vector   81  Occ=0.000000D+00  E= 1.867370D+00
              MO Center=  5.3D-01,  1.5D-01, -4.5D-01, r^2= 4.0D+00
   Bfn.  Coefficient  Atom+Function         Bfn.  Coefficient  Atom+Function  
  ----- ------------  ---------------      ----- ------------  ---------------
    35      6.504581   2 C  s                66     -4.409654   3 C  s         
    72      3.492441   3 C  py               97     -3.156979   4 C  s         
    36      2.200246   2 C  s               104     -1.804375   4 C  pz        
    67     -1.642626   3 C  s                34     -1.614302   2 C  s         
    41      1.562040   2 C  py               45     -1.388938   2 C  pz        
 
 Vector   82  Occ=0.000000D+00  E= 1.923040D+00
              MO Center=  3.2D-01, -1.5D-01, -3.1D-01, r^2= 3.2D+00
   Bfn.  Coefficient  Atom+Function         Bfn.  Coefficient  Atom+Function  
  ----- ------------  ---------------      ----- ------------  ---------------
    36      1.613900   2 C  s                98     -1.534622   4 C  s         
    45     -1.309728   2 C  pz              103     -1.195785   4 C  py        
    97     -1.030434   4 C  s                35      0.816685   2 C  s         
    66     -0.781697   3 C  s                41      0.753791   2 C  py        
    42     -0.719327   2 C  pz              150     -0.717034   9 H  s         
 
 Vector   83  Occ=0.000000D+00  E= 1.988854D+00
              MO Center=  7.9D-01, -2.1D-01, -9.2D-01, r^2= 3.4D+00
   Bfn.  Coefficient  Atom+Function         Bfn.  Coefficient  Atom+Function  
  ----- ------------  ---------------      ----- ------------  ---------------
    98     -4.572151   4 C  s                36      4.517340   2 C  s         
    35     -2.925881   2 C  s                45     -1.890709   2 C  pz        
    66      1.321474   3 C  s               107     -1.279491   4 C  pz        
   156      1.247830  10 H  s                67     -1.127123   3 C  s         
   104      1.094739   4 C  pz               34      1.043768   2 C  s         
 
 Vector   84  Occ=0.000000D+00  E= 1.991994D+00
              MO Center=  6.3D-01, -9.4D-02, -1.5D-01, r^2= 3.2D+00
   Bfn.  Coefficient  Atom+Function         Bfn.  Coefficient  Atom+Function  
  ----- ------------  ---------------      ----- ------------  ---------------
    35      2.585801   2 C  s                66     -2.484781   3 C  s         
    40     -2.380903   2 C  px               98      2.155977   4 C  s         
    67     -1.844079   3 C  s                72      1.809875   3 C  py        
    41      1.635613   2 C  py               43     -1.593271   2 C  px        
    71     -1.429686   3 C  px               44      1.275525   2 C  py        
 
 Vector   85  Occ=0.000000D+00  E= 2.090439D+00
              MO Center= -8.3D-02,  1.4D-01,  9.7D-03, r^2= 3.4D+00
   Bfn.  Coefficient  Atom+Function         Bfn.  Coefficient  Atom+Function  
  ----- ------------  ---------------      ----- ------------  ---------------
    36      3.863813   2 C  s                98     -2.384798   4 C  s         
    67     -2.021378   3 C  s                35     -1.343743   2 C  s         
    71      0.888590   3 C  px               66      0.864958   3 C  s         
    13      0.852362   1 O  py              138     -0.739010   7 H  s         
   156      0.654138  10 H  s               144      0.636214   8 H  s         
 
 Vector   86  Occ=0.000000D+00  E= 2.098589D+00
              MO Center= -3.0D-01,  6.6D-02,  1.3D-02, r^2= 3.1D+00
   Bfn.  Coefficient  Atom+Function         Bfn.  Coefficient  Atom+Function  
  ----- ------------  ---------------      ----- ------------  ---------------
    67     -5.344004   3 C  s                36      4.927666   2 C  s         
    66      3.283056   3 C  s                35     -3.135290   2 C  s         
    41     -3.070400   2 C  py               71      2.627308   3 C  px        
    13      1.697436   1 O  py               82     -1.397941   3 C  d -2      
    43     -1.298636   2 C  px               75      1.303643   3 C  py        
 
 Vector   87  Occ=0.000000D+00  E= 2.165327D+00
              MO Center=  4.9D-01, -4.7D-02, -4.7D-01, r^2= 3.3D+00
   Bfn.  Coefficient  Atom+Function         Bfn.  Coefficient  Atom+Function  
  ----- ------------  ---------------      ----- ------------  ---------------
    98      2.265670   4 C  s                67     -1.741996   3 C  s         
    35     -1.353624   2 C  s                73      1.014396   3 C  pz        
    40      0.868973   2 C  px               45      0.822721   2 C  pz        
   156     -0.783101  10 H  s                43     -0.767474   2 C  px        
    44      0.766638   2 C  py              144     -0.752563   8 H  s         
 
 Vector   88  Occ=0.000000D+00  E= 2.202900D+00
              MO Center=  5.3D-01,  1.1D-01, -4.2D-01, r^2= 3.7D+00
   Bfn.  Coefficient  Atom+Function         Bfn.  Coefficient  Atom+Function  
  ----- ------------  ---------------      ----- ------------  ---------------
    98      1.964162   4 C  s                45      0.958117   2 C  pz        
    76     -0.899561   3 C  pz               36     -0.884306   2 C  s         
   132      0.766965   6 H  s                42     -0.746304   2 C  pz        
   103     -0.708106   4 C  py               71      0.609859   3 C  px        
    97     -0.610415   4 C  s               117     -0.561360   4 C  d  2      
 
 Vector   89  Occ=0.000000D+00  E= 2.231205D+00
              MO Center=  6.8D-01, -3.5D-02, -1.5D-01, r^2= 3.5D+00
   Bfn.  Coefficient  Atom+Function         Bfn.  Coefficient  Atom+Function  
  ----- ------------  ---------------      ----- ------------  ---------------
    36      3.359704   2 C  s                67     -1.784708   3 C  s         
    98     -1.517024   4 C  s                 5     -1.104446   1 O  s         
    42     -0.905798   2 C  pz               45     -0.860619   2 C  pz        
    35     -0.809138   2 C  s                72     -0.803784   3 C  py        
    43     -0.797568   2 C  px              150      0.740085   9 H  s         
 
 Vector   90  Occ=0.000000D+00  E= 2.244326D+00
              MO Center=  6.6D-01, -1.4D-01, -6.3D-01, r^2= 3.7D+00
   Bfn.  Coefficient  Atom+Function         Bfn.  Coefficient  Atom+Function  
  ----- ------------  ---------------      ----- ------------  ---------------
    66      1.382039   3 C  s               150     -1.259933   9 H  s         
    72     -1.090130   3 C  py               98      0.991042   4 C  s         
    36     -0.919525   2 C  s               117     -0.810012   4 C  d  2      
   144      0.777458   8 H  s                41     -0.582809   2 C  py        
   138     -0.579912   7 H  s                83     -0.552478   3 C  d -1      
 
 Vector   91  Occ=0.000000D+00  E= 2.259081D+00
              MO Center=  9.8D-01, -3.6D-01, -1.2D+00, r^2= 2.9D+00
   Bfn.  Coefficient  Atom+Function         Bfn.  Coefficient  Atom+Function  
  ----- ------------  ---------------      ----- ------------  ---------------
    66      2.609565   3 C  s                36      1.951676   2 C  s         
    41     -1.662780   2 C  py               35     -1.455784   2 C  s         
    67     -1.443105   3 C  s                72     -1.214222   3 C  py        
    98     -1.017647   4 C  s                71      1.001459   3 C  px        
   156      0.933559  10 H  s               126     -0.858019   5 H  s         
 
 Vector   92  Occ=0.000000D+00  E= 2.284706D+00
              MO Center=  4.3D-01,  2.4D-01, -1.7D-01, r^2= 3.5D+00
   Bfn.  Coefficient  Atom+Function         Bfn.  Coefficient  Atom+Function  
  ----- ------------  ---------------      ----- ------------  ---------------
    98      3.556589   4 C  s                36     -2.520983   2 C  s         
[...]
    21     -0.867355   1 O  d -1             42     -0.813070   2 C  pz        
    97     -0.730594   4 C  s                45     -0.688171   2 C  pz        
    67     -0.545412   3 C  s                 5     -0.498125   1 O  s         
    98     -0.498758   4 C  s               102      0.497774   4 C  px        
 
 Vector  154  Occ=0.000000D+00  E= 6.677476D+00
              MO Center= -8.7D-01, -1.8D-01,  2.0D-01, r^2= 5.7D-01
   Bfn.  Coefficient  Atom+Function         Bfn.  Coefficient  Atom+Function  
  ----- ------------  ---------------      ----- ------------  ---------------
    18      1.057828   1 O  d  1             23     -1.036728   1 O  d  1      
    97     -0.823513   4 C  s                42     -0.758904   2 C  pz        
    35      0.730580   2 C  s               102      0.627626   4 C  px        
    54     -0.544758   2 C  d  1             14      0.404553   1 O  pz        
    16     -0.403847   1 O  d -1             11      0.393888   1 O  pz        
 
 Vector  155  Occ=0.000000D+00  E= 6.842635D+00
              MO Center= -8.8D-01, -1.9D-01,  2.0D-01, r^2= 5.9D-01
   Bfn.  Coefficient  Atom+Function         Bfn.  Coefficient  Atom+Function  
  ----- ------------  ---------------      ----- ------------  ---------------
     5      2.102265   1 O  s                40      1.763529   2 C  px        
     9      1.361171   1 O  px               97     -1.234319   4 C  s         
     4      1.206792   1 O  s                20      1.052962   1 O  d -2      
    42     -0.948402   2 C  pz               35     -0.934416   2 C  s         
    12      0.844018   1 O  px               15     -0.834864   1 O  d -2      
 
 Vector  156  Occ=0.000000D+00  E= 7.054288D+00
              MO Center= -8.9D-01, -1.8D-01,  2.0D-01, r^2= 6.4D-01
   Bfn.  Coefficient  Atom+Function         Bfn.  Coefficient  Atom+Function  
  ----- ------------  ---------------      ----- ------------  ---------------
    66     -3.166070   3 C  s                35      3.023707   2 C  s         
    40     -2.721271   2 C  px               72      2.676630   3 C  py        
    24     -1.579261   1 O  d  2             36      1.470305   2 C  s         
    67     -1.314892   3 C  s                10      1.282040   1 O  py        
    19      1.016394   1 O  d  2             13      0.869482   1 O  py        
 
 Vector  157  Occ=0.000000D+00  E= 2.194426D+01
              MO Center=  1.6D-01,  6.8D-01, -4.1D-02, r^2= 1.5D+00
   Bfn.  Coefficient  Atom+Function         Bfn.  Coefficient  Atom+Function  
  ----- ------------  ---------------      ----- ------------  ---------------
    64      1.518728   3 C  s                65     -1.278933   3 C  s         
    67     -1.220605   3 C  s                63     -1.196704   3 C  s         
    98      1.191611   4 C  s                95     -0.867341   4 C  s         
    96      0.732060   4 C  s                35      0.694161   2 C  s         
    94      0.685842   4 C  s                40     -0.492641   2 C  px        
 
 Vector  158  Occ=0.000000D+00  E= 2.198114D+01
              MO Center=  8.6D-01, -2.0D-01, -7.1D-01, r^2= 1.3D+00
   Bfn.  Coefficient  Atom+Function         Bfn.  Coefficient  Atom+Function  
  ----- ------------  ---------------      ----- ------------  ---------------
    95      1.426066   4 C  s                96     -1.317184   4 C  s         
    98     -1.175553   4 C  s                94     -1.122227   4 C  s         
    34     -0.877956   2 C  s                33      0.791646   2 C  s         
    36     -0.764420   2 C  s                65     -0.729605   3 C  s         
    64      0.699559   3 C  s                32     -0.617994   2 C  s         
 
 Vector  159  Occ=0.000000D+00  E= 2.210370D+01
              MO Center=  5.6D-01, -6.6D-02,  8.0D-03, r^2= 6.4D-01
   Bfn.  Coefficient  Atom+Function         Bfn.  Coefficient  Atom+Function  
  ----- ------------  ---------------      ----- ------------  ---------------
    36      2.238466   2 C  s                33     -1.578558   2 C  s         
    34      1.563635   2 C  s                35     -1.326143   2 C  s         
    67     -1.270395   3 C  s                32      1.235910   2 C  s         
    98     -1.152961   4 C  s                97      0.731586   4 C  s         
    95      0.582176   4 C  s                64      0.575641   3 C  s         
 
 Vector  160  Occ=0.000000D+00  E= 4.341658D+01
              MO Center= -8.8D-01, -1.8D-01,  2.0D-01, r^2= 1.2D-01
   Bfn.  Coefficient  Atom+Function         Bfn.  Coefficient  Atom+Function  
  ----- ------------  ---------------      ----- ------------  ---------------
     4      2.516659   1 O  s                 3     -1.876872   1 O  s         
     2      1.731699   1 O  s                 1     -1.395869   1 O  s         
     5     -0.876064   1 O  s                36      0.828558   2 C  s         
     9      0.566778   1 O  px               66     -0.518770   3 C  s         
    40      0.469855   2 C  px               72      0.457944   3 C  py        
 

 center of mass
 --------------
 x =   0.30619362 y =   0.09486503 z =  -0.27792445

 moments of inertia (a.u.)
 ------------------
         199.797004989615          45.641828784942          83.728158741571
          45.641828784942         247.968311591370         -52.598924433024
          83.728158741571         -52.598924433024         238.705320997475
 
     Multipole analysis of the density
     ---------------------------------
 
     L   x y z        total         alpha         beta         nuclear
     -   - - -        -----         -----         ----         -------
     0   0 0 0     -0.000000    -16.000000    -16.000000     32.000000
 
     1   1 0 0      0.681766     -6.227051     -6.227051     13.135869
     1   0 1 0      0.328414     -1.614141     -1.614141      3.556697
     1   0 0 1     -0.050218      5.323760      5.323760    -10.697739
 
     2   2 0 0    -20.025118    -54.345914    -54.345914     88.666710
     2   1 1 0     -1.085831     13.882242     13.882242    -28.850315
     2   1 0 1      0.196607     26.444352     26.444352    -52.692096
     2   0 2 0    -17.824850    -40.394903    -40.394903     62.964956
     2   0 1 1      0.228189    -15.366430    -15.366430     30.961049
     2   0 0 2    -18.270514    -45.710319    -45.710319     73.150125
 
 *** CALLING NEW AORESP DRIVER FOR CLOSED AND OPEN SHELLS ***
 Entering AOResponse driver routine


--------------------------------------------------------------------------------

          ****************
          *** RESPONSE ***
          ****************

 Response module for NWChem and dynamic CPKS solver
 developed by J. Autschbach and coworkers, SUNY Buffalo
 The methodology used in this program is described in 
 ChemPhysChem 12 (2011), 3224-3235 (main reference)
 J. Chem. Phys. 123 (2005), 114103
 J. Chem. Phys. 122 (2005), 224115
 J. Chem. Phys. 122 (2005), 074105
 Comp. Lett. 3 (2007), 131-150 (contact JA for a copy)
 Please cite this work in publications based on results
 obtained with this code. Thank you!

 For extension of response module to open shell
 calculations please acknowledge:
 F. Aquino, Northwestern University, Schatz Rsrch Group
 The update to the methodology is described in
 J. Phys. Chem. A 118 (2014) 517-525



          -----------------------------------------------
          Solving response equations for perturbing field
          -----------------------------------------------

 number of frequencies:     1
 frequency in a.u.:  0.9319600E-01
 Perturbing field: electric
 Using GIAO formalism for OptRot
 Adding quadrupole terms to OptRot
 to create an origin in dependent tensor.
 Using El. Dipole Length Gauge
 
 Applying DAMPING constant of  0.003700 a.u.
 
 Setting up CPKS
 with frequency omega =      0.09319600 a.u.
 and a damping of            0.00370000 a.u.

 
                            NWChem Dynamic CPHF Module
                            --------------------------
 
 
    scftype = RHF 
    nclosed =   16
      nopen =    0
  variables =     9216
  num. vecs =        3
  tolerance =   1.0D-07
  max. iter =  100

 SCF residual:   3.513202209299909E-006


Iterative solution of linear equations
  No. of variables     4608
  No. of equations        3
  Maximum subspace       99
       Convergence  1.0D-07
        Start time     95.0


   iter   nsub   residual    time 
   ----  ------  --------  --------- 
 dft_CPHF2_read: failed to open
 ./methyloxirane_blyp-def2-tzvp_488.9_15.inp.aoresp_fiao_f1
     1      3    3.81D+00     145.7
     2      6    2.67D+00     196.4
     3      9    2.47D-01     246.8
     4     12    5.05D-02     297.3
     5     15    1.05D-02     347.9
     6     18    1.32D-03     398.5
     7     21    1.45D-04     449.2
     8     24    1.35D-05     499.8
     9     27    1.24D-06     550.5
    10     30    4.85D-07     601.1
    11     33    1.86D-08     651.7

 Calculating some arrays needed for GIAO optical rotation

    0 giaofock schwarz done =      93.10%
    0 giaofock schwarz done =      93.10%
 aor_r1_tensor_giao: roadata output requested
 dip-quad polarizability Re:

              1        2        3        4        5        6      
    1   77.4594  -6.3015 -27.4274  -4.3581   1.1215   9.0665
    2  -11.7250  25.7036   3.2198  22.9620 -21.6663   4.1455
    3   -6.3673   1.0343  39.4310  -0.1565  13.8730 -41.3102
 traceless dip-quad polarizability:

              1        2        3      
    1   75.1052  -9.4523 -41.1411
    2   -9.4523 -47.6211   1.6822
    3  -41.1411   1.6822 -27.4842

              1        2        3      
    1  -25.2788  38.5555   4.8296
    2   38.5555  26.7518 -32.4994
    3    4.8296 -32.4994  -1.4730

              1        2        3      
    1   14.3660   1.5514  59.1465
    2    1.5514  23.6822  20.8095
    3   59.1465  20.8095 -38.0483

 roa begin

 alpha real:
 XX       0.4097230670629E+02
 XY      -0.5164483830919E+01
 XZ      -0.2947160606685E+01
 YX      -0.5164483844307E+01
 YY       0.4390124367143E+02
 YZ       0.3112731231958E+01
 ZX      -0.2947160617332E+01
 ZY       0.3112731226023E+01
 ZZ       0.4147912502109E+02

 alpha im:
 XX       0.1104793119440E+00
 XY      -0.2954831253948E-01
 XZ      -0.1047547259964E-01
 YX      -0.2954830820270E-01
 YY       0.1277278153866E+00
 YZ       0.1775707652558E-01
 ZX      -0.1047546823909E-01
 ZY       0.1775707703566E-01
 ZZ       0.1228914324537E+00

 beta real:
 XX      -0.1409180971843E+00
 XY       0.9431978471651E+00
 XZ       0.1961126569419E+00
 YX      -0.8945326152823E+00
 YY       0.1447870625101E+00
 YZ      -0.1548195996342E+01
 ZX      -0.4823091747785E+00
 ZY       0.1877318893921E+01
 ZZ      -0.3609295957938E-02

 G-prime = -omega beta(real):
 XX      -0.1409180971843E+00
 XY       0.9431978471651E+00
 XZ       0.1961126569419E+00
 YX      -0.8945326152823E+00
 YY       0.1447870625101E+00
 YZ      -0.1548195996342E+01
 ZX      -0.4823091747785E+00
 ZY       0.1877318893921E+01
 ZZ      -0.3609295957938E-02

 beta im:
 XX      -0.6046930148450E-02
 XY       0.1344779582169E-01
 XZ       0.2625554115382E-02
 YX      -0.7804131442195E-02
 YY       0.4765920767911E-02
 YZ      -0.2346417691047E-01
 ZX      -0.1372086318164E-01
 ZY       0.4020840623978E-01
 ZZ       0.6744324699359E-03

 G-prime = -omega beta(imag):
 XX      -0.6046930148450E-02
 XY       0.1344779582169E-01
 XZ       0.2625554115382E-02
 YX      -0.7804131442195E-02
 YY       0.4765920767911E-02
 YZ      -0.2346417691047E-01
 ZX      -0.1372086318164E-01
 ZY       0.4020840623978E-01
 ZZ       0.6744324699359E-03

 dipole-quadrupole real (Cartesian):
 XXX      0.7745944537710E+02
 XXY     -0.6301538088855E+01
 XXZ     -0.2742739848884E+02
 XYY     -0.4358101127497E+01
 XYZ      0.1121496342489E+01
 XZZ      0.9066506465332E+01
 YXX     -0.1172502079037E+02
 YXY      0.2570363813571E+02
 YXZ      0.3219758095066E+01
 YYY      0.2296201307934E+02
 YYZ     -0.2166627162642E+02
 YZZ      0.4145453602531E+01
 ZXX     -0.6367344490996E+01
 ZXY      0.1034283694613E+01
 ZXZ      0.3943098352175E+02
 ZYY     -0.1565442297937E+00
 ZYZ      0.1387299741815E+02
 ZZZ     -0.4131023788158E+02

 dipole-quadrupole imag (Cartesian):
 XXX      0.2701930724267E+00
 XXY     -0.3556459760815E-01
 XXZ     -0.7478397754827E-01
 XYY     -0.2671212367066E-01
 XYZ      0.1824730727028E-02
 XZZ      0.6046126227142E-01
 YXX     -0.5703248321084E-01
 YXY      0.6236689848031E-01
 YXZ      0.1817984885396E-01
 YYY      0.9076968499249E-01
 YYZ     -0.6012481141378E-01
 YZZ      0.1044911655439E-01
 ZXX     -0.3205594545669E-01
 ZXY     -0.7699841856007E-03
 ZXZ      0.1471450661546E+00
 ZYY      0.5316136743575E-02
 ZYZ      0.6533867518036E-01
 ZZZ     -0.9724228876967E-01

 dipole-quadrupole (traceless):
 XXX      0.7510524270818E+02
 XXY     -0.9452307133282E+01
 XXZ     -0.4114109773325E+02
 XYY     -0.4762107704871E+02
 XYZ      0.1682244513733E+01
 XZZ     -0.2748416565947E+02
 YXX     -0.2527875413131E+02
 YXY      0.3855545720356E+02
 YXZ      0.4829637142599E+01
 YYY      0.2675179667326E+02
 YYZ     -0.3249940743963E+02
 YZZ     -0.1473042541952E+01
 ZXX      0.1436604656469E+02
 ZXY      0.1551425541919E+01
 ZXZ      0.5914647528262E+02
 ZYY      0.2368224695649E+02
 ZYZ      0.2080949612722E+02
 ZZZ     -0.3804829352118E+02

 roa end


 Electric Dipole Response Matrix (nonzero elements):

              1        2        3      
    1   40.9723  -5.1645  -2.9472
    2   -5.1645  43.9012   3.1127
    3   -2.9472   3.1127  41.4791
 
 Imaginary part:

              1        2        3      
    1    0.1105  -0.0295  -0.0105
    2   -0.0295   0.1277   0.0178
    3   -0.0105   0.0178   0.1229

 ------------------------------------------
 average:        42.11756 + I       0.12037


 DFT Linear Response polarizability / au 
 Frequency  =       0.0931960 / au
 Wavelength =     488.8981609 / nm
              X              Y              Z
 -----------------------------------------------
 X      40.9723067     -5.1644838     -2.9471606
 Y      -5.1644838     43.9012437      3.1127312
 Z      -2.9471606      3.1127312     41.4791250
 -----------------------------------------------
 Eigenvalues =      36.9887280     49.9515500     39.4123974
 Isotropic   =      42.1175585
 Anisotropic =       9.7464979
 -----------------------------------------------
 *************************

 DFT Linear Response IMAG polarizability / au 
 Frequency  =       0.0931960 / au
 Wavelength =     488.8981609 / nm
              X              Y              Z
 -----------------------------------------------
 X       0.1104793     -0.0295483     -0.0104755
 Y      -0.0295483      0.1277278      0.0177571
 Z      -0.0104755      0.0177571      0.1228914
 -----------------------------------------------
 Eigenvalues =       0.0881377      0.1609407      0.1120201
 Isotropic   =       0.1203662
 Anisotropic =       0.0524845
 -----------------------------------------------
 *************************

 Magnetic Dipole Response Matrix (nonzero elements):
 Optical rotation tensor Beta
 (Buckingham-Dunn version including dipole-quadrupole terms)

              1        2        3      
    1    2.6048  -0.3735   0.4594
    2   -0.3735  -1.5972  -1.6901
    3    0.4594  -1.6901  -1.0104
 
 Imaginary part:

              1        2        3      
    1    0.0649  -0.1443  -0.0282
    2    0.0837  -0.0511   0.2518
    3    0.1472  -0.4314  -0.0072

 ------------------------------------------
 average:        -0.00093 + I       0.00217

 Principal components and PAS (Real part)
                 -3.01916
                  2.75442
                  0.26196
 ------------------------
 average:        -0.00093

              1        2        3      
    1   -0.0018   0.9695  -0.2450
    2    0.7650  -0.1564  -0.6248
    3    0.6440   0.1885   0.7414

 Chiral response tensor (Real part):

              1        2        3      
    1   -1.3038   0.1868  -0.2297
    2    0.1868   0.7972   0.8450
    3   -0.2297   0.8450   0.5038
 
 Principal components and PAS (Real part)
                  1.50819
                 -1.37860
                 -0.13237
 ------------------------
 average:        -0.00093

              1        2        3      
    1   -0.0018   0.9695  -0.2450
    2    0.7650  -0.1564  -0.6248
    3    0.6440   0.1885   0.7414
 Exiting AOResponse driver routine

 Task  times  cpu:      626.0s     wall:      644.1s
 
 
                                NWChem Input Module
                                -------------------
 
 
 Summary of allocated global arrays
-----------------------------------
  No active global arrays



                         GA Statistics for process    0
                         ------------------------------

       create   destroy   get      put      acc     scatter   gather  read&inc
calls: 3294     3294     7.64e+06 3.14e+06 7.79e+05 2694        0     1202     
number of processes/call 1.01e+00 1.03e+00 1.44e+00 0.00e+00 0.00e+00
bytes total:             1.82e+09 1.26e+08 1.85e+09 1.84e+02 0.00e+00 9.62e+03
bytes remote:            7.93e+08 3.29e+07 1.09e+09 0.00e+00 0.00e+00 0.00e+00
Max memory consumed for GA by this process: 11242192 bytes
 
MA_summarize_allocated_blocks: starting scan ...
MA_summarize_allocated_blocks: scan completed: 0 heap blocks, 0 stack blocks
MA usage statistics:

	allocation statistics:
					      heap	     stack
					      ----	     -----
	current number of blocks	         0	         0
	maximum number of blocks	        24	        52
	current total bytes		         0	         0
	maximum total bytes		   7519840	  48868408
	maximum total K-bytes		      7520	     48869
	maximum total M-bytes		         8	        49
 
 
                                     CITATION
                                     --------
                Please cite the following reference when publishing
                           results obtained with NWChem:
 
                 M. Valiev, E.J. Bylaska, N. Govind, K. Kowalski,
              T.P. Straatsma, H.J.J. van Dam, D. Wang, J. Nieplocha,
                        E. Apra, T.L. Windus, W.A. de Jong
                 "NWChem: a comprehensive and scalable open-source
                  solution for large scale molecular simulations"
                      Comput. Phys. Commun. 181, 1477 (2010)
                           doi:10.1016/j.cpc.2010.04.018
 
                                      AUTHORS
                                      -------
          E. Apra, E. J. Bylaska, W. A. de Jong, N. Govind, K. Kowalski,
       T. P. Straatsma, M. Valiev, H. J. J. van Dam, D. Wang, T. L. Windus,
        J. Hammond, J. Autschbach, K. Bhaskaran-Nair, J. Brabec, K. Lopata,
    S. A. Fischer, S. Krishnamoorthy, M. Jacquelin, W. Ma, M. Klemm, O. Villa,
      Y. Chen, V. Anisimov, F. Aquino, S. Hirata, M. T. Hackler, V. Konjkov,
            D. Mejia-Rodriguez, T. Risthaus, M. Malagoli, A. Marenich,
   A. Otero-de-la-Roza, J. Mullin, P. Nichols, R. Peverati, J. Pittner, Y. Zhao,
        P.-D. Fan, A. Fonari, M. J. Williamson, R. J. Harrison, J. R. Rehr,
      M. Dupuis, D. Silverstein, D. M. A. Smith, J. Nieplocha, V. Tipparaju,
    M. Krishnan, B. E. Van Kuiken, A. Vazquez-Mayagoitia, L. Jensen, M. Swart,
      Q. Wu, T. Van Voorhis, A. A. Auer, M. Nooijen, L. D. Crosby, E. Brown,
      G. Cisneros, G. I. Fann, H. Fruchtl, J. Garza, K. Hirao, R. A. Kendall,
      J. A. Nichols, K. Tsemekhman, K. Wolinski, J. Anchell, D. E. Bernholdt,
      P. Borowski, T. Clark, D. Clerc, H. Dachsel, M. J. O. Deegan, K. Dyall,
    D. Elwood, E. Glendening, M. Gutowski, A. C. Hess, J. Jaffe, B. G. Johnson,
     J. Ju, R. Kobayashi, R. Kutteh, Z. Lin, R. Littlefield, X. Long, B. Meng,
      T. Nakajima, S. Niu, L. Pollack, M. Rosing, K. Glaesemann, G. Sandrone,
      M. Stave, H. Taylor, G. Thomas, J. H. van Lenthe, A. T. Wong, Z. Zhang.

 Total times  cpu:      700.3s     wall:      719.8s
