 argument  1 = methyloxirane_blyp-def2-tzvp_488.9_28.inp
 


============================== echo of input deck ==============================
echo
start methyloxirane_blyp-def2-tzvp_488.9_28.inp
title "methyloxirane roa calculations at 488.9 nm, input generated in va  with delta_type=2"
charge 0



geometry units angstrom nocenter noautoz noautosym nucleus point;symmetry c1
 O -0.873484 -0.187666  0.203226
 C  0.564093 -0.157927  0.118946
 C -0.178618  1.095476  0.339841
 C  1.180614 -0.518657 -1.206886
 H  1.059717 -0.597359  0.992841
 H -0.217891  1.536178  1.338720
 H -0.331915  1.788938 -0.490530
 H  2.236654 -0.212045 -1.225566
 H  1.143643 -1.605175 -1.366175
 H  0.656991 -0.028711 -2.037154
end

basis spherical
* library def2-TZVP
end

 set prop:newaoresp 1
 set aor:roadata T
 set cphf:maxsub 100
 set cphf:acc 1.0d-10
 set cphf:maxiter 100

property
    response 1   0.093196
    bdtensor
    convergence 1e-7
    damping 0.0037
    giao
end

dft
 direct
 mult 1
 xc becke88 lyp
 iterations 250
 tolerances tight
 grid xfine
 convergence nolevelshifting
 convergence energy 1e-8
 convergence gradient 1e-7


end

task dft gradient
task dft property
================================================================================


                                         
                                         
 
 
              Northwest Computational Chemistry Package (NWChem) 6.8
              ------------------------------------------------------
 
 
                    Environmental Molecular Sciences Laboratory
                       Pacific Northwest National Laboratory
                                Richland, WA 99352
 
                              Copyright (c) 1994-2017
                       Pacific Northwest National Laboratory
                            Battelle Memorial Institute
 
             NWChem is an open-source computational chemistry package
                        distributed under the terms of the
                      Educational Community License (ECL) 2.0
             A copy of the license is included with this distribution
                              in the LICENSE.TXT file
 
                                  ACKNOWLEDGMENT
                                  --------------

            This software and its documentation were developed at the
            EMSL at Pacific Northwest National Laboratory, a multiprogram
            national laboratory, operated for the U.S. Department of Energy
            by Battelle under Contract Number DE-AC05-76RL01830. Support
            for this work was provided by the Department of Energy Office
            of Biological and Environmental Research, Office of Basic
            Energy Sciences, and the Office of Advanced Scientific Computing.


           Job information
           ---------------

    hostname        = cpn-f11-17-01.cbls.ccr.buffalo.edu
    program         = /util/academic/nwchem/nwchem-6.8/bin/LINUX64/nwchem
    date            = Fri Mar  1 10:25:28 2019

    compiled        = Tue_Nov_06_14:59:08_2018
    source          = /util/academic/nwchem/nwchem-6.8
    nwchem branch   = 6.8
    nwchem revision = v6.8-47-gdf6c956
    ga revision     = ga-5.6.3
    use scalapack   = F
    input           = methyloxirane_blyp-def2-tzvp_488.9_28.inp
    prefix          = methyloxirane_blyp-def2-tzvp_488.9_28.inp.
    data base       = ./methyloxirane_blyp-def2-tzvp_488.9_28.inp.db
    status          = startup
    nproc           =        7
    time left       =     -1s



           Memory information
           ------------------

    heap     =   13107196 doubles =    100.0 Mbytes
    stack    =   13107201 doubles =    100.0 Mbytes
    global   =   26214400 doubles =    200.0 Mbytes (distinct from heap & stack)
    total    =   52428797 doubles =    400.0 Mbytes
    verify   = yes
    hardfail = no 


           Directory information
           ---------------------
 
  0 permanent = .
  0 scratch   = .
 
 
 
 
                                NWChem Input Module
                                -------------------
 
 
                    methyloxirane roa calculations at 488.9 nm, input generated in va  with delta_type=2
                    ------------------------------------------

 Scaling coordinates for geometry "geometry" by  1.889725989
 (inverse scale =  0.529177249)

 
 
                             Geometry "geometry" -> ""
                             -------------------------
 
 Output coordinates in angstroms (scale by  1.889725989 to convert to a.u.)
 
  No.       Tag          Charge          X              Y              Z
 ---- ---------------- ---------- -------------- -------------- --------------
    1 O                    8.0000    -0.87348400    -0.18766600     0.20322600
    2 C                    6.0000     0.56409300    -0.15792700     0.11894600
    3 C                    6.0000    -0.17861800     1.09547600     0.33984100
    4 C                    6.0000     1.18061400    -0.51865700    -1.20688600
    5 H                    1.0000     1.05971700    -0.59735900     0.99284100
    6 H                    1.0000    -0.21789100     1.53617800     1.33872000
    7 H                    1.0000    -0.33191500     1.78893800    -0.49053000
    8 H                    1.0000     2.23665400    -0.21204500    -1.22556600
    9 H                    1.0000     1.14364300    -1.60517500    -1.36617500
   10 H                    1.0000     0.65699100    -0.02871100    -2.03715400
 
      Atomic Mass 
      ----------- 
 
      O                 15.994910
      C                 12.000000
      H                  1.007825
 

 Effective nuclear repulsion energy (a.u.)     123.7274915303

            Nuclear Dipole moment (a.u.) 
            ----------------------------
        X                 Y               Z
 ---------------- ---------------- ----------------
    13.1446713047     3.5788575635   -10.6781801574
 
 
            XYZ format geometry
            -------------------
    10
 geometry
 O                    -0.87348400    -0.18766600     0.20322600
 C                     0.56409300    -0.15792700     0.11894600
 C                    -0.17861800     1.09547600     0.33984100
 C                     1.18061400    -0.51865700    -1.20688600
 H                     1.05971700    -0.59735900     0.99284100
 H                    -0.21789100     1.53617800     1.33872000
 H                    -0.33191500     1.78893800    -0.49053000
 H                     2.23665400    -0.21204500    -1.22556600
 H                     1.14364300    -1.60517500    -1.36617500
 H                     0.65699100    -0.02871100    -2.03715400
 
 ==============================================================================
                                internuclear distances
 ------------------------------------------------------------------------------
       center one      |      center two      | atomic units |  angstroms
 ------------------------------------------------------------------------------
    2 C                |   1 O                |     2.72187  |     1.44035
    3 C                |   1 O                |     2.76956  |     1.46559
    3 C                |   2 C                |     2.78466  |     1.47358
    4 C                |   2 C                |     2.84594  |     1.50601
    5 H                |   2 C                |     2.07219  |     1.09656
    6 H                |   3 C                |     2.06449  |     1.09248
    7 H                |   3 C                |     2.06483  |     1.09266
    8 H                |   4 C                |     2.07834  |     1.09981
    9 H                |   4 C                |     2.07634  |     1.09875
   10 H                |   4 C                |     2.07317  |     1.09707
 ------------------------------------------------------------------------------
                         number of included internuclear distances:         10
 ==============================================================================



 ==============================================================================
                                 internuclear angles
 ------------------------------------------------------------------------------
        center 1       |       center 2       |       center 3       |  degrees
 ------------------------------------------------------------------------------
    2 C                |   1 O                |   3 C                |    60.93
    2 C                |   1 O                |   3 C                |    60.93
    1 O                |   2 C                |   4 C                |   117.07
    1 O                |   2 C                |   5 H                |   113.34
    3 C                |   2 C                |   4 C                |   122.82
    3 C                |   2 C                |   5 H                |   116.69
    4 C                |   2 C                |   5 H                |   114.87
    3 C                |   1 O                |   2 C                |    60.93
    1 O                |   3 C                |   6 H                |   114.92
    1 O                |   3 C                |   7 H                |   114.73
    2 C                |   3 C                |   6 H                |   119.89
    2 C                |   3 C                |   7 H                |   119.78
    6 H                |   3 C                |   7 H                |   115.71
    2 C                |   4 C                |   8 H                |   109.95
    2 C                |   4 C                |   9 H                |   110.53
    2 C                |   4 C                |  10 H                |   111.34
    8 H                |   4 C                |   9 H                |   107.79
    8 H                |   4 C                |  10 H                |   108.72
    9 H                |   4 C                |  10 H                |   108.41
 ------------------------------------------------------------------------------
                            number of included internuclear angles:         19
 ==============================================================================



  warning:::::::::::::: from_environment
  NWCHEM_BASIS_LIBRARY set to: <
 /util/academic/nwchem/nwchem-6.8/src/basis/libraries>
  but file does not exist !
  using .nwchemrc or compiled library


 Summary of "ao basis" -> "" (spherical)
 ------------------------------------------------------------------------------
       Tag                 Description            Shells   Functions and Types
 ---------------- ------------------------------  ------  ---------------------
 *                         def2-TZVP                  on all atoms 


 
                                 NWChem DFT Module
                                 -----------------
 
 
                    methyloxirane roa calculations at 488.9 nm, input generated in va  with delta_type=2
 
 
                      Basis "ao basis" -> "ao basis" (spherical)
                      -----
  O (Oxygen)
  ----------
            Exponent  Coefficients 
       -------------- ---------------------------------------------------------
  1 S  2.70323826E+04  0.000217
  1 S  4.05238714E+03  0.001684
  1 S  9.22327227E+02  0.008740
  1 S  2.61240710E+02  0.035240
  1 S  8.53546414E+01  0.111535
  1 S  3.10350352E+01  0.255890
 
  2 S  1.22608607E+01  0.397687
  2 S  4.99870760E+00  0.246278
 
  3 S  1.17031082E+00  1.000000
 
  4 S  4.64747410E-01  1.000000
 
  5 S  1.85045364E-01  1.000000
 
  6 P  6.32749548E+01  0.006069
  6 P  1.46270494E+01  0.041913
  6 P  4.45012235E+00  0.161538
  6 P  1.52757996E+00  0.357070
 
  7 P  5.29351179E-01  1.000000
 
  8 P  1.74784213E-01  1.000000
 
  9 D  2.31400000E+00  1.000000
 
 10 D  6.45000000E-01  1.000000
 
 11 F  1.42800000E+00  1.000000
 
  C (Carbon)
  ----------
            Exponent  Coefficients 
       -------------- ---------------------------------------------------------
  1 S  1.35753497E+04  0.000222
  1 S  2.03523337E+03  0.001723
  1 S  4.63225624E+02  0.008926
  1 S  1.31200196E+02  0.035728
  1 S  4.28530159E+01  0.110763
  1 S  1.55841858E+01  0.242956
 
  2 S  6.20671385E+00  0.414403
  2 S  2.57648965E+00  0.237450
 
  3 S  5.76963394E-01  1.000000
 
  4 S  2.29728314E-01  1.000000
 
  5 S  9.51644400E-02  1.000000
 
  6 P  3.46972322E+01  0.005333
  6 P  7.95826228E+00  0.035864
  6 P  2.37808269E+00  0.142159
  6 P  8.14332082E-01  0.342705
 
  7 P  2.88875473E-01  1.000000
 
  8 P  1.00568237E-01  1.000000
 
  9 D  1.09700000E+00  1.000000
 
 10 D  3.18000000E-01  1.000000
 
 11 F  7.61000000E-01  1.000000
 
  H (Hydrogen)
  ------------
            Exponent  Coefficients 
       -------------- ---------------------------------------------------------
  1 S  3.40613410E+01  0.006025
  1 S  5.12357460E+00  0.045021
  1 S  1.16466260E+00  0.201897
 
  2 S  3.27230410E-01  1.000000
 
  3 S  1.03072410E-01  1.000000
 
  4 P  8.00000000E-01  1.000000
 


 Summary of "ao basis" -> "ao basis" (spherical)
 ------------------------------------------------------------------------------
       Tag                 Description            Shells   Functions and Types
 ---------------- ------------------------------  ------  ---------------------
 O                         def2-TZVP                11       31   5s3p2d1f
 C                         def2-TZVP                11       31   5s3p2d1f
 H                         def2-TZVP                 4        6   3s1p




 Summary of "ao basis" -> "ao basis" (spherical)
 ------------------------------------------------------------------------------
       Tag                 Description            Shells   Functions and Types
 ---------------- ------------------------------  ------  ---------------------
 O                         def2-TZVP                11       31   5s3p2d1f
 C                         def2-TZVP                11       31   5s3p2d1f
 H                         def2-TZVP                 4        6   3s1p


  Caching 1-el integrals 
  itol2e modified to match energy
  convergence criterion.
  tol_rho modified to match energy
  convergence criterion.
 
            General Information
            -------------------
          SCF calculation type: DFT
          Wavefunction type:  closed shell.
          No. of atoms     :    10
          No. of electrons :    32
           Alpha electrons :    16
            Beta electrons :    16
          Charge           :     0
          Spin multiplicity:     1
          Use of symmetry is: off; symmetry adaption is: off
          Maximum number of iterations: 250
          This is a Direct SCF calculation.
          AO basis - number of functions:   160
                     number of shells:    68
          Convergence on energy requested:  1.00D-08
          Convergence on density requested:  1.00D-05
          Convergence on gradient requested:  1.00D-07
 
              XC Information
              --------------
                    Becke 1988 Exchange Functional  1.000          
              Lee-Yang-Parr Correlation Functional  1.000          
 
             Grid Information
             ----------------
          Grid used for XC integration:  xfine     
          Radial quadrature: Mura-Knowles        
          Angular quadrature: Lebedev. 
          Tag              B.-S. Rad. Rad. Pts. Rad. Cut. Ang. Pts.
          ---              ---------- --------- --------- ---------
          O                   0.60      100          11.0      1454
          C                   0.70      100          11.0      1454
          H                   0.35      100          12.0      1202
          Grid pruning is: on 
          Number of quadrature shells:  1000
          Spatial weights used:  Erf1
 
          Convergence Information
          -----------------------
          Convergence aids based upon iterative change in 
          total energy or number of iterations. 
          Levelshifting, if invoked, occurs when the 
          HOMO/LUMO gap drops below (HL_TOL):  1.00D-02
          DIIS, if invoked, will attempt to extrapolate 
          using up to (NFOCK): 10 stored Fock matrices.

                    Damping( 0%)  Levelshifting(0.0)       DIIS
                  --------------- ------------------- ---------------
          dE  on:    start             N/A                start   
          dE off:    2 iters           N/A              250 iters 

 
      Screening Tolerance Information
      -------------------------------
          Density screening/tol_rho:  1.00D-11
          AO Gaussian exp screening on grid/accAOfunc:  18
          CD Gaussian exp screening on grid/accCDfunc:  20
          XC Gaussian exp screening on grid/accXCfunc:  20
          Schwarz screening/accCoul:  1.00D-09

 
      Superposition of Atomic Density Guess
      -------------------------------------
 
 Sum of atomic energies:        -190.79714706
 
      Non-variational initial energy
      ------------------------------

 Total energy =    -193.179107
 1-e energy   =    -502.405514
 2-e energy   =     185.498915
 HOMO         =      -0.351263
 LUMO         =       0.087236
 
   Time after variat. SCF:      0.6
   Time prior to 1st pass:      0.6

 Grid_pts file          = ./methyloxirane_blyp-def2-tzvp_488.9_28.inp.gridpts.0
 Record size in doubles =  12289        No. of grid_pts per rec  =   3070
 Max. records in memory =     76        Max. recs in file   =    554552


           Memory utilization after 1st SCF pass: 
           Heap Space remaining (MW):       12.17            12167540
          Stack Space remaining (MW):       13.11            13106124

   convergence    iter        energy       DeltaE   RMS-Dens  Diis-err    time
 ---------------- ----- ----------------- --------- --------- ---------  ------
 d= 0,ls=0.0,diis     1   -193.0204220203 -3.17D+02  9.22D-03  1.06D+00     6.4
 d= 0,ls=0.0,diis     2   -192.8620337888  1.58D-01  7.66D-03  2.52D+00    11.8
 d= 0,ls=0.0,diis     3   -193.0765776709 -2.15D-01  1.83D-03  3.91D-01    17.2
 d= 0,ls=0.0,diis     4   -193.1071275909 -3.05D-02  6.77D-04  1.81D-02    22.6
 d= 0,ls=0.0,diis     5   -193.1087867540 -1.66D-03  2.94D-04  2.70D-03    28.0
 d= 0,ls=0.0,diis     6   -193.1091216010 -3.35D-04  3.10D-05  3.69D-05    33.5
 d= 0,ls=0.0,diis     7   -193.1091257207 -4.12D-06  9.32D-06  6.25D-06    38.9
 d= 0,ls=0.0,diis     8   -193.1091263830 -6.62D-07  3.07D-06  4.97D-07    44.3
 d= 0,ls=0.0,diis     9   -193.1091264387 -5.57D-08  7.49D-07  2.92D-08    49.7
 d= 0,ls=0.0,diis    10   -193.1091264421 -3.35D-09  2.24D-07  3.01D-09    55.1


         Total DFT energy =     -193.109126442070
      One electron energy =     -506.065560175195
           Coulomb energy =      216.253732857024
    Exchange-Corr. energy =      -27.024790654173
 Nuclear repulsion energy =      123.727491530273

 Numeric. integr. density =       32.000000071744

     Total iterative time =     54.5s


 
                       DFT Final Molecular Orbital Analysis
                       ------------------------------------
 
 Vector    1  Occ=2.000000D+00  E=-1.877989D+01
              MO Center= -8.7D-01, -1.9D-01,  2.0D-01, r^2= 1.5D-02
   Bfn.  Coefficient  Atom+Function         Bfn.  Coefficient  Atom+Function  
  ----- ------------  ---------------      ----- ------------  ---------------
     2      0.638473   1 O  s                 1      0.435422   1 O  s         
     3      0.039931   1 O  s                 4     -0.033420   1 O  s         
 
 Vector    2  Occ=2.000000D+00  E=-9.962408D+00
              MO Center=  5.6D-01, -1.6D-01,  1.2D-01, r^2= 2.8D-02
   Bfn.  Coefficient  Atom+Function         Bfn.  Coefficient  Atom+Function  
  ----- ------------  ---------------      ----- ------------  ---------------
    33      0.606869   2 C  s                32      0.467248   2 C  s         
    34      0.042396   2 C  s                36      0.037362   2 C  s         
    35     -0.026238   2 C  s         
 
 Vector    3  Occ=2.000000D+00  E=-9.955731D+00
              MO Center= -1.8D-01,  1.1D+00,  3.4D-01, r^2= 2.8D-02
   Bfn.  Coefficient  Atom+Function         Bfn.  Coefficient  Atom+Function  
  ----- ------------  ---------------      ----- ------------  ---------------
    64      0.607024   3 C  s                63      0.467211   3 C  s         
    65      0.039808   3 C  s         
 
 Vector    4  Occ=2.000000D+00  E=-9.906877D+00
              MO Center=  1.2D+00, -5.2D-01, -1.2D+00, r^2= 2.8D-02
   Bfn.  Coefficient  Atom+Function         Bfn.  Coefficient  Atom+Function  
  ----- ------------  ---------------      ----- ------------  ---------------
    95      0.606953   4 C  s                94      0.467211   4 C  s         
    96      0.040583   4 C  s                98      0.035793   4 C  s         
 
 Vector    5  Occ=2.000000D+00  E=-9.634578D-01
              MO Center= -4.6D-01,  4.6D-02,  2.0D-01, r^2= 6.5D-01
   Bfn.  Coefficient  Atom+Function         Bfn.  Coefficient  Atom+Function  
  ----- ------------  ---------------      ----- ------------  ---------------
     4      0.374974   1 O  s                 3      0.277221   1 O  s         
     2     -0.192661   1 O  s                34      0.143386   2 C  s         
    65      0.135787   3 C  s                 5      0.122653   1 O  s         
    35      0.105142   2 C  s                 6      0.094512   1 O  px        
    66      0.093971   3 C  s                37     -0.091743   2 C  px        
 
 Vector    6  Occ=2.000000D+00  E=-6.699463D-01
              MO Center=  9.4D-01, -3.9D-01, -7.7D-01, r^2= 1.5D+00
   Bfn.  Coefficient  Atom+Function         Bfn.  Coefficient  Atom+Function  
  ----- ------------  ---------------      ----- ------------  ---------------
    97      0.285797   4 C  s                96      0.276578   4 C  s         
    35      0.184460   2 C  s                95     -0.174255   4 C  s         
    34      0.172360   2 C  s                 4     -0.149277   1 O  s         
    33     -0.107966   2 C  s                 3     -0.103858   1 O  s         
    94     -0.083494   4 C  s                 5     -0.073603   1 O  s         
 
 Vector    7  Occ=2.000000D+00  E=-5.916460D-01
              MO Center= -1.3D-01,  7.3D-01,  2.3D-01, r^2= 1.9D+00
   Bfn.  Coefficient  Atom+Function         Bfn.  Coefficient  Atom+Function  
  ----- ------------  ---------------      ----- ------------  ---------------
    66      0.327294   3 C  s                65      0.281588   3 C  s         
     4     -0.234142   1 O  s                64     -0.173786   3 C  s         
     3     -0.165962   1 O  s                 5     -0.145152   1 O  s         
     2      0.109533   1 O  s                38      0.107001   2 C  py        
   132      0.103012   6 H  s               138      0.098348   7 H  s         
 
 Vector    8  Occ=2.000000D+00  E=-5.287351D-01
              MO Center=  4.1D-01,  5.5D-03, -1.0D-01, r^2= 2.7D+00
   Bfn.  Coefficient  Atom+Function         Bfn.  Coefficient  Atom+Function  
  ----- ------------  ---------------      ----- ------------  ---------------
    35      0.304459   2 C  s                34      0.224816   2 C  s         
    97     -0.155843   4 C  s                66     -0.148218   3 C  s         
    33     -0.138439   2 C  s               126      0.133472   5 H  s         
    96     -0.128529   4 C  s                 6      0.108920   1 O  px        
   125      0.106634   5 H  s                 4     -0.098435   1 O  s         
 
 Vector    9  Occ=2.000000D+00  E=-4.479331D-01
              MO Center=  1.1D-01,  2.8D-01,  2.5D-01, r^2= 2.5D+00
   Bfn.  Coefficient  Atom+Function         Bfn.  Coefficient  Atom+Function  
  ----- ------------  ---------------      ----- ------------  ---------------
    70      0.209441   3 C  pz               39      0.155329   2 C  pz        
   132      0.145520   6 H  s                73      0.131634   3 C  pz        
     8      0.126828   1 O  pz              126      0.114312   5 H  s         
     6     -0.111226   1 O  px              131      0.107968   6 H  s         
    38     -0.107170   2 C  py               37      0.103763   2 C  px        
 
 Vector   10  Occ=2.000000D+00  E=-4.143019D-01
              MO Center=  5.7D-02,  2.9D-01, -2.5D-01, r^2= 2.6D+00
   Bfn.  Coefficient  Atom+Function         Bfn.  Coefficient  Atom+Function  
  ----- ------------  ---------------      ----- ------------  ---------------
    69      0.216098   3 C  py              101      0.155540   4 C  pz        
   138      0.154989   7 H  s                38     -0.141660   2 C  py        
     6     -0.137799   1 O  px               37      0.126158   2 C  px        
     7     -0.125385   1 O  py               72      0.122774   3 C  py        
    70     -0.115698   3 C  pz              137      0.112654   7 H  s         
 
 Vector   11  Occ=2.000000D+00  E=-3.775487D-01
              MO Center=  8.7D-01, -3.0D-01, -7.1D-01, r^2= 2.7D+00
   Bfn.  Coefficient  Atom+Function         Bfn.  Coefficient  Atom+Function  
  ----- ------------  ---------------      ----- ------------  ---------------
    99      0.205990   4 C  px              144      0.182760   8 H  s         
   100      0.163457   4 C  py              150     -0.138413   9 H  s         
    37      0.131940   2 C  px              102      0.131898   4 C  px        
   143      0.127906   8 H  s                 6     -0.126936   1 O  px        
     7      0.114442   1 O  py              103      0.107931   4 C  py        
 
 Vector   12  Occ=2.000000D+00  E=-3.556815D-01
              MO Center=  6.1D-01, -3.4D-01, -8.9D-01, r^2= 2.8D+00
   Bfn.  Coefficient  Atom+Function         Bfn.  Coefficient  Atom+Function  
  ----- ------------  ---------------      ----- ------------  ---------------
   100      0.256872   4 C  py              150     -0.187789   9 H  s         
   156      0.176429  10 H  s               103      0.166406   4 C  py        
     7     -0.164048   1 O  py               10     -0.131596   1 O  py        
   149     -0.130814   9 H  s               155      0.124678  10 H  s         
    70      0.117661   3 C  pz              106      0.103340   4 C  py        
 
 Vector   13  Occ=2.000000D+00  E=-3.290690D-01
              MO Center=  3.3D-01,  2.7D-01, -2.1D-01, r^2= 2.8D+00
   Bfn.  Coefficient  Atom+Function         Bfn.  Coefficient  Atom+Function  
  ----- ------------  ---------------      ----- ------------  ---------------
    39      0.220386   2 C  pz              101     -0.197013   4 C  pz        
    70     -0.175211   3 C  pz              138      0.164887   7 H  s         
     7     -0.158925   1 O  py               42      0.149259   2 C  pz        
   104     -0.137355   4 C  pz               10     -0.128353   1 O  py        
    99      0.124243   4 C  px              132     -0.111049   6 H  s         
 
 Vector   14  Occ=2.000000D+00  E=-3.208413D-01
              MO Center=  4.1D-01, -6.7D-02, -2.5D-01, r^2= 3.0D+00
   Bfn.  Coefficient  Atom+Function         Bfn.  Coefficient  Atom+Function  
  ----- ------------  ---------------      ----- ------------  ---------------
     7      0.202622   1 O  py               10      0.166477   1 O  py        
    99     -0.165758   4 C  px                6     -0.161096   1 O  px        
   126      0.156709   5 H  s               156      0.148121  10 H  s         
   144     -0.141401   8 H  s                37      0.139864   2 C  px        
     9     -0.131252   1 O  px               39      0.120713   2 C  pz        
 
 Vector   15  Occ=2.000000D+00  E=-2.638322D-01
              MO Center=  1.1D-02,  1.6D-01,  3.3D-02, r^2= 2.3D+00
   Bfn.  Coefficient  Atom+Function         Bfn.  Coefficient  Atom+Function  
  ----- ------------  ---------------      ----- ------------  ---------------
    68      0.271019   3 C  px               38      0.253035   2 C  py        
     6     -0.227482   1 O  px               71      0.202315   3 C  px        
    41      0.196942   2 C  py                9     -0.177394   1 O  px        
    12     -0.151947   1 O  px                7     -0.118488   1 O  py        
   150      0.115521   9 H  s               100     -0.112479   4 C  py        
 
 Vector   16  Occ=2.000000D+00  E=-2.197572D-01
              MO Center= -5.6D-01, -5.1D-02,  2.0D-01, r^2= 1.6D+00
   Bfn.  Coefficient  Atom+Function         Bfn.  Coefficient  Atom+Function  
  ----- ------------  ---------------      ----- ------------  ---------------
     8      0.448058   1 O  pz               11      0.356846   1 O  pz        
    14      0.295545   1 O  pz              133     -0.125046   6 H  s         
   139      0.107143   7 H  s                98      0.103317   4 C  s         
   126     -0.103203   5 H  s               145     -0.103410   8 H  s         
   132     -0.099545   6 H  s               138      0.097932   7 H  s         
 
 Vector   17  Occ=0.000000D+00  E= 2.541287D-02
              MO Center=  1.2D+00, -3.5D-02, -5.2D-01, r^2= 7.2D+00
   Bfn.  Coefficient  Atom+Function         Bfn.  Coefficient  Atom+Function  
  ----- ------------  ---------------      ----- ------------  ---------------
    98      4.340337   4 C  s               145     -1.515139   8 H  s         
   151     -1.449746   9 H  s               157     -1.292722  10 H  s         
   127     -1.261415   5 H  s                45      1.110387   2 C  pz        
   139     -0.852289   7 H  s                67      0.625499   3 C  s         
   133     -0.616212   6 H  s                74     -0.381438   3 C  px        
 
 Vector   18  Occ=0.000000D+00  E= 3.911135D-02
              MO Center= -1.4D-01,  6.2D-01,  9.1D-02, r^2= 4.4D+00
   Bfn.  Coefficient  Atom+Function         Bfn.  Coefficient  Atom+Function  
  ----- ------------  ---------------      ----- ------------  ---------------
    98      2.211479   4 C  s                36     -1.863113   2 C  s         
     5      1.192549   1 O  s                74      0.898827   3 C  px        
   151     -0.852550   9 H  s                67      0.569718   3 C  s         
    45      0.527098   2 C  pz              157     -0.473619  10 H  s         
    13      0.439071   1 O  py               44     -0.436978   2 C  py        
 
 Vector   19  Occ=0.000000D+00  E= 5.056218D-02
              MO Center=  5.6D-01,  2.1D-01, -4.4D-02, r^2= 7.2D+00
   Bfn.  Coefficient  Atom+Function         Bfn.  Coefficient  Atom+Function  
  ----- ------------  ---------------      ----- ------------  ---------------
    36      2.825955   2 C  s                98     -2.242104   4 C  s         
   127     -2.108227   5 H  s               139      1.349019   7 H  s         
   157      1.347075  10 H  s                67     -1.051411   3 C  s         
    76      0.759790   3 C  pz              133     -0.734966   6 H  s         
    43      0.654403   2 C  px              151      0.313082   9 H  s         
 
 Vector   20  Occ=0.000000D+00  E= 5.129022D-02
              MO Center=  3.5D-01,  1.0D+00,  2.6D-01, r^2= 7.3D+00
   Bfn.  Coefficient  Atom+Function         Bfn.  Coefficient  Atom+Function  
  ----- ------------  ---------------      ----- ------------  ---------------
    67      3.786588   3 C  s                98     -2.806076   4 C  s         
   133     -1.771689   6 H  s               145      1.250998   8 H  s         
   139     -1.228051   7 H  s                44     -1.100528   2 C  py        
   151      0.729104   9 H  s                45     -0.657983   2 C  pz        
    36     -0.585865   2 C  s               157      0.505327  10 H  s         
 
 Vector   21  Occ=0.000000D+00  E= 6.842499D-02
              MO Center=  3.3D-01, -4.8D-02, -1.9D-01, r^2= 4.5D+00
   Bfn.  Coefficient  Atom+Function         Bfn.  Coefficient  Atom+Function  
  ----- ------------  ---------------      ----- ------------  ---------------
    98      1.268147   4 C  s               139      1.054124   7 H  s         
   151     -1.012542   9 H  s                 5     -1.005909   1 O  s         
    43     -0.847433   2 C  px               75     -0.726689   3 C  py        
    36     -0.711737   2 C  s                12     -0.492913   1 O  px        
    44     -0.454666   2 C  py              107      0.396620   4 C  pz        
 
 Vector   22  Occ=0.000000D+00  E= 8.713554D-02
              MO Center=  1.5D+00,  6.7D-02, -6.2D-01, r^2= 6.7D+00
   Bfn.  Coefficient  Atom+Function         Bfn.  Coefficient  Atom+Function  
  ----- ------------  ---------------      ----- ------------  ---------------
    36      2.618991   2 C  s               145      2.237177   8 H  s         
   157     -1.269032  10 H  s               127     -1.252550   5 H  s         
    67     -1.245584   3 C  s               105     -1.147413   4 C  px        
   107     -1.048075   4 C  pz              133      1.042577   6 H  s         
    98     -0.855236   4 C  s                75      0.675935   3 C  py        
 
 Vector   23  Occ=0.000000D+00  E= 9.179343D-02
              MO Center=  1.0D+00, -5.0D-01, -3.4D-01, r^2= 6.9D+00
   Bfn.  Coefficient  Atom+Function         Bfn.  Coefficient  Atom+Function  
  ----- ------------  ---------------      ----- ------------  ---------------
    36      2.917185   2 C  s               151      1.926276   9 H  s         
    98     -1.417434   4 C  s               145     -1.247597   8 H  s         
   133      1.157750   6 H  s               106      1.055608   4 C  py        
    67     -1.044894   3 C  s               127     -1.040936   5 H  s         
   105      0.972376   4 C  px              107     -0.816809   4 C  pz        
 
 Vector   24  Occ=0.000000D+00  E= 1.023747D-01
              MO Center=  4.3D-01,  4.0D-01, -1.1D+00, r^2= 6.8D+00
   Bfn.  Coefficient  Atom+Function         Bfn.  Coefficient  Atom+Function  
  ----- ------------  ---------------      ----- ------------  ---------------
   157      2.055858  10 H  s               133      1.593849   6 H  s         
   106     -1.501376   4 C  py              139     -1.502448   7 H  s         
   151     -1.457562   9 H  s                98     -1.427078   4 C  s         
    36      1.264018   2 C  s                76     -1.170886   3 C  pz        
   105      0.951709   4 C  px               45     -0.494015   2 C  pz        
 
 Vector   25  Occ=0.000000D+00  E= 1.391321D-01
              MO Center=  8.2D-01,  1.8D-01, -4.8D-01, r^2= 7.8D+00
   Bfn.  Coefficient  Atom+Function         Bfn.  Coefficient  Atom+Function  
  ----- ------------  ---------------      ----- ------------  ---------------
    36      4.840101   2 C  s                98     -3.637713   4 C  s         
    45     -3.426169   2 C  pz               67     -2.823489   3 C  s         
   127      2.707445   5 H  s                76      2.152936   3 C  pz        
   105      2.142522   4 C  px              133     -1.758886   6 H  s         
   139      1.668150   7 H  s               107     -1.561123   4 C  pz        
 
 Vector   26  Occ=0.000000D+00  E= 1.705752D-01
              MO Center=  4.3D-01,  5.6D-01, -1.3D-01, r^2= 7.3D+00
   Bfn.  Coefficient  Atom+Function         Bfn.  Coefficient  Atom+Function  
  ----- ------------  ---------------      ----- ------------  ---------------
    75      2.353672   3 C  py               36      1.680485   2 C  s         
    67     -1.620752   3 C  s               107      1.613648   4 C  pz        
   139     -1.186412   7 H  s               157      1.070629  10 H  s         
    74     -0.991975   3 C  px               44      0.744307   2 C  py        
    43     -0.648667   2 C  px              106     -0.569684   4 C  py        
 
 Vector   27  Occ=0.000000D+00  E= 1.956747D-01
              MO Center=  7.8D-01, -6.2D-02, -9.8D-01, r^2= 5.1D+00
   Bfn.  Coefficient  Atom+Function         Bfn.  Coefficient  Atom+Function  
  ----- ------------  ---------------      ----- ------------  ---------------
    67      3.080456   3 C  s                44     -2.613664   2 C  py        
    36     -1.935028   2 C  s               106      1.942121   4 C  py        
    43      1.009466   2 C  px               74      0.780076   3 C  px        
   105      0.751977   4 C  px               45     -0.687294   2 C  pz        
   157     -0.675294  10 H  s               150      0.618969   9 H  s         
 
 Vector   28  Occ=0.000000D+00  E= 2.024094D-01
              MO Center=  9.8D-01, -4.5D-01, -6.7D-01, r^2= 6.6D+00
   Bfn.  Coefficient  Atom+Function         Bfn.  Coefficient  Atom+Function  
  ----- ------------  ---------------      ----- ------------  ---------------
    36      2.585957   2 C  s                75      1.624895   3 C  py        
   105     -1.384923   4 C  px              133     -1.256975   6 H  s         
   107     -0.997492   4 C  pz              106      0.890092   4 C  py        
    45      0.728831   2 C  pz              139     -0.718978   7 H  s         
   156     -0.719943  10 H  s                76      0.699673   3 C  pz        
 
 Vector   29  Occ=0.000000D+00  E= 2.348054D-01
              MO Center= -4.1D-01,  5.3D-01, -1.2D-02, r^2= 5.3D+00
   Bfn.  Coefficient  Atom+Function         Bfn.  Coefficient  Atom+Function  
  ----- ------------  ---------------      ----- ------------  ---------------
    67      4.782504   3 C  s                36     -3.046164   2 C  s         
   139     -1.477098   7 H  s                66     -1.416111   3 C  s         
   133     -1.263547   6 H  s                98      1.223083   4 C  s         
     5     -0.935009   1 O  s               107      0.885316   4 C  pz        
    74     -0.845044   3 C  px              106      0.798406   4 C  py        
 
 Vector   30  Occ=0.000000D+00  E= 2.485761D-01
              MO Center=  5.8D-01, -2.1D-02, -1.1D-01, r^2= 5.8D+00
   Bfn.  Coefficient  Atom+Function         Bfn.  Coefficient  Atom+Function  
  ----- ------------  ---------------      ----- ------------  ---------------
    67      5.837913   3 C  s                43      4.287672   2 C  px        
    75     -3.010594   3 C  py               44     -2.728379   2 C  py        
   107     -2.203299   4 C  pz               36     -1.966769   2 C  s         
   157     -1.863061  10 H  s                98     -1.639926   4 C  s         
    45     -1.603906   2 C  pz              105     -1.185715   4 C  px        
 
 Vector   31  Occ=0.000000D+00  E= 2.699913D-01
              MO Center=  3.9D-01, -2.3D-02,  2.6D-01, r^2= 5.6D+00
   Bfn.  Coefficient  Atom+Function         Bfn.  Coefficient  Atom+Function  
  ----- ------------  ---------------      ----- ------------  ---------------
    36      4.003722   2 C  s                67      2.325143   3 C  s         
     5     -2.049305   1 O  s               105      1.489396   4 C  px        
    43     -1.448744   2 C  px               66     -1.230452   3 C  s         
    98     -1.083224   4 C  s               139     -0.929921   7 H  s         
   106     -0.909817   4 C  py              133     -0.912870   6 H  s         
 
 Vector   32  Occ=0.000000D+00  E= 2.789356D-01
              MO Center=  3.7D-01,  9.4D-02,  2.7D-01, r^2= 4.3D+00
   Bfn.  Coefficient  Atom+Function         Bfn.  Coefficient  Atom+Function  
  ----- ------------  ---------------      ----- ------------  ---------------
    36      3.311579   2 C  s                 5     -1.901344   1 O  s         
    67     -1.804355   3 C  s                43     -1.342122   2 C  px        
    98     -0.802062   4 C  s                74     -0.601425   3 C  px        
   145      0.577008   8 H  s                45     -0.567433   2 C  pz        
     4      0.505587   1 O  s                35     -0.473418   2 C  s         
 
 Vector   33  Occ=0.000000D+00  E= 3.017212D-01
              MO Center=  4.3D-01,  3.9D-01, -3.8D-01, r^2= 5.0D+00
   Bfn.  Coefficient  Atom+Function         Bfn.  Coefficient  Atom+Function  
  ----- ------------  ---------------      ----- ------------  ---------------
   106      1.806226   4 C  py               43      1.778403   2 C  px        
   151      1.736821   9 H  s                98     -1.695762   4 C  s         
    76      1.350885   3 C  pz               36     -1.236048   2 C  s         
    44     -1.238660   2 C  py               66      1.071548   3 C  s         
   139      0.976618   7 H  s               107     -0.933372   4 C  pz        
 
 Vector   34  Occ=0.000000D+00  E= 3.394450D-01
              MO Center=  1.3D-01,  4.2D-01, -4.2D-01, r^2= 5.9D+00
   Bfn.  Coefficient  Atom+Function         Bfn.  Coefficient  Atom+Function  
  ----- ------------  ---------------      ----- ------------  ---------------
    67      4.315461   3 C  s                76     -3.907752   3 C  pz        
   139     -3.156728   7 H  s                36     -2.334622   2 C  s         
   133      2.047224   6 H  s               157     -1.806089  10 H  s         
   107     -1.793348   4 C  pz               98      1.617219   4 C  s         
    43      1.247736   2 C  px               44     -1.035084   2 C  py        
 
 Vector   35  Occ=0.000000D+00  E= 3.629792D-01
              MO Center=  8.3D-01, -2.1D-02, -3.6D-01, r^2= 6.7D+00
   Bfn.  Coefficient  Atom+Function         Bfn.  Coefficient  Atom+Function  
  ----- ------------  ---------------      ----- ------------  ---------------
    98      8.147636   4 C  s               145     -3.346061   8 H  s         
    97     -3.138218   4 C  s                76      3.051355   3 C  pz        
   133     -2.131636   6 H  s                67     -1.905975   3 C  s         
   151     -1.886901   9 H  s                36      1.746321   2 C  s         
   139      1.620865   7 H  s                44      1.580158   2 C  py        
 
 Vector   36  Occ=0.000000D+00  E= 3.725440D-01
              MO Center=  5.4D-01,  2.3D-01, -1.1D-01, r^2= 6.4D+00
   Bfn.  Coefficient  Atom+Function         Bfn.  Coefficient  Atom+Function  
  ----- ------------  ---------------      ----- ------------  ---------------
    36     12.854118   2 C  s                98     -9.408216   4 C  s         
    67     -8.199975   3 C  s               127     -3.066934   5 H  s         
    97      2.636334   4 C  s               157      2.322118  10 H  s         
    44      1.910896   2 C  py               35     -1.849024   2 C  s         
   151      1.799820   9 H  s                75      1.592730   3 C  py        
 
 Vector   37  Occ=0.000000D+00  E= 3.852528D-01
              MO Center=  8.7D-01, -3.1D-01, -1.1D-01, r^2= 6.0D+00
   Bfn.  Coefficient  Atom+Function         Bfn.  Coefficient  Atom+Function  
  ----- ------------  ---------------      ----- ------------  ---------------
    36      6.247129   2 C  s               127     -4.150690   5 H  s         
    98      2.764206   4 C  s                45      2.623813   2 C  pz        
    35     -2.199453   2 C  s               151     -2.062263   9 H  s         
    76     -1.999132   3 C  pz               43      1.877386   2 C  px        
    67     -1.845900   3 C  s               145     -1.788339   8 H  s         
 
 Vector   38  Occ=0.000000D+00  E= 3.958660D-01
              MO Center=  7.7D-02,  6.7D-02, -1.2D-01, r^2= 6.4D+00
   Bfn.  Coefficient  Atom+Function         Bfn.  Coefficient  Atom+Function  
  ----- ------------  ---------------      ----- ------------  ---------------
    98     12.730554   4 C  s                45      6.132982   2 C  pz        
    67     -4.811133   3 C  s                76     -3.507663   3 C  pz        
    36     -2.876057   2 C  s               157     -2.700731  10 H  s         
   133      2.584731   6 H  s                44      1.883909   2 C  py        
   107      1.745228   4 C  pz               75      1.720919   3 C  py        
 
 Vector   39  Occ=0.000000D+00  E= 4.014778D-01
              MO Center= -1.5D-01,  2.9D-01,  2.6D-01, r^2= 6.6D+00
   Bfn.  Coefficient  Atom+Function         Bfn.  Coefficient  Atom+Function  
  ----- ------------  ---------------      ----- ------------  ---------------
    67    -12.873490   3 C  s                36     11.817548   2 C  s         
    45     -4.467597   2 C  pz               44      4.071947   2 C  py        
    98     -3.480532   4 C  s                66      2.756190   3 C  s         
   127      2.686765   5 H  s                43     -2.591853   2 C  px        
   139      2.384343   7 H  s               105      2.255302   4 C  px        
 
 Vector   40  Occ=0.000000D+00  E= 4.159103D-01
              MO Center=  7.5D-01, -2.9D-01, -7.7D-01, r^2= 5.9D+00
   Bfn.  Coefficient  Atom+Function         Bfn.  Coefficient  Atom+Function  
  ----- ------------  ---------------      ----- ------------  ---------------
    98      6.270737   4 C  s                45      2.706999   2 C  pz        
   105     -2.393991   4 C  px               36     -2.324166   2 C  s         
   151     -2.212929   9 H  s               157     -1.972260  10 H  s         
   145      1.765926   8 H  s                97     -1.097495   4 C  s         
   144     -0.944196   8 H  s               127     -0.929320   5 H  s         
 
 Vector   41  Occ=0.000000D+00  E= 4.264516D-01
              MO Center=  5.2D-01,  1.1D-01, -2.3D-01, r^2= 6.9D+00
   Bfn.  Coefficient  Atom+Function         Bfn.  Coefficient  Atom+Function  
  ----- ------------  ---------------      ----- ------------  ---------------
    36      9.343473   2 C  s                67     -4.628485   3 C  s         
    98     -4.260129   4 C  s                44      2.607953   2 C  py        
    75      2.604183   3 C  py              151      2.581205   9 H  s         
    43     -1.760561   2 C  px               45     -1.485532   2 C  pz        
    74     -1.430246   3 C  px              105      1.389199   4 C  px        
 
 Vector   42  Occ=0.000000D+00  E= 4.477651D-01
              MO Center=  1.4D-01, -5.1D-02, -1.4D-01, r^2= 6.2D+00
   Bfn.  Coefficient  Atom+Function         Bfn.  Coefficient  Atom+Function  
  ----- ------------  ---------------      ----- ------------  ---------------
    36      9.783862   2 C  s                98     -8.832071   4 C  s         
    45     -5.594479   2 C  pz               67     -3.128292   3 C  s         
   127      3.024419   5 H  s                76      2.806019   3 C  pz        
    44      2.430830   2 C  py              157      2.298394  10 H  s         
   133     -2.257214   6 H  s               106     -1.982006   4 C  py        
 
 Vector   43  Occ=0.000000D+00  E= 4.607487D-01
              MO Center=  4.9D-02,  8.4D-01, -4.0D-01, r^2= 5.0D+00
   Bfn.  Coefficient  Atom+Function         Bfn.  Coefficient  Atom+Function  
  ----- ------------  ---------------      ----- ------------  ---------------
   139      3.108370   7 H  s               157     -2.215055  10 H  s         
   107     -2.103175   4 C  pz               75     -1.998332   3 C  py        
    44     -1.503432   2 C  py               43      1.472951   2 C  px        
    45     -1.476627   2 C  pz              138     -1.448377   7 H  s         
    76      1.146481   3 C  pz               73     -0.833265   3 C  pz        
 
 Vector   44  Occ=0.000000D+00  E= 4.713495D-01
              MO Center=  4.9D-01,  7.2D-02, -1.6D-01, r^2= 5.6D+00
   Bfn.  Coefficient  Atom+Function         Bfn.  Coefficient  Atom+Function  
  ----- ------------  ---------------      ----- ------------  ---------------
    98     -5.786212   4 C  s                36      5.524650   2 C  s         
    45     -2.888702   2 C  pz              107     -1.967284   4 C  pz        
   145      1.732941   8 H  s                67     -1.688100   3 C  s         
    35     -1.463001   2 C  s               133      1.231289   6 H  s         
   157     -1.108583  10 H  s                43      1.008104   2 C  px        
 
 Vector   45  Occ=0.000000D+00  E= 5.088301D-01
              MO Center=  8.7D-01, -3.6D-01, -8.9D-01, r^2= 4.9D+00
   Bfn.  Coefficient  Atom+Function         Bfn.  Coefficient  Atom+Function  
  ----- ------------  ---------------      ----- ------------  ---------------
    98     11.847606   4 C  s                36     -7.740974   2 C  s         
    45      4.930957   2 C  pz              107      3.165581   4 C  pz        
   106      1.366073   4 C  py              127     -1.327330   5 H  s         
   144     -1.322452   8 H  s               156     -1.216441  10 H  s         
    14     -1.122688   1 O  pz              105     -1.105367   4 C  px        
 
 Vector   46  Occ=0.000000D+00  E= 5.336492D-01
              MO Center=  1.2D-01, -4.0D-01, -5.1D-01, r^2= 4.4D+00
   Bfn.  Coefficient  Atom+Function         Bfn.  Coefficient  Atom+Function  
  ----- ------------  ---------------      ----- ------------  ---------------
    98     -7.156897   4 C  s                36      6.640073   2 C  s         
    45     -3.582997   2 C  pz               76      3.139036   3 C  pz        
   133     -1.742124   6 H  s               105      1.488818   4 C  px        
   107     -1.450585   4 C  pz              139      1.379162   7 H  s         
     5     -1.120061   1 O  s                14     -1.116516   1 O  pz        
 
 Vector   47  Occ=0.000000D+00  E= 6.580679D-01
              MO Center= -4.8D-01,  7.7D-02, -1.7D-02, r^2= 4.3D+00
   Bfn.  Coefficient  Atom+Function         Bfn.  Coefficient  Atom+Function  
  ----- ------------  ---------------      ----- ------------  ---------------
    36     12.556753   2 C  s                67     -9.724385   3 C  s         
    98     -4.407769   4 C  s                75      2.710025   3 C  py        
    43     -2.612488   2 C  px               13      2.452863   1 O  py        
    76      2.122894   3 C  pz              105      1.602212   4 C  px        
   139      1.558500   7 H  s                44      1.525836   2 C  py        
 
 Vector   48  Occ=0.000000D+00  E= 6.728225D-01
              MO Center= -2.3D-01,  3.3D-01,  1.4D-01, r^2= 3.8D+00
   Bfn.  Coefficient  Atom+Function         Bfn.  Coefficient  Atom+Function  
  ----- ------------  ---------------      ----- ------------  ---------------
    67     -6.941753   3 C  s                36      6.823412   2 C  s         
     5      2.798019   1 O  s                75      2.306256   3 C  py        
    13      1.867713   1 O  py               98     -1.522633   4 C  s         
    45     -1.166009   2 C  pz                4     -1.038289   1 O  s         
    43     -1.001209   2 C  px               44      0.877101   2 C  py        
 
 Vector   49  Occ=0.000000D+00  E= 7.110490D-01
              MO Center=  2.0D-01, -2.9D-01, -2.7D-01, r^2= 4.4D+00
   Bfn.  Coefficient  Atom+Function         Bfn.  Coefficient  Atom+Function  
  ----- ------------  ---------------      ----- ------------  ---------------
    67      9.207020   3 C  s                36     -7.245951   2 C  s         
    43      3.646065   2 C  px               44     -3.455085   2 C  py        
    75     -2.704938   3 C  py                5      2.449937   1 O  s         
    98     -2.348341   4 C  s                12      1.666962   1 O  px        
   106      1.668471   4 C  py               13     -1.250016   1 O  py        
 
 Vector   50  Occ=0.000000D+00  E= 7.627395D-01
              MO Center=  6.3D-01, -4.7D-02, -3.7D-01, r^2= 4.0D+00
   Bfn.  Coefficient  Atom+Function         Bfn.  Coefficient  Atom+Function  
  ----- ------------  ---------------      ----- ------------  ---------------
    45      2.288714   2 C  pz               36      1.901347   2 C  s         
     5     -1.672705   1 O  s               127     -1.640447   5 H  s         
   105     -1.596293   4 C  px               43      1.350804   2 C  px        
   126     -1.333191   5 H  s               144      1.279141   8 H  s         
    66      0.991677   3 C  s                76     -0.964726   3 C  pz        
 
 Vector   51  Occ=0.000000D+00  E= 7.939579D-01
              MO Center=  3.0D-01,  7.6D-02, -2.1D-01, r^2= 4.4D+00
   Bfn.  Coefficient  Atom+Function         Bfn.  Coefficient  Atom+Function  
  ----- ------------  ---------------      ----- ------------  ---------------
     5      3.981451   1 O  s                76     -2.628185   3 C  pz        
    36     -2.606665   2 C  s                45      1.590957   2 C  pz        
     4     -1.536670   1 O  s               133      1.368882   6 H  s         
    12      1.332045   1 O  px               43      1.281544   2 C  px        
    35     -1.121573   2 C  s                66     -1.031560   3 C  s         
 
 Vector   52  Occ=0.000000D+00  E= 8.320485D-01
              MO Center=  3.2D-01,  1.7D-01, -7.0D-03, r^2= 4.5D+00
   Bfn.  Coefficient  Atom+Function         Bfn.  Coefficient  Atom+Function  
  ----- ------------  ---------------      ----- ------------  ---------------
    36      6.856230   2 C  s                98     -4.264159   4 C  s         
     5     -3.992196   1 O  s                43     -2.665093   2 C  px        
   105      2.014299   4 C  px               45     -1.992690   2 C  pz        
    35     -1.856497   2 C  s                44      1.579238   2 C  py        
    66     -1.211686   3 C  s                97      1.044817   4 C  s         
 
 Vector   53  Occ=0.000000D+00  E= 8.538965D-01
              MO Center=  6.3D-01,  1.0D-01, -4.0D-01, r^2= 4.1D+00
   Bfn.  Coefficient  Atom+Function         Bfn.  Coefficient  Atom+Function  
  ----- ------------  ---------------      ----- ------------  ---------------
    45     -4.446345   2 C  pz               98     -4.400610   4 C  s         
    36      4.051758   2 C  s                76      2.117004   3 C  pz        
   127      1.794090   5 H  s               106     -1.491196   4 C  py        
    44      1.438157   2 C  py              105      1.298732   4 C  px        
   150     -1.275578   9 H  s               132     -1.110686   6 H  s         
 
 Vector   54  Occ=0.000000D+00  E= 8.696555D-01
              MO Center=  1.4D-01, -3.3D-02, -1.0D-01, r^2= 4.2D+00
   Bfn.  Coefficient  Atom+Function         Bfn.  Coefficient  Atom+Function  
  ----- ------------  ---------------      ----- ------------  ---------------
     5      4.835750   1 O  s                36     -2.416095   2 C  s         
     4     -1.616760   1 O  s               138      1.463163   7 H  s         
    12      1.227182   1 O  px               76      1.144778   3 C  pz        
    66     -1.070564   3 C  s                43      1.029365   2 C  px        
    67     -1.006593   3 C  s                40      0.855251   2 C  px        
 
 Vector   55  Occ=0.000000D+00  E= 9.213194D-01
              MO Center=  5.2D-01,  3.0D-01, -4.8D-01, r^2= 4.6D+00
   Bfn.  Coefficient  Atom+Function         Bfn.  Coefficient  Atom+Function  
  ----- ------------  ---------------      ----- ------------  ---------------
    35      5.077011   2 C  s                36     -2.010164   2 C  s         
    67      1.544378   3 C  s                66     -1.317166   3 C  s         
    72      1.312089   3 C  py              132     -1.306438   6 H  s         
   156     -1.189598  10 H  s                41      1.173406   2 C  py        
    84      1.163745   3 C  d  0            116     -1.099815   4 C  d  1      
 
 Vector   56  Occ=0.000000D+00  E= 9.625303D-01
              MO Center=  4.4D-01,  3.2D-01, -5.1D-01, r^2= 4.7D+00
   Bfn.  Coefficient  Atom+Function         Bfn.  Coefficient  Atom+Function  
  ----- ------------  ---------------      ----- ------------  ---------------
    35      4.117139   2 C  s                67      2.413325   3 C  s         
   138     -2.377916   7 H  s                42     -1.767043   2 C  pz        
    76     -1.752580   3 C  pz               98     -1.690646   4 C  s         
    83     -1.662143   3 C  d -1            115     -1.440411   4 C  d  0      
   132      1.393208   6 H  s               107     -1.344160   4 C  pz        
 
 Vector   57  Occ=0.000000D+00  E= 9.923952D-01
              MO Center=  2.8D-01,  5.8D-01, -8.8D-02, r^2= 4.0D+00
   Bfn.  Coefficient  Atom+Function         Bfn.  Coefficient  Atom+Function  
  ----- ------------  ---------------      ----- ------------  ---------------
    36      6.975113   2 C  s                98     -4.660752   4 C  s         
    45     -3.598194   2 C  pz               67     -3.555228   3 C  s         
    43     -2.237195   2 C  px               44      1.971982   2 C  py        
   127      1.507236   5 H  s                35     -1.495261   2 C  s         
    66     -1.497467   3 C  s                75      1.353318   3 C  py        
 
 Vector   58  Occ=0.000000D+00  E= 1.012269D+00
              MO Center=  4.5D-01,  4.5D-01, -1.2D-01, r^2= 4.4D+00
   Bfn.  Coefficient  Atom+Function         Bfn.  Coefficient  Atom+Function  
  ----- ------------  ---------------      ----- ------------  ---------------
    36      5.976618   2 C  s                67     -4.742953   3 C  s         
    45     -2.396120   2 C  pz               98     -2.027751   4 C  s         
    44      1.975108   2 C  py              156     -1.573582  10 H  s         
    43     -1.504962   2 C  px              144      1.502530   8 H  s         
    76      1.312128   3 C  pz               74     -1.263646   3 C  px        
 
 Vector   59  Occ=0.000000D+00  E= 1.042877D+00
              MO Center=  6.7D-01, -1.2D-01, -4.3D-01, r^2= 4.2D+00
   Bfn.  Coefficient  Atom+Function         Bfn.  Coefficient  Atom+Function  
  ----- ------------  ---------------      ----- ------------  ---------------
    36      3.143300   2 C  s                35      2.848576   2 C  s         
    66     -2.678084   3 C  s                 5     -1.950566   1 O  s         
   150      1.920348   9 H  s               144     -1.840178   8 H  s         
    41      1.736117   2 C  py               67     -1.711846   3 C  s         
   117      1.697244   4 C  d  2             44      1.574564   2 C  py        
 
 Vector   60  Occ=0.000000D+00  E= 1.081253D+00
              MO Center=  6.7D-01, -2.4D-03, -7.7D-02, r^2= 4.1D+00
   Bfn.  Coefficient  Atom+Function         Bfn.  Coefficient  Atom+Function  
  ----- ------------  ---------------      ----- ------------  ---------------
    98     -4.140077   4 C  s                66      3.968169   3 C  s         
    45     -3.884829   2 C  pz               97     -3.859410   4 C  s         
    36      3.547867   2 C  s               104     -2.577970   4 C  pz        
    41     -2.546100   2 C  py               42     -2.424309   2 C  pz        
    72     -2.318956   3 C  py               53      2.218647   2 C  d  0      
 
 Vector   61  Occ=0.000000D+00  E= 1.103491D+00
              MO Center=  3.7D-01,  7.3D-02,  7.2D-02, r^2= 3.8D+00
   Bfn.  Coefficient  Atom+Function         Bfn.  Coefficient  Atom+Function  
  ----- ------------  ---------------      ----- ------------  ---------------
    36      7.402593   2 C  s                67     -5.188451   3 C  s         
    98     -2.881982   4 C  s                66      2.278840   3 C  s         
   126     -2.088463   5 H  s                45     -1.834905   2 C  pz        
   132      1.705756   6 H  s                72     -1.670936   3 C  py        
    41     -1.542177   2 C  py               53      1.488777   2 C  d  0      
 
 Vector   62  Occ=0.000000D+00  E= 1.149799D+00
              MO Center=  6.4D-01, -3.3D-02, -6.1D-02, r^2= 3.5D+00
   Bfn.  Coefficient  Atom+Function         Bfn.  Coefficient  Atom+Function  
  ----- ------------  ---------------      ----- ------------  ---------------
    67      4.797888   3 C  s                36     -3.483008   2 C  s         
    44     -2.332391   2 C  py               97     -1.962692   4 C  s         
   126      1.770680   5 H  s                54      1.624442   2 C  d  1      
    55      1.533172   2 C  d  2             42     -1.512292   2 C  pz        
    43      1.488858   2 C  px               75     -1.369184   3 C  py        
 
 Vector   63  Occ=0.000000D+00  E= 1.217693D+00
              MO Center=  5.6D-01,  2.0D-01, -1.4D-01, r^2= 3.8D+00
   Bfn.  Coefficient  Atom+Function         Bfn.  Coefficient  Atom+Function  
  ----- ------------  ---------------      ----- ------------  ---------------
    36      7.104713   2 C  s                66     -5.009049   3 C  s         
    67     -3.588248   3 C  s                97     -3.444185   4 C  s         
    35      3.161711   2 C  s                72      1.920045   3 C  py        
    51     -1.776304   2 C  d -2             52      1.688972   2 C  d -1      
   138      1.671581   7 H  s               104     -1.510137   4 C  pz        
 
 Vector   64  Occ=0.000000D+00  E= 1.350205D+00
              MO Center=  3.4D-01,  5.7D-01,  2.2D-01, r^2= 3.6D+00
   Bfn.  Coefficient  Atom+Function         Bfn.  Coefficient  Atom+Function  
  ----- ------------  ---------------      ----- ------------  ---------------
    66      4.790355   3 C  s                35      3.785191   2 C  s         
    67     -3.222437   3 C  s                36     -2.565423   2 C  s         
    65     -2.462906   3 C  s               132     -2.068139   6 H  s         
   133      1.476074   6 H  s                72      1.407542   3 C  py        
    34     -1.371909   2 C  s               139      1.104717   7 H  s         
 
 Vector   65  Occ=0.000000D+00  E= 1.415472D+00
              MO Center=  1.1D-01,  5.5D-01, -3.0D-02, r^2= 3.3D+00
   Bfn.  Coefficient  Atom+Function         Bfn.  Coefficient  Atom+Function  
  ----- ------------  ---------------      ----- ------------  ---------------
    36      4.426449   2 C  s                35     -3.777918   2 C  s         
    67     -3.781888   3 C  s                66      3.557546   3 C  s         
    73     -2.397401   3 C  pz              138     -2.250412   7 H  s         
   139      2.247659   7 H  s                76      1.840355   3 C  pz        
   126      1.712122   5 H  s                34      1.516000   2 C  s         
 
 Vector   66  Occ=0.000000D+00  E= 1.432358D+00
              MO Center=  1.0D+00, -4.6D-01, -1.1D+00, r^2= 3.6D+00
   Bfn.  Coefficient  Atom+Function         Bfn.  Coefficient  Atom+Function  
  ----- ------------  ---------------      ----- ------------  ---------------
    98     10.029953   4 C  s                97     -7.482875   4 C  s         
    96      3.023992   4 C  s                36     -2.593376   2 C  s         
   145     -2.349555   8 H  s               151     -2.325312   9 H  s         
   157     -2.073632  10 H  s               150      1.688713   9 H  s         
   144      1.632679   8 H  s               104      1.430341   4 C  pz        
 
 Vector   67  Occ=0.000000D+00  E= 1.445072D+00
              MO Center=  4.5D-01,  7.2D-02, -3.9D-01, r^2= 3.9D+00
   Bfn.  Coefficient  Atom+Function         Bfn.  Coefficient  Atom+Function  
  ----- ------------  ---------------      ----- ------------  ---------------
    66      3.907639   3 C  s                36      3.197202   2 C  s         
    67     -3.014080   3 C  s                35     -2.240246   2 C  s         
     5     -1.586336   1 O  s               133      1.426565   6 H  s         
    65     -1.374568   3 C  s                76     -1.127731   3 C  pz        
   132     -1.070304   6 H  s               103      0.991555   4 C  py        
 
 Vector   68  Occ=0.000000D+00  E= 1.449666D+00
              MO Center=  2.8D-01, -8.6D-02,  1.2D-01, r^2= 3.2D+00
   Bfn.  Coefficient  Atom+Function         Bfn.  Coefficient  Atom+Function  
  ----- ------------  ---------------      ----- ------------  ---------------
    98      6.019712   4 C  s                97     -3.209075   4 C  s         
    35     -3.081706   2 C  s                45      2.721858   2 C  pz        
    66      1.959466   3 C  s               127     -1.968650   5 H  s         
     5      1.592333   1 O  s                76     -1.600129   3 C  pz        
    36     -1.530699   2 C  s               126      1.435540   5 H  s         
 
 Vector   69  Occ=0.000000D+00  E= 1.473126D+00
              MO Center=  9.6D-01, -2.6D-01, -9.7D-01, r^2= 3.5D+00
   Bfn.  Coefficient  Atom+Function         Bfn.  Coefficient  Atom+Function  
  ----- ------------  ---------------      ----- ------------  ---------------
    66      1.970712   3 C  s                36      1.565127   2 C  s         
    67     -1.317749   3 C  s                97      1.140295   4 C  s         
     5     -1.133896   1 O  s                98     -1.133093   4 C  s         
   103      1.137268   4 C  py              133      0.920185   6 H  s         
    71     -0.895712   3 C  px               65     -0.855341   3 C  s         
 
 Vector   70  Occ=0.000000D+00  E= 1.478669D+00
              MO Center=  9.5D-01, -3.8D-01, -1.0D+00, r^2= 3.3D+00
   Bfn.  Coefficient  Atom+Function         Bfn.  Coefficient  Atom+Function  
  ----- ------------  ---------------      ----- ------------  ---------------
   156     -2.739526  10 H  s                36      2.710858   2 C  s         
   157      2.113888  10 H  s               102     -2.036117   4 C  px        
    66     -1.832216   3 C  s               104     -1.819097   4 C  pz        
   103      1.660529   4 C  py              126      1.649484   5 H  s         
    35     -1.349234   2 C  s               127     -1.318628   5 H  s         
 
 Vector   71  Occ=0.000000D+00  E= 1.513105D+00
              MO Center=  3.7D-01,  1.2D-01, -3.5D-01, r^2= 4.0D+00
   Bfn.  Coefficient  Atom+Function         Bfn.  Coefficient  Atom+Function  
  ----- ------------  ---------------      ----- ------------  ---------------
    98      2.867617   4 C  s               144      1.945628   8 H  s         
   102     -1.641726   4 C  px              145     -1.438116   8 H  s         
    45      1.338966   2 C  pz              103     -1.318362   4 C  py        
    97     -1.300255   4 C  s                36     -1.177001   2 C  s         
   150     -0.895730   9 H  s               106      0.743808   4 C  py        
 
 Vector   72  Occ=0.000000D+00  E= 1.543131D+00
              MO Center=  3.7D-01,  4.2D-01, -2.4D-01, r^2= 4.6D+00
   Bfn.  Coefficient  Atom+Function         Bfn.  Coefficient  Atom+Function  
  ----- ------------  ---------------      ----- ------------  ---------------
    36      4.545796   2 C  s                35     -4.078313   2 C  s         
    98     -3.732748   4 C  s                97      3.337529   4 C  s         
    67     -2.521580   3 C  s                73      2.155244   3 C  pz        
   132     -1.712267   6 H  s               138      1.406029   7 H  s         
    34      1.394131   2 C  s               133      1.399226   6 H  s         
 
 Vector   73  Occ=0.000000D+00  E= 1.577323D+00
              MO Center=  5.0D-01, -2.5D-02, -4.3D-02, r^2= 3.3D+00
   Bfn.  Coefficient  Atom+Function         Bfn.  Coefficient  Atom+Function  
  ----- ------------  ---------------      ----- ------------  ---------------
    35      3.654084   2 C  s                36     -2.533706   2 C  s         
    40     -2.402782   2 C  px              126      1.892861   5 H  s         
    67      1.693516   3 C  s                72      1.675536   3 C  py        
    97     -1.629041   4 C  s                34     -1.443121   2 C  s         
    42     -1.302239   2 C  pz              144      1.298187   8 H  s         
 
 Vector   74  Occ=0.000000D+00  E= 1.598190D+00
              MO Center=  3.2D-01,  4.0D-01, -1.4D-01, r^2= 3.4D+00
   Bfn.  Coefficient  Atom+Function         Bfn.  Coefficient  Atom+Function  
  ----- ------------  ---------------      ----- ------------  ---------------
    36     -5.368491   2 C  s                66     -5.278670   3 C  s         
    35      5.042516   2 C  s                67      3.877868   3 C  s         
    41      3.776994   2 C  py               71     -2.525188   3 C  px        
    72      2.437302   3 C  py               40     -1.965191   2 C  px        
    98      1.838901   4 C  s                82      1.676018   3 C  d -2      
 
 Vector   75  Occ=0.000000D+00  E= 1.642367D+00
              MO Center=  4.5D-01,  2.3D-01, -3.7D-02, r^2= 3.7D+00
   Bfn.  Coefficient  Atom+Function         Bfn.  Coefficient  Atom+Function  
  ----- ------------  ---------------      ----- ------------  ---------------
    66      2.830265   3 C  s                35      1.907021   2 C  s         
    98      1.866531   4 C  s                 5     -1.768204   1 O  s         
    67     -1.541075   3 C  s                97     -1.438233   4 C  s         
   144      1.155288   8 H  s               104     -1.112589   4 C  pz        
   150     -1.068361   9 H  s               103     -1.043443   4 C  py        
 
 Vector   76  Occ=0.000000D+00  E= 1.696254D+00
              MO Center=  3.6D-01,  3.9D-01, -3.3D-01, r^2= 4.0D+00
   Bfn.  Coefficient  Atom+Function         Bfn.  Coefficient  Atom+Function  
  ----- ------------  ---------------      ----- ------------  ---------------
    97      6.039319   4 C  s                35     -5.369507   2 C  s         
    42      3.263257   2 C  pz              104      3.210252   4 C  pz        
    72      2.308942   3 C  py                5      2.113424   1 O  s         
   102     -1.729715   4 C  px              138     -1.715254   7 H  s         
    34      1.653405   2 C  s                96     -1.558658   4 C  s         
 
 Vector   77  Occ=0.000000D+00  E= 1.702640D+00
              MO Center=  1.3D-01,  1.6D-02, -1.2D-01, r^2= 3.5D+00
   Bfn.  Coefficient  Atom+Function         Bfn.  Coefficient  Atom+Function  
  ----- ------------  ---------------      ----- ------------  ---------------
     5      3.400462   1 O  s                72      2.559967   3 C  py        
    36     -2.427287   2 C  s                66     -2.397925   3 C  s         
    12      1.335982   1 O  px              138     -1.338078   7 H  s         
    41      1.253184   2 C  py               67      1.246930   3 C  s         
    43      1.112130   2 C  px               35      1.041557   2 C  s         
 
 Vector   78  Occ=0.000000D+00  E= 1.789192D+00
              MO Center=  3.3D-01,  3.0D-01,  5.5D-02, r^2= 3.5D+00
   Bfn.  Coefficient  Atom+Function         Bfn.  Coefficient  Atom+Function  
  ----- ------------  ---------------      ----- ------------  ---------------
    35      3.786938   2 C  s                97     -2.791794   4 C  s         
    36      1.667225   2 C  s                72      1.366238   3 C  py        
    45     -1.316020   2 C  pz              104     -1.171734   4 C  pz        
     5     -1.156009   1 O  s               102      1.002612   4 C  px        
    67     -0.990294   3 C  s                42     -0.969884   2 C  pz        
 
 Vector   79  Occ=0.000000D+00  E= 1.814376D+00
              MO Center= -5.3D-01,  1.8D-01,  1.5D-01, r^2= 2.7D+00
   Bfn.  Coefficient  Atom+Function         Bfn.  Coefficient  Atom+Function  
  ----- ------------  ---------------      ----- ------------  ---------------
    35      4.166066   2 C  s                 5     -3.187812   1 O  s         
    40     -2.533434   2 C  px               41      2.356888   2 C  py        
    66     -2.148467   3 C  s                72      2.093217   3 C  py        
    71     -1.796008   3 C  px               12     -1.305892   1 O  px        
   132     -0.988900   6 H  s               138     -0.977387   7 H  s         
 
 Vector   80  Occ=0.000000D+00  E= 1.842376D+00
              MO Center=  9.9D-02,  2.5D-01, -9.7D-02, r^2= 3.7D+00
   Bfn.  Coefficient  Atom+Function         Bfn.  Coefficient  Atom+Function  
  ----- ------------  ---------------      ----- ------------  ---------------
    35      2.238534   2 C  s               104     -0.990608   4 C  pz        
   156     -0.991548  10 H  s                97     -0.903757   4 C  s         
    36     -0.897913   2 C  s                71     -0.827505   3 C  px        
     5     -0.727920   1 O  s               157      0.675181  10 H  s         
   126     -0.636942   5 H  s               150      0.625497   9 H  s         
 
 Vector   81  Occ=0.000000D+00  E= 1.872656D+00
              MO Center=  4.9D-01,  1.5D-01, -4.6D-01, r^2= 4.0D+00
   Bfn.  Coefficient  Atom+Function         Bfn.  Coefficient  Atom+Function  
  ----- ------------  ---------------      ----- ------------  ---------------
    35      6.294310   2 C  s                66     -4.219418   3 C  s         
    97     -3.367569   4 C  s                72      3.327002   3 C  py        
    36      2.505024   2 C  s               104     -1.896869   4 C  pz        
    67     -1.745749   3 C  s                34     -1.569583   2 C  s         
    45     -1.487907   2 C  pz               41      1.421193   2 C  py        
 
 Vector   82  Occ=0.000000D+00  E= 1.923271D+00
              MO Center=  3.1D-01, -1.3D-01, -2.8D-01, r^2= 3.2D+00
   Bfn.  Coefficient  Atom+Function         Bfn.  Coefficient  Atom+Function  
  ----- ------------  ---------------      ----- ------------  ---------------
    36      1.280271   2 C  s                98     -1.279358   4 C  s         
   103     -1.236941   4 C  py               45     -1.227986   2 C  pz        
    35      1.145026   2 C  s                97     -1.113776   4 C  s         
    41      0.811059   2 C  py               66     -0.813203   3 C  s         
   150     -0.798188   9 H  s                42     -0.712670   2 C  pz        
 
 Vector   83  Occ=0.000000D+00  E= 1.991574D+00
              MO Center=  8.1D-01, -2.5D-01, -3.5D-01, r^2= 3.4D+00
   Bfn.  Coefficient  Atom+Function         Bfn.  Coefficient  Atom+Function  
  ----- ------------  ---------------      ----- ------------  ---------------
    98      3.648530   4 C  s                35      3.066226   2 C  s         
    66     -2.443731   3 C  s                40     -2.280252   2 C  px        
    72      1.831246   3 C  py               43     -1.604283   2 C  px        
    67     -1.600420   3 C  s                41      1.550918   2 C  py        
    36     -1.282801   2 C  s               107      1.196375   4 C  pz        
 
 Vector   84  Occ=0.000000D+00  E= 1.995760D+00
              MO Center=  6.2D-01, -9.9D-02, -7.2D-01, r^2= 3.5D+00
   Bfn.  Coefficient  Atom+Function         Bfn.  Coefficient  Atom+Function  
  ----- ------------  ---------------      ----- ------------  ---------------
    36      4.434519   2 C  s                98     -3.872638   4 C  s         
    35     -2.070693   2 C  s                45     -2.073258   2 C  pz        
    67     -1.582571   3 C  s               156      1.127854  10 H  s         
   104      1.061684   4 C  pz              107     -0.995964   4 C  pz        
     5     -0.867152   1 O  s                34      0.819569   2 C  s         
 
 Vector   85  Occ=0.000000D+00  E= 2.088489D+00
              MO Center= -4.3D-02,  1.6D-01, -1.8D-02, r^2= 3.5D+00
   Bfn.  Coefficient  Atom+Function         Bfn.  Coefficient  Atom+Function  
  ----- ------------  ---------------      ----- ------------  ---------------
    98     -2.023942   4 C  s                36      1.930863   2 C  s         
   138     -0.720116   7 H  s               156      0.722885  10 H  s         
    14     -0.667324   1 O  pz              144      0.537716   8 H  s         
   150      0.520094   9 H  s                83     -0.506268   3 C  d -1      
    73      0.480574   3 C  pz               40     -0.463453   2 C  px        
 
 Vector   86  Occ=0.000000D+00  E= 2.095968D+00
              MO Center= -3.3D-01,  4.5D-02,  2.8D-02, r^2= 3.0D+00
   Bfn.  Coefficient  Atom+Function         Bfn.  Coefficient  Atom+Function  
  ----- ------------  ---------------      ----- ------------  ---------------
    36      5.809487   2 C  s                67     -5.364234   3 C  s         
    66      3.597118   3 C  s                35     -3.485017   2 C  s         
    41     -3.154294   2 C  py               71      2.773684   3 C  px        
    13      1.821339   1 O  py               82     -1.489247   3 C  d -2      
    55      1.414120   2 C  d  2             75      1.266295   3 C  py        
 
 Vector   87  Occ=0.000000D+00  E= 2.169582D+00
              MO Center=  4.7D-01,  1.3D-02, -4.7D-01, r^2= 3.2D+00
   Bfn.  Coefficient  Atom+Function         Bfn.  Coefficient  Atom+Function  
  ----- ------------  ---------------      ----- ------------  ---------------
    67      2.038503   3 C  s                98     -2.045300   4 C  s         
    35      1.330723   2 C  s                36     -1.098756   2 C  s         
    73     -0.990182   3 C  pz              156      0.940013  10 H  s         
    40     -0.872745   2 C  px               43      0.833407   2 C  px        
    44     -0.830740   2 C  py               42      0.777736   2 C  pz        
 
 Vector   88  Occ=0.000000D+00  E= 2.200317D+00
              MO Center=  4.2D-01,  2.0D-01, -3.0D-01, r^2= 3.7D+00
   Bfn.  Coefficient  Atom+Function         Bfn.  Coefficient  Atom+Function  
  ----- ------------  ---------------      ----- ------------  ---------------
    98      2.182153   4 C  s                36     -1.298977   2 C  s         
    45      1.037061   2 C  pz               76     -0.941561   3 C  pz        
    42     -0.816521   2 C  pz              132      0.799856   6 H  s         
   103     -0.718057   4 C  py               97     -0.701591   4 C  s         
   117     -0.636125   4 C  d  2            138     -0.593082   7 H  s         
 
 Vector   89  Occ=0.000000D+00  E= 2.237876D+00
              MO Center=  8.4D-01, -1.3D-01, -3.9D-01, r^2= 3.5D+00
   Bfn.  Coefficient  Atom+Function         Bfn.  Coefficient  Atom+Function  
  ----- ------------  ---------------      ----- ------------  ---------------
    36      3.385087   2 C  s                67     -1.764900   3 C  s         
    98     -1.603246   4 C  s               150      1.105007   9 H  s         
     5     -0.961997   1 O  s                35     -0.925245   2 C  s         
    45     -0.884598   2 C  pz               42     -0.831736   2 C  pz        
    43     -0.775177   2 C  px               72     -0.695252   3 C  py        
 
 Vector   90  Occ=0.000000D+00  E= 2.244937D+00
              MO Center=  5.4D-01, -1.0D-01, -4.5D-01, r^2= 3.8D+00
   Bfn.  Coefficient  Atom+Function         Bfn.  Coefficient  Atom+Function  
  ----- ------------  ---------------      ----- ------------  ---------------
    66      1.128674   3 C  s                72     -1.109280   3 C  py        
   150     -0.972652   9 H  s               144      0.844885   8 H  s         
     5     -0.738135   1 O  s               117     -0.694384   4 C  d  2      
    83     -0.636138   3 C  d -1             42     -0.557204   2 C  pz        
   126     -0.506106   5 H  s               158     -0.491441  10 H  px        
 
 Vector   91  Occ=0.000000D+00  E= 2.266434D+00
              MO Center=  9.3D-01, -2.5D-01, -1.1D+00, r^2= 3.0D+00
   Bfn.  Coefficient  Atom+Function         Bfn.  Coefficient  Atom+Function  
  ----- ------------  ---------------      ----- ------------  ---------------
    66      2.119294   3 C  s                36      2.039425   2 C  s         
    41     -1.451097   2 C  py               67     -1.379913   3 C  s         
    98     -1.306985   4 C  s                35     -1.190611   2 C  s         
    72     -0.932130   3 C  py              156      0.890635  10 H  s         
    71      0.820374   3 C  px               76      0.786559   3 C  pz        
 
 Vector   92  Occ=0.000000D+00  E= 2.284553D+00
              MO Center=  5.8D-01,  6.3D-02, -2.1D-01, r^2= 3.6D+00
   Bfn.  Coefficient  Atom+Function         Bfn.  Coefficient  Atom+Function  
  ----- ------------  ---------------      ----- ------------  ---------------
    98      3.697534   4 C  s                66      2.610977   3 C  s         
[...]
    21     -0.882091   1 O  d -1             42     -0.799793   2 C  pz        
    97     -0.717721   4 C  s                45     -0.678931   2 C  pz        
     5     -0.546102   1 O  s                72     -0.494622   3 C  py        
    98     -0.494166   4 C  s                67     -0.482283   3 C  s         
 
 Vector  154  Occ=0.000000D+00  E= 6.683500D+00
              MO Center= -8.7D-01, -1.9D-01,  2.0D-01, r^2= 5.7D-01
   Bfn.  Coefficient  Atom+Function         Bfn.  Coefficient  Atom+Function  
  ----- ------------  ---------------      ----- ------------  ---------------
    18      1.073225   1 O  d  1             23     -1.061179   1 O  d  1      
    97     -0.920799   4 C  s                42     -0.863143   2 C  pz        
    35      0.808835   2 C  s               102      0.682044   4 C  px        
    54     -0.585527   2 C  d  1             14      0.407138   1 O  pz        
    11      0.398734   1 O  pz                5     -0.396677   1 O  s         
 
 Vector  155  Occ=0.000000D+00  E= 6.843990D+00
              MO Center= -8.8D-01, -1.9D-01,  2.0D-01, r^2= 5.9D-01
   Bfn.  Coefficient  Atom+Function         Bfn.  Coefficient  Atom+Function  
  ----- ------------  ---------------      ----- ------------  ---------------
     5      2.086690   1 O  s                40      1.923001   2 C  px        
    97     -1.401421   4 C  s                 9      1.380505   1 O  px        
     4      1.219158   1 O  s                42     -1.075290   2 C  pz        
    20      1.031069   1 O  d -2             35     -0.917825   2 C  s         
   104     -0.890102   4 C  pz               12      0.852536   1 O  px        
 
 Vector  156  Occ=0.000000D+00  E= 7.054892D+00
              MO Center= -8.8D-01, -1.9D-01,  2.0D-01, r^2= 6.4D-01
   Bfn.  Coefficient  Atom+Function         Bfn.  Coefficient  Atom+Function  
  ----- ------------  ---------------      ----- ------------  ---------------
    66     -3.157705   3 C  s                35      2.924987   2 C  s         
    72      2.680845   3 C  py               40     -2.660975   2 C  px        
    24     -1.563615   1 O  d  2             36      1.490351   2 C  s         
    67     -1.295952   3 C  s                10      1.287763   1 O  py        
    19      1.007967   1 O  d  2             13      0.879461   1 O  py        
 
 Vector  157  Occ=0.000000D+00  E= 2.192953D+01
              MO Center= -1.6D-02,  9.0D-01,  1.6D-01, r^2= 8.9D-01
   Bfn.  Coefficient  Atom+Function         Bfn.  Coefficient  Atom+Function  
  ----- ------------  ---------------      ----- ------------  ---------------
    64      1.651008   3 C  s                65     -1.430623   3 C  s         
    63     -1.301597   3 C  s                67     -1.251082   3 C  s         
    98      0.907153   4 C  s                95     -0.590194   4 C  s         
    94      0.467491   4 C  s                96      0.462989   4 C  s         
    40     -0.458963   2 C  px               35      0.420965   2 C  s         
 
 Vector  158  Occ=0.000000D+00  E= 2.199022D+01
              MO Center=  9.8D-01, -3.4D-01, -8.8D-01, r^2= 9.1D-01
   Bfn.  Coefficient  Atom+Function         Bfn.  Coefficient  Atom+Function  
  ----- ------------  ---------------      ----- ------------  ---------------
    95      1.547703   4 C  s                96     -1.421394   4 C  s         
    98     -1.339134   4 C  s                94     -1.217659   4 C  s         
    34     -0.797215   2 C  s                36     -0.738022   2 C  s         
    33      0.726375   2 C  s                67      0.600415   3 C  s         
    32     -0.566710   2 C  s                65     -0.539711   3 C  s         
 
 Vector  159  Occ=0.000000D+00  E= 2.212903D+01
              MO Center=  6.0D-01, -1.4D-01, -2.8D-02, r^2= 5.5D-01
   Bfn.  Coefficient  Atom+Function         Bfn.  Coefficient  Atom+Function  
  ----- ------------  ---------------      ----- ------------  ---------------
    36      2.251862   2 C  s                33     -1.617682   2 C  s         
    34      1.597210   2 C  s                35     -1.278863   2 C  s         
    32      1.264846   2 C  s                98     -1.226629   4 C  s         
    67     -1.142903   3 C  s                97      0.637768   4 C  s         
    95      0.621665   4 C  s                96     -0.549318   4 C  s         
 
 Vector  160  Occ=0.000000D+00  E= 4.342083D+01
              MO Center= -8.7D-01, -1.9D-01,  2.0D-01, r^2= 1.2D-01
   Bfn.  Coefficient  Atom+Function         Bfn.  Coefficient  Atom+Function  
  ----- ------------  ---------------      ----- ------------  ---------------
     4      2.524619   1 O  s                 3     -1.878799   1 O  s         
     2      1.731918   1 O  s                 1     -1.395903   1 O  s         
    36      0.907666   2 C  s                 5     -0.891768   1 O  s         
     9      0.577120   1 O  px               40      0.523310   2 C  px        
    66     -0.473050   3 C  s                72      0.409578   3 C  py        
 

 center of mass
 --------------
 x =   0.30619322 y =   0.09486516 z =  -0.27792425

 moments of inertia (a.u.)
 ------------------
         200.017209151883          44.767279754643          82.968328765649
          44.767279754643         245.518114523864         -52.471456575693
          82.968328765649         -52.471456575693         237.991165167084
 
     Multipole analysis of the density
     ---------------------------------
 
     L   x y z        total         alpha         beta         nuclear
     -   - - -        -----         -----         ----         -------
     0   0 0 0     -0.000000    -16.000000    -16.000000     32.000000
 
     1   1 0 0      0.682870     -6.230900     -6.230900     13.144671
     1   0 1 0      0.337294     -1.620782     -1.620782      3.578858
     1   0 0 1     -0.053721      5.312230      5.312230    -10.678180
 
     2   2 0 0    -20.065751    -53.939726    -53.939726     87.813702
     2   1 1 0     -1.091618     13.669826     13.669826    -28.431269
     2   1 0 1      0.176566     26.245745     26.245745    -52.314923
     2   0 2 0    -17.792867    -40.652452    -40.652452     63.512037
     2   0 1 1      0.253937    -15.351601    -15.351601     30.957140
     2   0 0 2    -18.211899    -45.503409    -45.503409     72.794919
 
 *** CALLING NEW AORESP DRIVER FOR CLOSED AND OPEN SHELLS ***
 Entering AOResponse driver routine


--------------------------------------------------------------------------------

          ****************
          *** RESPONSE ***
          ****************

 Response module for NWChem and dynamic CPKS solver
 developed by J. Autschbach and coworkers, SUNY Buffalo
 The methodology used in this program is described in 
 ChemPhysChem 12 (2011), 3224-3235 (main reference)
 J. Chem. Phys. 123 (2005), 114103
 J. Chem. Phys. 122 (2005), 224115
 J. Chem. Phys. 122 (2005), 074105
 Comp. Lett. 3 (2007), 131-150 (contact JA for a copy)
 Please cite this work in publications based on results
 obtained with this code. Thank you!

 For extension of response module to open shell
 calculations please acknowledge:
 F. Aquino, Northwestern University, Schatz Rsrch Group
 The update to the methodology is described in
 J. Phys. Chem. A 118 (2014) 517-525



          -----------------------------------------------
          Solving response equations for perturbing field
          -----------------------------------------------

 number of frequencies:     1
 frequency in a.u.:  0.9319600E-01
 Perturbing field: electric
 Using GIAO formalism for OptRot
 Adding quadrupole terms to OptRot
 to create an origin in dependent tensor.
 Using El. Dipole Length Gauge
 
 Applying DAMPING constant of  0.003700 a.u.
 
 Setting up CPKS
 with frequency omega =      0.09319600 a.u.
 and a damping of            0.00370000 a.u.

 
                            NWChem Dynamic CPHF Module
                            --------------------------
 
 
    scftype = RHF 
    nclosed =   16
      nopen =    0
  variables =     9216
  num. vecs =        3
  tolerance =   1.0D-07
  max. iter =  100

 SCF residual:   5.594439893051163E-006


Iterative solution of linear equations
  No. of variables     4608
  No. of equations        3
  Maximum subspace       99
       Convergence  1.0D-07
        Start time     84.9


   iter   nsub   residual    time 
   ----  ------  --------  --------- 
 dft_CPHF2_read: failed to open
 ./methyloxirane_blyp-def2-tzvp_488.9_28.inp.aoresp_fiao_f1
     1      3    3.97D+00     127.9
     2      6    2.65D+00     171.1
     3      9    2.44D-01     214.3
     4     12    5.72D-02     257.5
     5     15    1.01D-02     300.8
     6     18    1.27D-03     344.0
     7     21    1.50D-04     387.2
     8     24    1.44D-05     430.5
     9     27    1.20D-06     473.7
    10     30    4.87D-07     517.2
    11     33    1.35D-08     560.4

 Calculating some arrays needed for GIAO optical rotation

    0 giaofock schwarz done =      92.16%
    0 giaofock schwarz done =      92.16%
 aor_r1_tensor_giao: roadata output requested
 dip-quad polarizability Re:

              1        2        3        4        5        6      
    1   77.3380  -6.1957 -26.9449  -4.4064   1.2072   8.8069
    2  -11.7820  25.6342   3.3833  23.6725 -21.4099   4.0116
    3   -6.1216   1.1529  39.2808  -0.0809  13.8420 -41.0614
 traceless dip-quad polarizability:

              1        2        3      
    1   75.1377  -9.2936 -40.4174
    2   -9.2936 -47.4789   1.8108
    3  -40.4174   1.8108 -27.6589

              1        2        3      
    1  -25.6241  38.4513   5.0750
    2   38.4513  27.5577 -32.1148
    3    5.0750 -32.1148  -1.9336

              1        2        3      
    1   14.4495   1.7293  58.9211
    2    1.7293  23.5107  20.7631
    3   58.9211  20.7631 -37.9602

 roa begin

 alpha real:
 XX       0.4080971669644E+02
 XY      -0.5085149009665E+01
 XZ      -0.2817639540305E+01
 YX      -0.5085149018117E+01
 YY       0.4413322077399E+02
 YZ       0.3184496654337E+01
 ZX      -0.2817639547763E+01
 ZY       0.3184496656163E+01
 ZZ       0.4141491662104E+02

 alpha im:
 XX       0.1103679305138E+00
 XY      -0.2935832782888E-01
 XZ      -0.9549959708662E-02
 YX      -0.2935832216947E-01
 YY       0.1298885165086E+00
 YZ       0.1832345975366E-01
 ZX      -0.9549954177633E-02
 ZY       0.1832345774866E-01
 ZZ       0.1224093822800E+00

 beta real:
 XX      -0.1428407724718E+00
 XY       0.9586310532813E+00
 XZ       0.2099099900606E+00
 YX      -0.8853555841149E+00
 YY       0.1394000898518E+00
 YZ      -0.1534246649348E+01
 ZX      -0.4829415688662E+00
 ZY       0.1867487521457E+01
 ZZ      -0.3484365387720E-02

 G-prime = -omega beta(real):
 XX      -0.1428407724718E+00
 XY       0.9586310532813E+00
 XZ       0.2099099900606E+00
 YX      -0.8853555841149E+00
 YY       0.1394000898518E+00
 YZ      -0.1534246649348E+01
 ZX      -0.4829415688662E+00
 ZY       0.1867487521457E+01
 ZZ      -0.3484365387720E-02

 beta im:
 XX      -0.6107802725127E-02
 XY       0.1449080326608E-01
 XZ       0.3016763395335E-02
 YX      -0.7675905574491E-02
 YY       0.4451521748146E-02
 YZ      -0.2306666479579E-01
 ZX      -0.1345958428045E-01
 ZY       0.4002146801291E-01
 ZZ       0.7257590328957E-03

 G-prime = -omega beta(imag):
 XX      -0.6107802725127E-02
 XY       0.1449080326608E-01
 XZ       0.3016763395335E-02
 YX      -0.7675905574491E-02
 YY       0.4451521748146E-02
 YZ      -0.2306666479579E-01
 ZX      -0.1345958428045E-01
 ZY       0.4002146801291E-01
 ZZ       0.7257590328957E-03

 dipole-quadrupole real (Cartesian):
 XXX      0.7733800645783E+02
 XXY     -0.6195717729698E+01
 XXZ     -0.2694490316902E+02
 XYY     -0.4406408111733E+01
 XYZ      0.1207188311983E+01
 XZZ      0.8806923573457E+01
 YXX     -0.1178200882555E+02
 YXY      0.2563422455991E+02
 YXZ      0.3383342142835E+01
 YYY      0.2367247986548E+02
 YYZ     -0.2140988799197E+02
 YZZ      0.4011634207045E+01
 ZXX     -0.6121619745147E+01
 ZXY      0.1152890064536E+01
 ZXZ      0.3928075567046E+02
 ZYY     -0.8085756031497E-01
 ZYZ      0.1384204093315E+02
 ZZZ     -0.4106139821052E+02

 dipole-quadrupole imag (Cartesian):
 XXX      0.2733804598135E+00
 XXY     -0.3572573725615E-01
 XXZ     -0.7185735689509E-01
 XYY     -0.2769755048500E-01
 XYZ      0.1266033950763E-02
 XZZ      0.5995018966642E-01
 YXX     -0.5742844072599E-01
 YXY      0.6328376317222E-01
 YXZ      0.1865184224163E-01
 YYY      0.9147730766768E-01
 YYZ     -0.5900364052676E-01
 YZZ      0.8083914265966E-02
 ZXX     -0.3120632212596E-01
 ZXY     -0.6635687509731E-03
 ZXZ      0.1474365309590E+00
 ZYY      0.6213268498242E-02
 ZYZ      0.6244942311051E-01
 ZZZ     -0.9639699310176E-01

 dipole-quadrupole (traceless):
 XXX      0.7513774872697E+02
 XXY     -0.9293576594548E+01
 XXZ     -0.4041735475353E+02
 XYY     -0.4747887312738E+02
 XYZ      0.1810782467975E+01
 XZZ     -0.2765887559959E+02
 YXX     -0.2562406586182E+02
 YXY      0.3845133683987E+02
 YXZ      0.5075013214253E+01
 YYY      0.2755766717473E+02
 YYZ     -0.3211483198796E+02
 YZZ     -0.1933601312918E+01
 ZXX      0.1444950814027E+02
 ZXY      0.1729335096803E+01
 ZXZ      0.5892113350570E+02
 ZYY      0.2351065141752E+02
 ZYZ      0.2076306139972E+02
 ZZZ     -0.3796015955779E+02

 roa end


 Electric Dipole Response Matrix (nonzero elements):

              1        2        3      
    1   40.8097  -5.0851  -2.8176
    2   -5.0851  44.1332   3.1845
    3   -2.8176   3.1845  41.4149
 
 Imaginary part:

              1        2        3      
    1    0.1104  -0.0294  -0.0095
    2   -0.0294   0.1299   0.0183
    3   -0.0095   0.0183   0.1224

 ------------------------------------------
 average:        42.11928 + I       0.12089


 DFT Linear Response polarizability / au 
 Frequency  =       0.0931960 / au
 Wavelength =     488.8981609 / nm
              X              Y              Z
 -----------------------------------------------
 X      40.8097167     -5.0851490     -2.8176395
 Y      -5.0851490     44.1332208      3.1844967
 Z      -2.8176395      3.1844967     41.4149166
 -----------------------------------------------
 Eigenvalues =      37.0588471     49.9283624     39.3706447
 Isotropic   =      42.1192847
 Anisotropic =       9.7028215
 -----------------------------------------------
 *************************

 DFT Linear Response IMAG polarizability / au 
 Frequency  =       0.0931960 / au
 Wavelength =     488.8981609 / nm
              X              Y              Z
 -----------------------------------------------
 X       0.1103679     -0.0293583     -0.0095500
 Y      -0.0293583      0.1298885      0.0183235
 Z      -0.0095500      0.0183235      0.1224094
 -----------------------------------------------
 Eigenvalues =       0.0888602      0.1617321      0.1120735
 Isotropic   =       0.1208886
 Anisotropic =       0.0526471
 -----------------------------------------------
 *************************

 Magnetic Dipole Response Matrix (nonzero elements):
 Optical rotation tensor Beta
 (Buckingham-Dunn version including dipole-quadrupole terms)

              1        2        3      
    1    2.6479  -0.5196   0.4038
    2   -0.5196  -1.5229  -1.6795
    3    0.4038  -1.6795  -1.0507
 
 Imaginary part:

              1        2        3      
    1    0.0655  -0.1555  -0.0324
    2    0.0824  -0.0478   0.2475
    3    0.1444  -0.4294  -0.0078

 ------------------------------------------
 average:         0.02477 + I       0.00333

 Principal components and PAS (Real part)
                 -2.98581
                  2.82336
                  0.23675
 ------------------------
 average:         0.02477

              1        2        3      
    1    0.0231   0.9658  -0.2581
    2    0.7574  -0.1854  -0.6261
    3    0.6526   0.1811   0.7358

 Chiral response tensor (Real part):

              1        2        3      
    1   -1.2868   0.2598  -0.2019
    2    0.2598   0.7986   0.8398
    3   -0.2019   0.8398   0.5625
 
 Principal components and PAS (Real part)
                  1.53006
                 -1.37453
                 -0.08122
 ------------------------
 average:         0.02477

              1        2        3      
    1    0.0231   0.9658  -0.2581
    2    0.7574  -0.1854  -0.6261
    3    0.6526   0.1811   0.7358
 Exiting AOResponse driver routine

 Task  times  cpu:      541.3s     wall:      554.9s
 
 
                                NWChem Input Module
                                -------------------
 
 
 Summary of allocated global arrays
-----------------------------------
  No active global arrays



                         GA Statistics for process    0
                         ------------------------------

       create   destroy   get      put      acc     scatter   gather  read&inc
calls: 3294     3294     6.53e+06 3.14e+06 7.63e+05 2694        0     1263     
number of processes/call 1.01e+00 1.03e+00 1.43e+00 0.00e+00 0.00e+00
bytes total:             1.81e+09 1.26e+08 1.82e+09 1.84e+02 0.00e+00 1.01e+04
bytes remote:            8.01e+08 3.29e+07 1.06e+09 0.00e+00 0.00e+00 0.00e+00
Max memory consumed for GA by this process: 11242192 bytes
 
MA_summarize_allocated_blocks: starting scan ...
MA_summarize_allocated_blocks: scan completed: 0 heap blocks, 0 stack blocks
MA usage statistics:

	allocation statistics:
					      heap	     stack
					      ----	     -----
	current number of blocks	         0	         0
	maximum number of blocks	        24	        52
	current total bytes		         0	         0
	maximum total bytes		   7519856	  48839464
	maximum total K-bytes		      7520	     48840
	maximum total M-bytes		         8	        49
 
 
                                     CITATION
                                     --------
                Please cite the following reference when publishing
                           results obtained with NWChem:
 
                 M. Valiev, E.J. Bylaska, N. Govind, K. Kowalski,
              T.P. Straatsma, H.J.J. van Dam, D. Wang, J. Nieplocha,
                        E. Apra, T.L. Windus, W.A. de Jong
                 "NWChem: a comprehensive and scalable open-source
                  solution for large scale molecular simulations"
                      Comput. Phys. Commun. 181, 1477 (2010)
                           doi:10.1016/j.cpc.2010.04.018
 
                                      AUTHORS
                                      -------
          E. Apra, E. J. Bylaska, W. A. de Jong, N. Govind, K. Kowalski,
       T. P. Straatsma, M. Valiev, H. J. J. van Dam, D. Wang, T. L. Windus,
        J. Hammond, J. Autschbach, K. Bhaskaran-Nair, J. Brabec, K. Lopata,
    S. A. Fischer, S. Krishnamoorthy, M. Jacquelin, W. Ma, M. Klemm, O. Villa,
      Y. Chen, V. Anisimov, F. Aquino, S. Hirata, M. T. Hackler, V. Konjkov,
            D. Mejia-Rodriguez, T. Risthaus, M. Malagoli, A. Marenich,
   A. Otero-de-la-Roza, J. Mullin, P. Nichols, R. Peverati, J. Pittner, Y. Zhao,
        P.-D. Fan, A. Fonari, M. J. Williamson, R. J. Harrison, J. R. Rehr,
      M. Dupuis, D. Silverstein, D. M. A. Smith, J. Nieplocha, V. Tipparaju,
    M. Krishnan, B. E. Van Kuiken, A. Vazquez-Mayagoitia, L. Jensen, M. Swart,
      Q. Wu, T. Van Voorhis, A. A. Auer, M. Nooijen, L. D. Crosby, E. Brown,
      G. Cisneros, G. I. Fann, H. Fruchtl, J. Garza, K. Hirao, R. A. Kendall,
      J. A. Nichols, K. Tsemekhman, K. Wolinski, J. Anchell, D. E. Bernholdt,
      P. Borowski, T. Clark, D. Clerc, H. Dachsel, M. J. O. Deegan, K. Dyall,
    D. Elwood, E. Glendening, M. Gutowski, A. C. Hess, J. Jaffe, B. G. Johnson,
     J. Ju, R. Kobayashi, R. Kutteh, Z. Lin, R. Littlefield, X. Long, B. Meng,
      T. Nakajima, S. Niu, L. Pollack, M. Rosing, K. Glaesemann, G. Sandrone,
      M. Stave, H. Taylor, G. Thomas, J. H. van Lenthe, A. T. Wong, Z. Zhang.

 Total times  cpu:      607.5s     wall:      622.3s
