 argument  1 = methyloxirane_blyp-def2-tzvp_488.9_02.inp
 


============================== echo of input deck ==============================
echo
start methyloxirane_blyp-def2-tzvp_488.9_02.inp
title "methyloxirane roa calculations at 488.9 nm, input generated in va  with delta_type=2"
charge 0



geometry units angstrom nocenter noautoz noautosym nucleus point;symmetry c1
 O -0.882823 -0.179931  0.212098
 C  0.570637 -0.164629  0.123658
 C -0.181363  1.086550  0.332474
 C  1.187404 -0.514559 -1.211452
 H  1.055677 -0.610015  0.999018
 H -0.220446  1.548688  1.322235
 H -0.317653  1.771195 -0.509357
 H  2.242697 -0.205194 -1.233484
 H  1.150129 -1.597883 -1.390959
 H  0.658945 -0.010439 -2.030161
end

basis spherical
* library def2-TZVP
end

 set prop:newaoresp 1
 set aor:roadata T
 set cphf:maxsub 100
 set cphf:acc 1.0d-10
 set cphf:maxiter 100

property
    response 1   0.093196
    bdtensor
    convergence 1e-7
    damping 0.0037
    giao
end

dft
 direct
 mult 1
 xc becke88 lyp
 iterations 250
 tolerances tight
 grid xfine
 convergence nolevelshifting
 convergence energy 1e-8
 convergence gradient 1e-7


end

task dft gradient
task dft property
================================================================================


                                         
                                         
 
 
              Northwest Computational Chemistry Package (NWChem) 6.8
              ------------------------------------------------------
 
 
                    Environmental Molecular Sciences Laboratory
                       Pacific Northwest National Laboratory
                                Richland, WA 99352
 
                              Copyright (c) 1994-2017
                       Pacific Northwest National Laboratory
                            Battelle Memorial Institute
 
             NWChem is an open-source computational chemistry package
                        distributed under the terms of the
                      Educational Community License (ECL) 2.0
             A copy of the license is included with this distribution
                              in the LICENSE.TXT file
 
                                  ACKNOWLEDGMENT
                                  --------------

            This software and its documentation were developed at the
            EMSL at Pacific Northwest National Laboratory, a multiprogram
            national laboratory, operated for the U.S. Department of Energy
            by Battelle under Contract Number DE-AC05-76RL01830. Support
            for this work was provided by the Department of Energy Office
            of Biological and Environmental Research, Office of Basic
            Energy Sciences, and the Office of Advanced Scientific Computing.


           Job information
           ---------------

    hostname        = cpn-f11-18-01.cbls.ccr.buffalo.edu
    program         = /util/academic/nwchem/nwchem-6.8/bin/LINUX64/nwchem
    date            = Fri Mar  1 09:54:12 2019

    compiled        = Tue_Nov_06_14:59:08_2018
    source          = /util/academic/nwchem/nwchem-6.8
    nwchem branch   = 6.8
    nwchem revision = v6.8-47-gdf6c956
    ga revision     = ga-5.6.3
    use scalapack   = F
    input           = methyloxirane_blyp-def2-tzvp_488.9_02.inp
    prefix          = methyloxirane_blyp-def2-tzvp_488.9_02.inp.
    data base       = ./methyloxirane_blyp-def2-tzvp_488.9_02.inp.db
    status          = startup
    nproc           =        7
    time left       =     -1s



           Memory information
           ------------------

    heap     =   13107196 doubles =    100.0 Mbytes
    stack    =   13107201 doubles =    100.0 Mbytes
    global   =   26214400 doubles =    200.0 Mbytes (distinct from heap & stack)
    total    =   52428797 doubles =    400.0 Mbytes
    verify   = yes
    hardfail = no 


           Directory information
           ---------------------
 
  0 permanent = .
  0 scratch   = .
 
 
 
 
                                NWChem Input Module
                                -------------------
 
 
                    methyloxirane roa calculations at 488.9 nm, input generated in va  with delta_type=2
                    ------------------------------------------

 Scaling coordinates for geometry "geometry" by  1.889725989
 (inverse scale =  0.529177249)

 
 
                             Geometry "geometry" -> ""
                             -------------------------
 
 Output coordinates in angstroms (scale by  1.889725989 to convert to a.u.)
 
  No.       Tag          Charge          X              Y              Z
 ---- ---------------- ---------- -------------- -------------- --------------
    1 O                    8.0000    -0.88282300    -0.17993100     0.21209800
    2 C                    6.0000     0.57063700    -0.16462900     0.12365800
    3 C                    6.0000    -0.18136300     1.08655000     0.33247400
    4 C                    6.0000     1.18740400    -0.51455900    -1.21145200
    5 H                    1.0000     1.05567700    -0.61001500     0.99901800
    6 H                    1.0000    -0.22044600     1.54868800     1.32223500
    7 H                    1.0000    -0.31765300     1.77119500    -0.50935700
    8 H                    1.0000     2.24269700    -0.20519400    -1.23348400
    9 H                    1.0000     1.15012900    -1.59788300    -1.39095900
   10 H                    1.0000     0.65894500    -0.01043900    -2.03016100
 
      Atomic Mass 
      ----------- 
 
      O                 15.994910
      C                 12.000000
      H                  1.007825
 

 Effective nuclear repulsion energy (a.u.)     123.5348994082

            Nuclear Dipole moment (a.u.) 
            ----------------------------
        X                 Y               Z
 ---------------- ---------------- ----------------
    13.1654053782     3.5925127235   -10.7295693659
 
 
            XYZ format geometry
            -------------------
    10
 geometry
 O                    -0.88282300    -0.17993100     0.21209800
 C                     0.57063700    -0.16462900     0.12365800
 C                    -0.18136300     1.08655000     0.33247400
 C                     1.18740400    -0.51455900    -1.21145200
 H                     1.05567700    -0.61001500     0.99901800
 H                    -0.22044600     1.54868800     1.32223500
 H                    -0.31765300     1.77119500    -0.50935700
 H                     2.24269700    -0.20519400    -1.23348400
 H                     1.15012900    -1.59788300    -1.39095900
 H                     0.65894500    -0.01043900    -2.03016100
 
 ==============================================================================
                                internuclear distances
 ------------------------------------------------------------------------------
       center one      |      center two      | atomic units |  angstroms
 ------------------------------------------------------------------------------
    2 C                |   1 O                |     2.75187  |     1.45623
    3 C                |   1 O                |     2.74532  |     1.45276
    3 C                |   2 C                |     2.78666  |     1.47464
    4 C                |   2 C                |     2.85678  |     1.51174
    5 H                |   2 C                |     2.06999  |     1.09539
    6 H                |   3 C                |     2.06554  |     1.09304
    7 H                |   3 C                |     2.06663  |     1.09361
    8 H                |   4 C                |     2.07856  |     1.09993
    9 H                |   4 C                |     2.07629  |     1.09873
   10 H                |   4 C                |     2.07327  |     1.09713
 ------------------------------------------------------------------------------
                         number of included internuclear distances:         10
 ==============================================================================



 ==============================================================================
                                 internuclear angles
 ------------------------------------------------------------------------------
        center 1       |       center 2       |       center 3       |  degrees
 ------------------------------------------------------------------------------
    2 C                |   1 O                |   3 C                |    60.92
    2 C                |   1 O                |   3 C                |    60.92
    1 O                |   2 C                |   4 C                |   117.28
    1 O                |   2 C                |   5 H                |   112.90
    3 C                |   2 C                |   4 C                |   121.97
    3 C                |   2 C                |   5 H                |   117.23
    4 C                |   2 C                |   5 H                |   115.53
    3 C                |   1 O                |   2 C                |    60.92
    1 O                |   3 C                |   6 H                |   115.24
    1 O                |   3 C                |   7 H                |   114.95
    2 C                |   3 C                |   6 H                |   120.34
    2 C                |   3 C                |   7 H                |   119.06
    6 H                |   3 C                |   7 H                |   115.33
    2 C                |   4 C                |   8 H                |   110.12
    2 C                |   4 C                |   9 H                |   111.02
    2 C                |   4 C                |  10 H                |   110.86
    8 H                |   4 C                |   9 H                |   107.85
    8 H                |   4 C                |  10 H                |   108.54
    9 H                |   4 C                |  10 H                |   108.35
 ------------------------------------------------------------------------------
                            number of included internuclear angles:         19
 ==============================================================================



  warning:::::::::::::: from_environment
  NWCHEM_BASIS_LIBRARY set to: <
 /util/academic/nwchem/nwchem-6.8/src/basis/libraries>
  but file does not exist !
  using .nwchemrc or compiled library


 Summary of "ao basis" -> "" (spherical)
 ------------------------------------------------------------------------------
       Tag                 Description            Shells   Functions and Types
 ---------------- ------------------------------  ------  ---------------------
 *                         def2-TZVP                  on all atoms 


 
                                 NWChem DFT Module
                                 -----------------
 
 
                    methyloxirane roa calculations at 488.9 nm, input generated in va  with delta_type=2
 
 
                      Basis "ao basis" -> "ao basis" (spherical)
                      -----
  O (Oxygen)
  ----------
            Exponent  Coefficients 
       -------------- ---------------------------------------------------------
  1 S  2.70323826E+04  0.000217
  1 S  4.05238714E+03  0.001684
  1 S  9.22327227E+02  0.008740
  1 S  2.61240710E+02  0.035240
  1 S  8.53546414E+01  0.111535
  1 S  3.10350352E+01  0.255890
 
  2 S  1.22608607E+01  0.397687
  2 S  4.99870760E+00  0.246278
 
  3 S  1.17031082E+00  1.000000
 
  4 S  4.64747410E-01  1.000000
 
  5 S  1.85045364E-01  1.000000
 
  6 P  6.32749548E+01  0.006069
  6 P  1.46270494E+01  0.041913
  6 P  4.45012235E+00  0.161538
  6 P  1.52757996E+00  0.357070
 
  7 P  5.29351179E-01  1.000000
 
  8 P  1.74784213E-01  1.000000
 
  9 D  2.31400000E+00  1.000000
 
 10 D  6.45000000E-01  1.000000
 
 11 F  1.42800000E+00  1.000000
 
  C (Carbon)
  ----------
            Exponent  Coefficients 
       -------------- ---------------------------------------------------------
  1 S  1.35753497E+04  0.000222
  1 S  2.03523337E+03  0.001723
  1 S  4.63225624E+02  0.008926
  1 S  1.31200196E+02  0.035728
  1 S  4.28530159E+01  0.110763
  1 S  1.55841858E+01  0.242956
 
  2 S  6.20671385E+00  0.414403
  2 S  2.57648965E+00  0.237450
 
  3 S  5.76963394E-01  1.000000
 
  4 S  2.29728314E-01  1.000000
 
  5 S  9.51644400E-02  1.000000
 
  6 P  3.46972322E+01  0.005333
  6 P  7.95826228E+00  0.035864
  6 P  2.37808269E+00  0.142159
  6 P  8.14332082E-01  0.342705
 
  7 P  2.88875473E-01  1.000000
 
  8 P  1.00568237E-01  1.000000
 
  9 D  1.09700000E+00  1.000000
 
 10 D  3.18000000E-01  1.000000
 
 11 F  7.61000000E-01  1.000000
 
  H (Hydrogen)
  ------------
            Exponent  Coefficients 
       -------------- ---------------------------------------------------------
  1 S  3.40613410E+01  0.006025
  1 S  5.12357460E+00  0.045021
  1 S  1.16466260E+00  0.201897
 
  2 S  3.27230410E-01  1.000000
 
  3 S  1.03072410E-01  1.000000
 
  4 P  8.00000000E-01  1.000000
 


 Summary of "ao basis" -> "ao basis" (spherical)
 ------------------------------------------------------------------------------
       Tag                 Description            Shells   Functions and Types
 ---------------- ------------------------------  ------  ---------------------
 O                         def2-TZVP                11       31   5s3p2d1f
 C                         def2-TZVP                11       31   5s3p2d1f
 H                         def2-TZVP                 4        6   3s1p




 Summary of "ao basis" -> "ao basis" (spherical)
 ------------------------------------------------------------------------------
       Tag                 Description            Shells   Functions and Types
 ---------------- ------------------------------  ------  ---------------------
 O                         def2-TZVP                11       31   5s3p2d1f
 C                         def2-TZVP                11       31   5s3p2d1f
 H                         def2-TZVP                 4        6   3s1p


  Caching 1-el integrals 
  itol2e modified to match energy
  convergence criterion.
  tol_rho modified to match energy
  convergence criterion.
 
            General Information
            -------------------
          SCF calculation type: DFT
          Wavefunction type:  closed shell.
          No. of atoms     :    10
          No. of electrons :    32
           Alpha electrons :    16
            Beta electrons :    16
          Charge           :     0
          Spin multiplicity:     1
          Use of symmetry is: off; symmetry adaption is: off
          Maximum number of iterations: 250
          This is a Direct SCF calculation.
          AO basis - number of functions:   160
                     number of shells:    68
          Convergence on energy requested:  1.00D-08
          Convergence on density requested:  1.00D-05
          Convergence on gradient requested:  1.00D-07
 
              XC Information
              --------------
                    Becke 1988 Exchange Functional  1.000          
              Lee-Yang-Parr Correlation Functional  1.000          
 
             Grid Information
             ----------------
          Grid used for XC integration:  xfine     
          Radial quadrature: Mura-Knowles        
          Angular quadrature: Lebedev. 
          Tag              B.-S. Rad. Rad. Pts. Rad. Cut. Ang. Pts.
          ---              ---------- --------- --------- ---------
          O                   0.60      100          11.0      1454
          C                   0.70      100          11.0      1454
          H                   0.35      100          12.0      1202
          Grid pruning is: on 
          Number of quadrature shells:  1000
          Spatial weights used:  Erf1
 
          Convergence Information
          -----------------------
          Convergence aids based upon iterative change in 
          total energy or number of iterations. 
          Levelshifting, if invoked, occurs when the 
          HOMO/LUMO gap drops below (HL_TOL):  1.00D-02
          DIIS, if invoked, will attempt to extrapolate 
          using up to (NFOCK): 10 stored Fock matrices.

                    Damping( 0%)  Levelshifting(0.0)       DIIS
                  --------------- ------------------- ---------------
          dE  on:    start             N/A                start   
          dE off:    2 iters           N/A              250 iters 

 
      Screening Tolerance Information
      -------------------------------
          Density screening/tol_rho:  1.00D-11
          AO Gaussian exp screening on grid/accAOfunc:  18
          CD Gaussian exp screening on grid/accCDfunc:  20
          XC Gaussian exp screening on grid/accXCfunc:  20
          Schwarz screening/accCoul:  1.00D-09

 
      Superposition of Atomic Density Guess
      -------------------------------------
 
 Sum of atomic energies:        -190.79714706
 
      Non-variational initial energy
      ------------------------------

 Total energy =    -193.161786
 1-e energy   =    -502.031902
 2-e energy   =     185.335217
 HOMO         =      -0.352116
 LUMO         =       0.090028
 
   Time after variat. SCF:      0.6
   Time prior to 1st pass:      0.6

 Grid_pts file          = ./methyloxirane_blyp-def2-tzvp_488.9_02.inp.gridpts.0
 Record size in doubles =  12289        No. of grid_pts per rec  =   3070
 Max. records in memory =     76        Max. recs in file   =    554552


           Memory utilization after 1st SCF pass: 
           Heap Space remaining (MW):       12.17            12167540
          Stack Space remaining (MW):       13.11            13106124

   convergence    iter        energy       DeltaE   RMS-Dens  Diis-err    time
 ---------------- ----- ----------------- --------- --------- ---------  ------
 d= 0,ls=0.0,diis     1   -193.0202648193 -3.17D+02  9.26D-03  1.06D+00     6.4
 d= 0,ls=0.0,diis     2   -192.8590601303  1.61D-01  7.69D-03  2.55D+00    11.9
 d= 0,ls=0.0,diis     3   -193.0768976024 -2.18D-01  1.83D-03  3.89D-01    17.4
 d= 0,ls=0.0,diis     4   -193.1072657626 -3.04D-02  6.81D-04  1.82D-02    22.9
 d= 0,ls=0.0,diis     5   -193.1089314048 -1.67D-03  2.94D-04  2.71D-03    28.4
 d= 0,ls=0.0,diis     6   -193.1092692667 -3.38D-04  3.04D-05  3.56D-05    33.9
 d= 0,ls=0.0,diis     7   -193.1092734820 -4.22D-06  8.45D-06  4.21D-06    39.3
 d= 0,ls=0.0,diis     8   -193.1092739461 -4.64D-07  2.16D-06  3.14D-07    44.8
 d= 0,ls=0.0,diis     9   -193.1092739799 -3.38D-08  7.04D-07  1.94D-08    50.3
 d= 0,ls=0.0,diis    10   -193.1092739821 -2.16D-09  2.07D-07  2.80D-09    55.9


         Total DFT energy =     -193.109273982086
      One electron energy =     -505.685875930559
           Coulomb energy =      216.062300171950
    Exchange-Corr. energy =      -27.020597631653
 Nuclear repulsion energy =      123.534899408175

 Numeric. integr. density =       31.999999886870

     Total iterative time =     55.3s


 
                       DFT Final Molecular Orbital Analysis
                       ------------------------------------
 
 Vector    1  Occ=2.000000D+00  E=-1.877993D+01
              MO Center= -8.8D-01, -1.8D-01,  2.1D-01, r^2= 1.5D-02
   Bfn.  Coefficient  Atom+Function         Bfn.  Coefficient  Atom+Function  
  ----- ------------  ---------------      ----- ------------  ---------------
     2      0.638477   1 O  s                 1      0.435422   1 O  s         
     3      0.039894   1 O  s                 4     -0.033278   1 O  s         
 
 Vector    2  Occ=2.000000D+00  E=-9.963227D+00
              MO Center=  5.7D-01, -1.6D-01,  1.2D-01, r^2= 2.8D-02
   Bfn.  Coefficient  Atom+Function         Bfn.  Coefficient  Atom+Function  
  ----- ------------  ---------------      ----- ------------  ---------------
    33      0.606919   2 C  s                32      0.467264   2 C  s         
    34      0.042408   2 C  s                36      0.037327   2 C  s         
    35     -0.026831   2 C  s         
 
 Vector    3  Occ=2.000000D+00  E=-9.955345D+00
              MO Center= -1.8D-01,  1.1D+00,  3.3D-01, r^2= 2.8D-02
   Bfn.  Coefficient  Atom+Function         Bfn.  Coefficient  Atom+Function  
  ----- ------------  ---------------      ----- ------------  ---------------
    64      0.607029   3 C  s                63      0.467224   3 C  s         
    65      0.039712   3 C  s         
 
 Vector    4  Occ=2.000000D+00  E=-9.908108D+00
              MO Center=  1.2D+00, -5.1D-01, -1.2D+00, r^2= 2.8D-02
   Bfn.  Coefficient  Atom+Function         Bfn.  Coefficient  Atom+Function  
  ----- ------------  ---------------      ----- ------------  ---------------
    95      0.606962   4 C  s                94      0.467215   4 C  s         
    96      0.040601   4 C  s                98      0.035665   4 C  s         
 
 Vector    5  Occ=2.000000D+00  E=-9.622473D-01
              MO Center= -4.7D-01,  5.5D-02,  2.1D-01, r^2= 6.5D-01
   Bfn.  Coefficient  Atom+Function         Bfn.  Coefficient  Atom+Function  
  ----- ------------  ---------------      ----- ------------  ---------------
     4      0.375248   1 O  s                 3      0.277474   1 O  s         
     2     -0.192793   1 O  s                34      0.139860   2 C  s         
    65      0.139131   3 C  s                 5      0.122768   1 O  s         
    35      0.105058   2 C  s                 6      0.093533   1 O  px        
    66      0.093777   3 C  s                69     -0.091351   3 C  py        
 
 Vector    6  Occ=2.000000D+00  E=-6.701232D-01
              MO Center=  9.4D-01, -3.8D-01, -7.7D-01, r^2= 1.5D+00
   Bfn.  Coefficient  Atom+Function         Bfn.  Coefficient  Atom+Function  
  ----- ------------  ---------------      ----- ------------  ---------------
    97      0.284815   4 C  s                96      0.275769   4 C  s         
    35      0.184740   2 C  s                34      0.174544   2 C  s         
    95     -0.173667   4 C  s                 4     -0.149157   1 O  s         
    33     -0.109032   2 C  s                 3     -0.104260   1 O  s         
    94     -0.083213   4 C  s                 5     -0.073829   1 O  s         
 
 Vector    7  Occ=2.000000D+00  E=-5.895629D-01
              MO Center= -1.2D-01,  7.2D-01,  2.1D-01, r^2= 2.0D+00
   Bfn.  Coefficient  Atom+Function         Bfn.  Coefficient  Atom+Function  
  ----- ------------  ---------------      ----- ------------  ---------------
    66      0.326666   3 C  s                65      0.278296   3 C  s         
     4     -0.237038   1 O  s                64     -0.172025   3 C  s         
     3     -0.167547   1 O  s                 5     -0.147194   1 O  s         
     2      0.110590   1 O  s                38      0.105232   2 C  py        
   132      0.102766   6 H  s                97     -0.101482   4 C  s         
 
 Vector    8  Occ=2.000000D+00  E=-5.300580D-01
              MO Center=  4.2D-01,  1.0D-02, -9.6D-02, r^2= 2.7D+00
   Bfn.  Coefficient  Atom+Function         Bfn.  Coefficient  Atom+Function  
  ----- ------------  ---------------      ----- ------------  ---------------
    35      0.303813   2 C  s                34      0.225665   2 C  s         
    97     -0.154459   4 C  s                66     -0.151821   3 C  s         
    33     -0.138785   2 C  s               126      0.133362   5 H  s         
    96     -0.128294   4 C  s                 6      0.106474   1 O  px        
   125      0.106586   5 H  s                65     -0.098233   3 C  s         
 
 Vector    9  Occ=2.000000D+00  E=-4.479314D-01
              MO Center=  1.2D-01,  2.8D-01,  2.4D-01, r^2= 2.5D+00
   Bfn.  Coefficient  Atom+Function         Bfn.  Coefficient  Atom+Function  
  ----- ------------  ---------------      ----- ------------  ---------------
    70      0.208943   3 C  pz               39      0.155538   2 C  pz        
   132      0.145429   6 H  s                73      0.131291   3 C  pz        
     8      0.127239   1 O  pz              126      0.115906   5 H  s         
     6     -0.110085   1 O  px              131      0.107906   6 H  s         
    38     -0.106520   2 C  py               37      0.104652   2 C  px        
 
 Vector   10  Occ=2.000000D+00  E=-4.133685D-01
              MO Center=  4.4D-02,  2.8D-01, -2.4D-01, r^2= 2.5D+00
   Bfn.  Coefficient  Atom+Function         Bfn.  Coefficient  Atom+Function  
  ----- ------------  ---------------      ----- ------------  ---------------
    69      0.214234   3 C  py              101      0.154221   4 C  pz        
   138      0.153726   7 H  s                 6     -0.145371   1 O  px        
    38     -0.140128   2 C  py               37      0.128932   2 C  px        
     7     -0.122162   1 O  py               72      0.121096   3 C  py        
    70     -0.119218   3 C  pz                9     -0.116206   1 O  px        
 
 Vector   11  Occ=2.000000D+00  E=-3.767720D-01
              MO Center=  9.2D-01, -3.3D-01, -7.5D-01, r^2= 2.6D+00
   Bfn.  Coefficient  Atom+Function         Bfn.  Coefficient  Atom+Function  
  ----- ------------  ---------------      ----- ------------  ---------------
    99      0.207769   4 C  px              144      0.185821   8 H  s         
   100      0.168935   4 C  py              150     -0.143426   9 H  s         
   102      0.133468   4 C  px              143      0.130040   8 H  s         
    37      0.127103   2 C  px                6     -0.117126   1 O  px        
     7      0.114168   1 O  py              103      0.111411   4 C  py        
 
 Vector   12  Occ=2.000000D+00  E=-3.559713D-01
              MO Center=  6.0D-01, -3.3D-01, -8.8D-01, r^2= 2.8D+00
   Bfn.  Coefficient  Atom+Function         Bfn.  Coefficient  Atom+Function  
  ----- ------------  ---------------      ----- ------------  ---------------
   100      0.254022   4 C  py              150     -0.183271   9 H  s         
   156      0.179152  10 H  s                 7     -0.170383   1 O  py        
   103      0.164466   4 C  py               10     -0.136433   1 O  py        
   149     -0.127740   9 H  s               155      0.126785  10 H  s         
    70      0.114666   3 C  pz              106      0.103237   4 C  py        
 
 Vector   13  Occ=2.000000D+00  E=-3.294758D-01
              MO Center=  3.4D-01,  2.6D-01, -2.2D-01, r^2= 2.7D+00
   Bfn.  Coefficient  Atom+Function         Bfn.  Coefficient  Atom+Function  
  ----- ------------  ---------------      ----- ------------  ---------------
    39      0.216845   2 C  pz              101     -0.191568   4 C  pz        
    70     -0.173709   3 C  pz                7     -0.165312   1 O  py        
   138      0.163500   7 H  s                42      0.147110   2 C  pz        
    99      0.134442   4 C  px              104     -0.134631   4 C  pz        
    10     -0.133422   1 O  py              137      0.110039   7 H  s         
 
 Vector   14  Occ=2.000000D+00  E=-3.212598D-01
              MO Center=  4.0D-01, -5.1D-02, -2.2D-01, r^2= 3.0D+00
   Bfn.  Coefficient  Atom+Function         Bfn.  Coefficient  Atom+Function  
  ----- ------------  ---------------      ----- ------------  ---------------
     7      0.206436   1 O  py               10      0.169256   1 O  py        
   126      0.162933   5 H  s                99     -0.155578   4 C  px        
   156      0.151841  10 H  s                 6     -0.146069   1 O  px        
    37      0.132957   2 C  px               39      0.131351   2 C  pz        
   144     -0.131082   8 H  s               101     -0.120927   4 C  pz        
 
 Vector   15  Occ=2.000000D+00  E=-2.632494D-01
              MO Center=  1.8D-02,  1.5D-01,  3.6D-02, r^2= 2.3D+00
   Bfn.  Coefficient  Atom+Function         Bfn.  Coefficient  Atom+Function  
  ----- ------------  ---------------      ----- ------------  ---------------
    68      0.264638   3 C  px               38      0.256410   2 C  py        
     6     -0.237014   1 O  px               41      0.199713   2 C  py        
    71      0.196867   3 C  px                9     -0.185335   1 O  px        
    12     -0.157376   1 O  px              150      0.115462   9 H  s         
   100     -0.110845   4 C  py               67      0.105000   3 C  s         
 
 Vector   16  Occ=2.000000D+00  E=-2.198623D-01
              MO Center= -5.8D-01, -2.5D-02,  2.0D-01, r^2= 1.6D+00
   Bfn.  Coefficient  Atom+Function         Bfn.  Coefficient  Atom+Function  
  ----- ------------  ---------------      ----- ------------  ---------------
     8      0.449792   1 O  pz               11      0.358241   1 O  pz        
    14      0.296267   1 O  pz              133     -0.129143   6 H  s         
   139      0.116715   7 H  s               138      0.105202   7 H  s         
   132     -0.103246   6 H  s               145     -0.102401   8 H  s         
    98      0.100694   4 C  s               126     -0.095935   5 H  s         
 
 Vector   17  Occ=0.000000D+00  E= 2.555931D-02
              MO Center=  1.2D+00, -6.7D-02, -6.3D-01, r^2= 7.2D+00
   Bfn.  Coefficient  Atom+Function         Bfn.  Coefficient  Atom+Function  
  ----- ------------  ---------------      ----- ------------  ---------------
    98      4.467255   4 C  s               145     -1.545011   8 H  s         
   151     -1.479101   9 H  s               157     -1.351987  10 H  s         
   127     -1.221245   5 H  s                45      1.118154   2 C  pz        
   139     -0.879519   7 H  s                67      0.681032   3 C  s         
   133     -0.590277   6 H  s                74     -0.331424   3 C  px        
 
 Vector   18  Occ=0.000000D+00  E= 4.286676D-02
              MO Center= -1.3D-01,  6.5D-01,  9.5D-02, r^2= 4.5D+00
   Bfn.  Coefficient  Atom+Function         Bfn.  Coefficient  Atom+Function  
  ----- ------------  ---------------      ----- ------------  ---------------
    98      2.141922   4 C  s                36     -1.909288   2 C  s         
     5      1.281684   1 O  s                74      0.933650   3 C  px        
   151     -0.815971   9 H  s                45      0.519127   2 C  pz        
    13      0.437239   1 O  py               67      0.431505   3 C  s         
    44     -0.422205   2 C  py              157     -0.423196  10 H  s         
 
 Vector   19  Occ=0.000000D+00  E= 4.971582D-02
              MO Center=  3.7D-01,  4.9D-01, -1.7D-01, r^2= 6.5D+00
   Bfn.  Coefficient  Atom+Function         Bfn.  Coefficient  Atom+Function  
  ----- ------------  ---------------      ----- ------------  ---------------
    67     -2.771369   3 C  s                36      2.754082   2 C  s         
   127     -1.760700   5 H  s               139      1.636941   7 H  s         
   157      0.871602  10 H  s                76      0.525337   3 C  pz        
    45      0.522568   2 C  pz               98     -0.511148   4 C  s         
   145     -0.474287   8 H  s                44      0.471089   2 C  py        
 
 Vector   20  Occ=0.000000D+00  E= 5.085607D-02
              MO Center=  6.0D-01,  5.5D-01,  4.6D-01, r^2= 7.5D+00
   Bfn.  Coefficient  Atom+Function         Bfn.  Coefficient  Atom+Function  
  ----- ------------  ---------------      ----- ------------  ---------------
    98      3.333507   4 C  s                67     -2.640212   3 C  s         
   133      1.853892   6 H  s               127      1.216184   5 H  s         
   145     -1.147989   8 H  s                44      1.074604   2 C  py        
   157     -1.075464  10 H  s                36     -0.939944   2 C  s         
   151     -0.693399   9 H  s                43     -0.630173   2 C  px        
 
 Vector   21  Occ=0.000000D+00  E= 6.495229D-02
              MO Center=  2.8D-01,  8.3D-02, -1.7D-01, r^2= 4.8D+00
   Bfn.  Coefficient  Atom+Function         Bfn.  Coefficient  Atom+Function  
  ----- ------------  ---------------      ----- ------------  ---------------
    98      1.339512   4 C  s               139      1.215390   7 H  s         
   151     -1.008896   9 H  s                67     -0.973449   3 C  s         
     5     -0.870468   1 O  s                43     -0.832866   2 C  px        
   133      0.610073   6 H  s                75     -0.560156   3 C  py        
    12     -0.483591   1 O  px               45      0.420178   2 C  pz        
 
 Vector   22  Occ=0.000000D+00  E= 8.595656D-02
              MO Center=  1.2D+00,  2.4D-01, -4.4D-01, r^2= 7.2D+00
   Bfn.  Coefficient  Atom+Function         Bfn.  Coefficient  Atom+Function  
  ----- ------------  ---------------      ----- ------------  ---------------
    36      3.003029   2 C  s               145      1.946383   8 H  s         
    67     -1.454697   3 C  s               127     -1.374358   5 H  s         
   157     -1.328585  10 H  s               133      1.217093   6 H  s         
   107     -1.152474   4 C  pz               98     -1.022364   4 C  s         
   105     -0.970280   4 C  px               75      0.789122   3 C  py        
 
 Vector   23  Occ=0.000000D+00  E= 9.086732D-02
              MO Center=  1.2D+00, -6.6D-01, -5.9D-01, r^2= 6.5D+00
   Bfn.  Coefficient  Atom+Function         Bfn.  Coefficient  Atom+Function  
  ----- ------------  ---------------      ----- ------------  ---------------
    36      2.353383   2 C  s               151      2.083542   9 H  s         
   145     -1.645155   8 H  s                98     -1.211074   4 C  s         
   106      1.172089   4 C  py              105      1.135823   4 C  px        
   133      0.912997   6 H  s                67     -0.874695   3 C  s         
   127     -0.755127   5 H  s                44     -0.623970   2 C  py        
 
 Vector   24  Occ=0.000000D+00  E= 1.030092D-01
              MO Center=  4.4D-01,  4.3D-01, -1.1D+00, r^2= 6.7D+00
   Bfn.  Coefficient  Atom+Function         Bfn.  Coefficient  Atom+Function  
  ----- ------------  ---------------      ----- ------------  ---------------
   157      2.037745  10 H  s               133      1.591775   6 H  s         
    98     -1.543079   4 C  s               139     -1.504245   7 H  s         
   106     -1.487971   4 C  py              151     -1.408619   9 H  s         
    36      1.358432   2 C  s                76     -1.159250   3 C  pz        
   105      1.013446   4 C  px               45     -0.574839   2 C  pz        
 
 Vector   25  Occ=0.000000D+00  E= 1.390942D-01
              MO Center=  7.9D-01,  2.0D-01, -4.4D-01, r^2= 7.9D+00
   Bfn.  Coefficient  Atom+Function         Bfn.  Coefficient  Atom+Function  
  ----- ------------  ---------------      ----- ------------  ---------------
    36      4.636935   2 C  s                98     -3.482286   4 C  s         
    45     -3.379492   2 C  pz               67     -2.795046   3 C  s         
   127      2.721789   5 H  s                76      2.136111   3 C  pz        
   105      2.080430   4 C  px              133     -1.785078   6 H  s         
   139      1.689622   7 H  s               107     -1.567710   4 C  pz        
 
 Vector   26  Occ=0.000000D+00  E= 1.706492D-01
              MO Center=  4.5D-01,  5.2D-01, -1.2D-01, r^2= 7.2D+00
   Bfn.  Coefficient  Atom+Function         Bfn.  Coefficient  Atom+Function  
  ----- ------------  ---------------      ----- ------------  ---------------
    75      2.269160   3 C  py              107      1.592105   4 C  pz        
    36      1.434428   2 C  s                67     -1.420275   3 C  s         
   139     -1.191093   7 H  s               157      1.051881  10 H  s         
    74     -0.945229   3 C  px               44      0.656494   2 C  py        
   106     -0.572041   4 C  py               43     -0.541625   2 C  px        
 
 Vector   27  Occ=0.000000D+00  E= 1.972224D-01
              MO Center=  7.9D-01, -7.7D-02, -9.9D-01, r^2= 5.1D+00
   Bfn.  Coefficient  Atom+Function         Bfn.  Coefficient  Atom+Function  
  ----- ------------  ---------------      ----- ------------  ---------------
    67      3.072190   3 C  s                44     -2.620175   2 C  py        
    36     -2.041408   2 C  s               106      1.979707   4 C  py        
    43      0.990029   2 C  px               74      0.784424   3 C  px        
   105      0.737724   4 C  px              157     -0.702797  10 H  s         
    75     -0.659807   3 C  py               45     -0.643226   2 C  pz        
 
 Vector   28  Occ=0.000000D+00  E= 2.016571D-01
              MO Center=  9.8D-01, -4.3D-01, -7.1D-01, r^2= 6.7D+00
   Bfn.  Coefficient  Atom+Function         Bfn.  Coefficient  Atom+Function  
  ----- ------------  ---------------      ----- ------------  ---------------
    36      2.521439   2 C  s                75      1.688220   3 C  py        
   105     -1.385513   4 C  px              133     -1.244853   6 H  s         
   106      0.951374   4 C  py              107     -0.902019   4 C  pz        
   139     -0.751812   7 H  s               156     -0.720610  10 H  s         
    45      0.714075   2 C  pz               76      0.686471   3 C  pz        
 
 Vector   29  Occ=0.000000D+00  E= 2.365938D-01
              MO Center= -2.9D-01,  3.9D-01, -6.9D-02, r^2= 5.5D+00
   Bfn.  Coefficient  Atom+Function         Bfn.  Coefficient  Atom+Function  
  ----- ------------  ---------------      ----- ------------  ---------------
    67      4.521640   3 C  s                36     -3.114770   2 C  s         
   139     -1.526494   7 H  s                66     -1.440007   3 C  s         
   133     -1.277137   6 H  s                98      1.260186   4 C  s         
   107      1.019576   4 C  pz              106      0.799052   4 C  py        
    74     -0.793626   3 C  px                5     -0.760741   1 O  s         
 
 Vector   30  Occ=0.000000D+00  E= 2.472127D-01
              MO Center=  5.5D-01,  2.1D-02, -8.2D-02, r^2= 5.9D+00
   Bfn.  Coefficient  Atom+Function         Bfn.  Coefficient  Atom+Function  
  ----- ------------  ---------------      ----- ------------  ---------------
    67      5.918218   3 C  s                43      4.188277   2 C  px        
    75     -3.007746   3 C  py               44     -2.598669   2 C  py        
    36     -2.144032   2 C  s               107     -2.078748   4 C  pz        
   157     -1.866921  10 H  s                45     -1.500032   2 C  pz        
    98     -1.336612   4 C  s               105     -1.187956   4 C  px        
 
 Vector   31  Occ=0.000000D+00  E= 2.677988D-01
              MO Center=  2.6D-01, -1.7D-01,  2.4D-01, r^2= 5.6D+00
   Bfn.  Coefficient  Atom+Function         Bfn.  Coefficient  Atom+Function  
  ----- ------------  ---------------      ----- ------------  ---------------
    36      4.339763   2 C  s                 5     -2.293470   1 O  s         
    67      2.214340   3 C  s                43     -1.554610   2 C  px        
   105      1.485243   4 C  px               66     -1.151656   3 C  s         
    98     -1.125799   4 C  s               139     -0.935636   7 H  s         
   133     -0.860424   6 H  s               127     -0.842309   5 H  s         
 
 Vector   32  Occ=0.000000D+00  E= 2.780523D-01
              MO Center=  4.4D-01,  3.6D-01,  3.0D-01, r^2= 4.1D+00
   Bfn.  Coefficient  Atom+Function         Bfn.  Coefficient  Atom+Function  
  ----- ------------  ---------------      ----- ------------  ---------------
    36      2.098854   2 C  s                 5     -1.617376   1 O  s         
    67     -1.561445   3 C  s                43     -1.146180   2 C  px        
    74     -0.724025   3 C  px               45     -0.592377   2 C  pz        
   145      0.562253   8 H  s                98     -0.494793   4 C  s         
     4      0.485095   1 O  s               157     -0.457337  10 H  s         
 
 Vector   33  Occ=0.000000D+00  E= 3.025403D-01
              MO Center=  4.2D-01,  3.6D-01, -3.8D-01, r^2= 5.0D+00
   Bfn.  Coefficient  Atom+Function         Bfn.  Coefficient  Atom+Function  
  ----- ------------  ---------------      ----- ------------  ---------------
    43      1.786311   2 C  px              106      1.776646   4 C  py        
   151      1.706624   9 H  s                98     -1.587890   4 C  s         
    76      1.460729   3 C  pz               36     -1.232966   2 C  s         
    44     -1.180357   2 C  py               66      1.058019   3 C  s         
   139      1.012286   7 H  s               107     -0.937468   4 C  pz        
 
 Vector   34  Occ=0.000000D+00  E= 3.370496D-01
              MO Center=  1.2D-01,  4.3D-01, -4.1D-01, r^2= 5.8D+00
   Bfn.  Coefficient  Atom+Function         Bfn.  Coefficient  Atom+Function  
  ----- ------------  ---------------      ----- ------------  ---------------
    67      4.757109   3 C  s                76     -3.993295   3 C  pz        
   139     -3.161128   7 H  s                36     -2.474005   2 C  s         
   133      2.037770   6 H  s               107     -1.839931   4 C  pz        
   157     -1.764273  10 H  s                43      1.515072   2 C  px        
    98      1.347681   4 C  s                44     -1.244264   2 C  py        
 
 Vector   35  Occ=0.000000D+00  E= 3.625446D-01
              MO Center=  8.4D-01, -4.4D-02, -4.1D-01, r^2= 6.8D+00
   Bfn.  Coefficient  Atom+Function         Bfn.  Coefficient  Atom+Function  
  ----- ------------  ---------------      ----- ------------  ---------------
    98      8.418509   4 C  s               145     -3.382745   8 H  s         
    97     -3.257570   4 C  s                76      3.147680   3 C  pz        
   133     -2.301242   6 H  s               151     -1.994851   9 H  s         
   157     -1.509217  10 H  s               139      1.485476   7 H  s         
    44      1.455336   2 C  py               45     -1.388443   2 C  pz        
 
 Vector   36  Occ=0.000000D+00  E= 3.716149D-01
              MO Center=  5.5D-01,  2.5D-01, -1.8D-02, r^2= 6.3D+00
   Bfn.  Coefficient  Atom+Function         Bfn.  Coefficient  Atom+Function  
  ----- ------------  ---------------      ----- ------------  ---------------
    36     12.910090   2 C  s                98     -8.527683   4 C  s         
    67     -8.382069   3 C  s               127     -3.146776   5 H  s         
    97      2.295849   4 C  s               157      2.191610  10 H  s         
    44      1.982909   2 C  py               35     -1.893765   2 C  s         
    74     -1.609932   3 C  px               75      1.589214   3 C  py        
 
 Vector   37  Occ=0.000000D+00  E= 3.850549D-01
              MO Center=  9.0D-01, -3.4D-01, -1.3D-01, r^2= 6.0D+00
   Bfn.  Coefficient  Atom+Function         Bfn.  Coefficient  Atom+Function  
  ----- ------------  ---------------      ----- ------------  ---------------
    36      6.083775   2 C  s               127     -4.048187   5 H  s         
    98      3.306566   4 C  s                45      2.571200   2 C  pz        
    35     -2.230027   2 C  s               151     -2.121526   9 H  s         
    67     -2.086303   3 C  s               145     -1.944843   8 H  s         
    76     -1.847025   3 C  pz               43      1.722943   2 C  px        
 
 Vector   38  Occ=0.000000D+00  E= 3.945628D-01
              MO Center=  1.5D-01,  1.3D-01, -1.2D-01, r^2= 6.5D+00
   Bfn.  Coefficient  Atom+Function         Bfn.  Coefficient  Atom+Function  
  ----- ------------  ---------------      ----- ------------  ---------------
    98     12.588224   4 C  s                45      5.705616   2 C  pz        
    67     -5.553606   3 C  s                76     -3.279707   3 C  pz        
   157     -2.734038  10 H  s               133      2.617766   6 H  s         
    36     -2.219725   2 C  s                44      2.120156   2 C  py        
    97     -1.780878   4 C  s                75      1.740312   3 C  py        
 
 Vector   39  Occ=0.000000D+00  E= 4.007538D-01
              MO Center= -1.7D-01,  2.3D-01,  2.4D-01, r^2= 6.6D+00
   Bfn.  Coefficient  Atom+Function         Bfn.  Coefficient  Atom+Function  
  ----- ------------  ---------------      ----- ------------  ---------------
    67    -12.608201   3 C  s                36     12.147582   2 C  s         
    45     -5.098360   2 C  pz               98     -4.705132   4 C  s         
    44      4.098612   2 C  py              127      2.999049   5 H  s         
    66      2.673387   3 C  s                43     -2.614447   2 C  px        
   105      2.447248   4 C  px              139      2.319044   7 H  s         
 
 Vector   40  Occ=0.000000D+00  E= 4.156988D-01
              MO Center=  7.5D-01, -3.8D-01, -8.3D-01, r^2= 5.9D+00
   Bfn.  Coefficient  Atom+Function         Bfn.  Coefficient  Atom+Function  
  ----- ------------  ---------------      ----- ------------  ---------------
    98      6.575887   4 C  s                36     -2.761512   2 C  s         
    45      2.670685   2 C  pz              151     -2.436029   9 H  s         
   105     -2.410296   4 C  px              157     -1.970774  10 H  s         
   145      1.732190   8 H  s                97     -1.180664   4 C  s         
   144     -0.945578   8 H  s               127     -0.931439   5 H  s         
 
 Vector   41  Occ=0.000000D+00  E= 4.266963D-01
              MO Center=  4.7D-01,  2.0D-01, -1.8D-01, r^2= 6.9D+00
   Bfn.  Coefficient  Atom+Function         Bfn.  Coefficient  Atom+Function  
  ----- ------------  ---------------      ----- ------------  ---------------
    36      8.912369   2 C  s                67     -4.437724   3 C  s         
    98     -3.787113   4 C  s                75      2.534967   3 C  py        
    44      2.505738   2 C  py              151      2.425718   9 H  s         
    43     -1.674679   2 C  px               74     -1.403613   3 C  px        
   132      1.313485   6 H  s                45     -1.269111   2 C  pz        
 
 Vector   42  Occ=0.000000D+00  E= 4.476445D-01
              MO Center=  9.6D-02, -5.5D-02, -1.5D-01, r^2= 6.1D+00
   Bfn.  Coefficient  Atom+Function         Bfn.  Coefficient  Atom+Function  
  ----- ------------  ---------------      ----- ------------  ---------------
    36      9.845900   2 C  s                98     -8.988586   4 C  s         
    45     -5.565525   2 C  pz               67     -3.114734   3 C  s         
   127      2.906287   5 H  s                76      2.673561   3 C  pz        
    44      2.392291   2 C  py              157      2.206448  10 H  s         
   133     -2.153369   6 H  s               106     -1.977677   4 C  py        
 
 Vector   43  Occ=0.000000D+00  E= 4.594890D-01
              MO Center=  7.7D-02,  8.1D-01, -5.5D-01, r^2= 5.1D+00
   Bfn.  Coefficient  Atom+Function         Bfn.  Coefficient  Atom+Function  
  ----- ------------  ---------------      ----- ------------  ---------------
   139      3.239638   7 H  s               157     -2.457489  10 H  s         
   107     -2.202432   4 C  pz               75     -2.094594   3 C  py        
    45     -1.584896   2 C  pz               43      1.522266   2 C  px        
    44     -1.482227   2 C  py              138     -1.448453   7 H  s         
    76      1.126309   3 C  pz               73     -0.764240   3 C  pz        
 
 Vector   44  Occ=0.000000D+00  E= 4.695622D-01
              MO Center=  4.9D-01,  1.5D-01, -4.9D-02, r^2= 5.6D+00
   Bfn.  Coefficient  Atom+Function         Bfn.  Coefficient  Atom+Function  
  ----- ------------  ---------------      ----- ------------  ---------------
    98     -5.074301   4 C  s                36      4.993474   2 C  s         
    45     -2.286099   2 C  pz              145      1.675368   8 H  s         
    67     -1.656121   3 C  s               107     -1.628698   4 C  pz        
   133      1.414517   6 H  s                35     -1.330572   2 C  s         
   132     -1.103618   6 H  s               126      1.051055   5 H  s         
 
 Vector   45  Occ=0.000000D+00  E= 5.078939D-01
              MO Center=  8.7D-01, -3.6D-01, -9.0D-01, r^2= 4.9D+00
   Bfn.  Coefficient  Atom+Function         Bfn.  Coefficient  Atom+Function  
  ----- ------------  ---------------      ----- ------------  ---------------
    98     11.550767   4 C  s                36     -7.413117   2 C  s         
    45      4.763190   2 C  pz              107      3.143737   4 C  pz        
   106      1.338378   4 C  py              144     -1.316562   8 H  s         
   127     -1.235108   5 H  s               156     -1.225524  10 H  s         
    14     -1.110035   1 O  pz              105     -1.041286   4 C  px        
 
 Vector   46  Occ=0.000000D+00  E= 5.352600D-01
              MO Center=  1.2D-01, -3.9D-01, -4.9D-01, r^2= 4.4D+00
   Bfn.  Coefficient  Atom+Function         Bfn.  Coefficient  Atom+Function  
  ----- ------------  ---------------      ----- ------------  ---------------
    98     -6.981176   4 C  s                36      6.488806   2 C  s         
    45     -3.471815   2 C  pz               76      3.138907   3 C  pz        
   133     -1.789357   6 H  s               105      1.454900   4 C  px        
   107     -1.389849   4 C  pz              139      1.373788   7 H  s         
     5     -1.149137   1 O  s                14     -1.139601   1 O  pz        
 
 Vector   47  Occ=0.000000D+00  E= 6.590000D-01
              MO Center= -3.3D-01,  3.1D-02, -1.9D-02, r^2= 4.3D+00
   Bfn.  Coefficient  Atom+Function         Bfn.  Coefficient  Atom+Function  
  ----- ------------  ---------------      ----- ------------  ---------------
    36     11.126563   2 C  s                67     -8.545417   3 C  s         
    98     -3.938697   4 C  s                43     -2.495136   2 C  px        
    75      2.334713   3 C  py               13      2.112288   1 O  py        
    76      1.974982   3 C  pz              105      1.539443   4 C  px        
   139      1.460926   7 H  s                44      1.435200   2 C  py        
 
 Vector   48  Occ=0.000000D+00  E= 6.738463D-01
              MO Center= -3.6D-01,  3.5D-01,  1.3D-01, r^2= 4.0D+00
   Bfn.  Coefficient  Atom+Function         Bfn.  Coefficient  Atom+Function  
  ----- ------------  ---------------      ----- ------------  ---------------
    36      9.030860   2 C  s                67     -8.728826   3 C  s         
     5      2.862787   1 O  s                75      2.818871   3 C  py        
    98     -2.295759   4 C  s                13      2.276126   1 O  py        
    43     -1.534430   2 C  px               45     -1.272096   2 C  pz        
    44      1.212752   2 C  py                4     -1.068857   1 O  s         
 
 Vector   49  Occ=0.000000D+00  E= 7.062279D-01
              MO Center=  1.9D-01, -3.1D-01, -2.7D-01, r^2= 4.4D+00
   Bfn.  Coefficient  Atom+Function         Bfn.  Coefficient  Atom+Function  
  ----- ------------  ---------------      ----- ------------  ---------------
    67      9.102140   3 C  s                36     -7.156537   2 C  s         
    43      3.568113   2 C  px               44     -3.427819   2 C  py        
    75     -2.611708   3 C  py                5      2.410426   1 O  s         
    98     -2.368921   4 C  s               106      1.695612   4 C  py        
    12      1.673621   1 O  px               13     -1.239215   1 O  py        
 
 Vector   50  Occ=0.000000D+00  E= 7.607199D-01
              MO Center=  6.4D-01, -2.7D-02, -3.5D-01, r^2= 4.0D+00
   Bfn.  Coefficient  Atom+Function         Bfn.  Coefficient  Atom+Function  
  ----- ------------  ---------------      ----- ------------  ---------------
    45      2.351867   2 C  pz              127     -1.682850   5 H  s         
   105     -1.624711   4 C  px               36      1.532494   2 C  s         
     5     -1.495081   1 O  s                43      1.469645   2 C  px        
   126     -1.357589   5 H  s               144      1.264634   8 H  s         
    66      1.030927   3 C  s                76     -0.940449   3 C  pz        
 
 Vector   51  Occ=0.000000D+00  E= 7.948044D-01
              MO Center=  2.9D-01,  5.9D-02, -2.0D-01, r^2= 4.4D+00
   Bfn.  Coefficient  Atom+Function         Bfn.  Coefficient  Atom+Function  
  ----- ------------  ---------------      ----- ------------  ---------------
     5      4.040721   1 O  s                36     -2.479918   2 C  s         
    76     -2.453623   3 C  pz                4     -1.578306   1 O  s         
    12      1.351611   1 O  px               45      1.352630   2 C  pz        
    43      1.327754   2 C  px              133      1.291634   6 H  s         
    35     -1.079801   2 C  s                66     -1.059308   3 C  s         
 
 Vector   52  Occ=0.000000D+00  E= 8.317060D-01
              MO Center=  3.1D-01,  1.7D-01, -5.6D-03, r^2= 4.4D+00
   Bfn.  Coefficient  Atom+Function         Bfn.  Coefficient  Atom+Function  
  ----- ------------  ---------------      ----- ------------  ---------------
    36      6.759162   2 C  s                98     -4.241645   4 C  s         
     5     -3.999643   1 O  s                43     -2.553805   2 C  px        
   105      1.967106   4 C  px               35     -1.846293   2 C  s         
    45     -1.850782   2 C  pz               44      1.505045   2 C  py        
    66     -1.205858   3 C  s                97      1.061311   4 C  s         
 
 Vector   53  Occ=0.000000D+00  E= 8.562179D-01
              MO Center=  5.9D-01,  1.4D-01, -3.8D-01, r^2= 4.2D+00
   Bfn.  Coefficient  Atom+Function         Bfn.  Coefficient  Atom+Function  
  ----- ------------  ---------------      ----- ------------  ---------------
    36      4.709444   2 C  s                45     -4.562230   2 C  pz        
    98     -4.547758   4 C  s                76      2.071066   3 C  pz        
   127      1.813162   5 H  s                44      1.501805   2 C  py        
   106     -1.501863   4 C  py              105      1.363920   4 C  px        
   150     -1.253567   9 H  s                 5     -1.140067   1 O  s         
 
 Vector   54  Occ=0.000000D+00  E= 8.718207D-01
              MO Center=  1.8D-01, -4.0D-02, -1.3D-01, r^2= 4.2D+00
   Bfn.  Coefficient  Atom+Function         Bfn.  Coefficient  Atom+Function  
  ----- ------------  ---------------      ----- ------------  ---------------
     5      4.554791   1 O  s                 4     -1.540297   1 O  s         
    36     -1.491557   2 C  s               138      1.441987   7 H  s         
    76      1.423977   3 C  pz               67     -1.370356   3 C  s         
    12      1.172118   1 O  px               66     -1.162063   3 C  s         
    98     -1.047691   4 C  s               156     -0.842398  10 H  s         
 
 Vector   55  Occ=0.000000D+00  E= 9.216788D-01
              MO Center=  5.2D-01,  3.0D-01, -4.8D-01, r^2= 4.5D+00
   Bfn.  Coefficient  Atom+Function         Bfn.  Coefficient  Atom+Function  
  ----- ------------  ---------------      ----- ------------  ---------------
    35      5.007285   2 C  s                36     -1.793027   2 C  s         
    67      1.597341   3 C  s                72      1.334063   3 C  py        
    66     -1.320096   3 C  s               132     -1.288861   6 H  s         
    41      1.198065   2 C  py               84      1.164041   3 C  d  0      
   156     -1.152119  10 H  s                98     -1.081355   4 C  s         
 
 Vector   56  Occ=0.000000D+00  E= 9.604856D-01
              MO Center=  4.5D-01,  3.1D-01, -5.3D-01, r^2= 4.7D+00
   Bfn.  Coefficient  Atom+Function         Bfn.  Coefficient  Atom+Function  
  ----- ------------  ---------------      ----- ------------  ---------------
    35      4.026306   2 C  s                67      2.557590   3 C  s         
   138     -2.361809   7 H  s                76     -1.785927   3 C  pz        
    42     -1.757792   2 C  pz               83     -1.657557   3 C  d -1      
    36     -1.468153   2 C  s               115     -1.463292   4 C  d  0      
    98     -1.452830   4 C  s               132      1.387061   6 H  s         
 
 Vector   57  Occ=0.000000D+00  E= 9.931715D-01
              MO Center=  3.7D-01,  4.3D-01, -1.6D-01, r^2= 4.1D+00
   Bfn.  Coefficient  Atom+Function         Bfn.  Coefficient  Atom+Function  
  ----- ------------  ---------------      ----- ------------  ---------------
    36      7.684574   2 C  s                98     -4.845187   4 C  s         
    67     -4.114430   3 C  s                45     -3.789689   2 C  pz        
    43     -2.397963   2 C  px               44      2.235972   2 C  py        
    66     -1.690068   3 C  s               127      1.592254   5 H  s         
    75      1.512374   3 C  py              126      1.381851   5 H  s         
 
 Vector   58  Occ=0.000000D+00  E= 1.010954D+00
              MO Center=  3.5D-01,  5.9D-01, -3.5D-02, r^2= 4.2D+00
   Bfn.  Coefficient  Atom+Function         Bfn.  Coefficient  Atom+Function  
  ----- ------------  ---------------      ----- ------------  ---------------
    36      5.245542   2 C  s                67     -4.290534   3 C  s         
    45     -2.031693   2 C  pz               44      1.746800   2 C  py        
    98     -1.590379   4 C  s               156     -1.438691  10 H  s         
    82      1.365238   3 C  d -2             74     -1.323241   3 C  px        
   144      1.324216   8 H  s                41      1.234256   2 C  py        
 
 Vector   59  Occ=0.000000D+00  E= 1.040378D+00
              MO Center=  6.9D-01, -1.5D-01, -4.6D-01, r^2= 4.2D+00
   Bfn.  Coefficient  Atom+Function         Bfn.  Coefficient  Atom+Function  
  ----- ------------  ---------------      ----- ------------  ---------------
    36      3.008643   2 C  s                35      2.803564   2 C  s         
    66     -2.499089   3 C  s               150      1.935934   9 H  s         
     5     -1.902394   1 O  s               144     -1.885761   8 H  s         
   117      1.696869   4 C  d  2             41      1.629723   2 C  py        
    67     -1.537634   3 C  s                44      1.476482   2 C  py        
 
 Vector   60  Occ=0.000000D+00  E= 1.079356D+00
              MO Center=  6.8D-01, -5.7D-03, -7.6D-02, r^2= 4.1D+00
   Bfn.  Coefficient  Atom+Function         Bfn.  Coefficient  Atom+Function  
  ----- ------------  ---------------      ----- ------------  ---------------
    98     -4.144909   4 C  s                66      3.937684   3 C  s         
    45     -3.820841   2 C  pz               97     -3.754693   4 C  s         
    36      3.577999   2 C  s               104     -2.532917   4 C  pz        
    41     -2.517754   2 C  py               42     -2.340554   2 C  pz        
    72     -2.319538   3 C  py               53      2.235257   2 C  d  0      
 
 Vector   61  Occ=0.000000D+00  E= 1.104767D+00
              MO Center=  3.6D-01,  4.3D-02,  5.4D-02, r^2= 3.7D+00
   Bfn.  Coefficient  Atom+Function         Bfn.  Coefficient  Atom+Function  
  ----- ------------  ---------------      ----- ------------  ---------------
    36      7.492804   2 C  s                67     -5.149629   3 C  s         
    98     -2.995238   4 C  s                66      2.197155   3 C  s         
   126     -1.979449   5 H  s                45     -1.930535   2 C  pz        
    72     -1.636559   3 C  py              132      1.643053   6 H  s         
    41     -1.516988   2 C  py               53      1.441955   2 C  d  0      
 
 Vector   62  Occ=0.000000D+00  E= 1.148329D+00
              MO Center=  6.3D-01,  5.9D-03, -2.1D-02, r^2= 3.5D+00
   Bfn.  Coefficient  Atom+Function         Bfn.  Coefficient  Atom+Function  
  ----- ------------  ---------------      ----- ------------  ---------------
    67      5.246579   3 C  s                36     -4.087971   2 C  s         
    44     -2.412101   2 C  py              126      1.897126   5 H  s         
    97     -1.770433   4 C  s                54      1.597770   2 C  d  1      
    43      1.566190   2 C  px               55      1.466400   2 C  d  2      
    42     -1.435082   2 C  pz               75     -1.440809   3 C  py        
 
 Vector   63  Occ=0.000000D+00  E= 1.214548D+00
              MO Center=  5.5D-01,  2.0D-01, -1.5D-01, r^2= 3.8D+00
   Bfn.  Coefficient  Atom+Function         Bfn.  Coefficient  Atom+Function  
  ----- ------------  ---------------      ----- ------------  ---------------
    36      6.533702   2 C  s                66     -4.988552   3 C  s         
    67     -3.282883   3 C  s                97     -3.279916   4 C  s         
    35      3.228636   2 C  s                72      1.960376   3 C  py        
    51     -1.767104   2 C  d -2             52      1.668013   2 C  d -1      
   138      1.669922   7 H  s                41      1.542179   2 C  py        
 
 Vector   64  Occ=0.000000D+00  E= 1.346484D+00
              MO Center=  3.5D-01,  5.4D-01,  2.1D-01, r^2= 3.6D+00
   Bfn.  Coefficient  Atom+Function         Bfn.  Coefficient  Atom+Function  
  ----- ------------  ---------------      ----- ------------  ---------------
    66      4.744347   3 C  s                35      3.828596   2 C  s         
    67     -3.073154   3 C  s                36     -2.769143   2 C  s         
    65     -2.415333   3 C  s               132     -2.034200   6 H  s         
    34     -1.438014   2 C  s               133      1.392892   6 H  s         
    72      1.351359   3 C  py              139      1.103132   7 H  s         
 
 Vector   65  Occ=0.000000D+00  E= 1.415836D+00
              MO Center=  1.6D-01,  5.1D-01, -3.9D-02, r^2= 3.4D+00
   Bfn.  Coefficient  Atom+Function         Bfn.  Coefficient  Atom+Function  
  ----- ------------  ---------------      ----- ------------  ---------------
    36      4.397110   2 C  s                35     -3.764802   2 C  s         
    67     -3.674765   3 C  s                66      3.586983   3 C  s         
    73     -2.382842   3 C  pz              138     -2.243955   7 H  s         
   139      2.194628   7 H  s               126      1.837969   5 H  s         
    76      1.723449   3 C  pz               34      1.532422   2 C  s         
 
 Vector   66  Occ=0.000000D+00  E= 1.432837D+00
              MO Center=  1.1D+00, -4.6D-01, -1.2D+00, r^2= 3.5D+00
   Bfn.  Coefficient  Atom+Function         Bfn.  Coefficient  Atom+Function  
  ----- ------------  ---------------      ----- ------------  ---------------
    98     10.185329   4 C  s                97     -7.662529   4 C  s         
    96      3.097236   4 C  s               145     -2.439854   8 H  s         
   151     -2.359058   9 H  s               157     -2.127278  10 H  s         
    36     -1.986871   2 C  s               150      1.703202   9 H  s         
   144      1.691021   8 H  s                66      1.543210   3 C  s         
 
 Vector   67  Occ=0.000000D+00  E= 1.442704D+00
              MO Center=  3.6D-01,  2.7D-02, -3.8D-02, r^2= 4.1D+00
   Bfn.  Coefficient  Atom+Function         Bfn.  Coefficient  Atom+Function  
  ----- ------------  ---------------      ----- ------------  ---------------
    66      4.336962   3 C  s                35     -3.321725   2 C  s         
    67     -2.929684   3 C  s                98      2.842973   4 C  s         
    45      2.084281   2 C  pz              133      2.008122   6 H  s         
    36      1.971631   2 C  s                76     -1.834006   3 C  pz        
   127     -1.839629   5 H  s                65     -1.583917   3 C  s         
 
 Vector   68  Occ=0.000000D+00  E= 1.446581D+00
              MO Center=  3.4D-01, -6.8D-03, -2.0D-01, r^2= 3.1D+00
   Bfn.  Coefficient  Atom+Function         Bfn.  Coefficient  Atom+Function  
  ----- ------------  ---------------      ----- ------------  ---------------
    98      4.843159   4 C  s                36     -2.855630   2 C  s         
    97     -2.728998   4 C  s                 5      2.074019   1 O  s         
    45      1.812687   2 C  pz               96      1.147314   4 C  s         
   127     -1.109227   5 H  s                35     -1.052592   2 C  s         
    44     -1.031653   2 C  py               40      0.969417   2 C  px        
 
 Vector   69  Occ=0.000000D+00  E= 1.472932D+00
              MO Center=  9.8D-01, -2.4D-01, -9.9D-01, r^2= 3.3D+00
   Bfn.  Coefficient  Atom+Function         Bfn.  Coefficient  Atom+Function  
  ----- ------------  ---------------      ----- ------------  ---------------
    36      2.205090   2 C  s                66      1.644123   3 C  s         
    67     -1.365347   3 C  s               103      1.353802   4 C  py        
    98     -1.307487   4 C  s               156     -1.203964  10 H  s         
     5     -1.140399   1 O  s                97      1.086920   4 C  s         
   150      0.953827   9 H  s               126      0.891805   5 H  s         
 
 Vector   70  Occ=0.000000D+00  E= 1.478168D+00
              MO Center=  9.2D-01, -3.6D-01, -9.7D-01, r^2= 3.6D+00
   Bfn.  Coefficient  Atom+Function         Bfn.  Coefficient  Atom+Function  
  ----- ------------  ---------------      ----- ------------  ---------------
   156     -2.506648  10 H  s                36      2.308723   2 C  s         
    66     -2.298814   3 C  s               102     -2.053029   4 C  px        
   157      1.934673  10 H  s               104     -1.709429   4 C  pz        
   126      1.548181   5 H  s               103      1.401524   4 C  py        
   144      1.386838   8 H  s                35     -1.307375   2 C  s         
 
 Vector   71  Occ=0.000000D+00  E= 1.512673D+00
              MO Center=  3.1D-01,  1.4D-01, -3.3D-01, r^2= 4.0D+00
   Bfn.  Coefficient  Atom+Function         Bfn.  Coefficient  Atom+Function  
  ----- ------------  ---------------      ----- ------------  ---------------
    98      2.615724   4 C  s               144      1.796877   8 H  s         
   102     -1.492897   4 C  px              103     -1.389911   4 C  py        
   145     -1.358523   8 H  s                45      1.272794   2 C  pz        
    97     -1.147693   4 C  s                36     -0.984875   2 C  s         
   150     -0.967959   9 H  s                66      0.909136   3 C  s         
 
 Vector   72  Occ=0.000000D+00  E= 1.542786D+00
              MO Center=  3.8D-01,  4.3D-01, -2.3D-01, r^2= 4.7D+00
   Bfn.  Coefficient  Atom+Function         Bfn.  Coefficient  Atom+Function  
  ----- ------------  ---------------      ----- ------------  ---------------
    36      4.424727   2 C  s                35     -3.723367   2 C  s         
    98     -3.658771   4 C  s                97      3.125638   4 C  s         
    67     -2.528959   3 C  s                73      2.141042   3 C  pz        
   132     -1.748880   6 H  s               133      1.447895   6 H  s         
   102     -1.400449   4 C  px              151      1.365022   9 H  s         
 
 Vector   73  Occ=0.000000D+00  E= 1.576060D+00
              MO Center=  4.9D-01, -3.1D-02, -7.6D-02, r^2= 3.2D+00
   Bfn.  Coefficient  Atom+Function         Bfn.  Coefficient  Atom+Function  
  ----- ------------  ---------------      ----- ------------  ---------------
    35      3.539850   2 C  s                36     -2.898901   2 C  s         
    40     -2.113740   2 C  px               97     -1.981432   4 C  s         
    67      1.913945   3 C  s               126      1.814536   5 H  s         
    72      1.604792   3 C  py               34     -1.472783   2 C  s         
    42     -1.477433   2 C  pz               98      1.392932   4 C  s         
 
 Vector   74  Occ=0.000000D+00  E= 1.598611D+00
              MO Center=  3.4D-01,  4.0D-01, -1.6D-01, r^2= 3.4D+00
   Bfn.  Coefficient  Atom+Function         Bfn.  Coefficient  Atom+Function  
  ----- ------------  ---------------      ----- ------------  ---------------
    66     -5.292247   3 C  s                36     -5.194998   2 C  s         
    35      5.043191   2 C  s                67      3.936856   3 C  s         
    41      3.732623   2 C  py               71     -2.536697   3 C  px        
    72      2.376706   3 C  py               40     -2.010115   2 C  px        
    98      1.715437   4 C  s                82      1.676071   3 C  d -2      
 
 Vector   75  Occ=0.000000D+00  E= 1.642600D+00
              MO Center=  4.7D-01,  1.8D-01, -4.8D-02, r^2= 3.7D+00
   Bfn.  Coefficient  Atom+Function         Bfn.  Coefficient  Atom+Function  
  ----- ------------  ---------------      ----- ------------  ---------------
    66      2.614747   3 C  s                35      2.527407   2 C  s         
    98      2.054508   4 C  s                97     -1.911426   4 C  s         
     5     -1.852200   1 O  s                67     -1.321437   3 C  s         
   104     -1.322917   4 C  pz              144      1.122423   8 H  s         
   103     -1.071340   4 C  py              150     -1.052172   9 H  s         
 
 Vector   76  Occ=0.000000D+00  E= 1.696259D+00
              MO Center=  6.1D-01, -8.0D-02, -4.1D-01, r^2= 3.4D+00
   Bfn.  Coefficient  Atom+Function         Bfn.  Coefficient  Atom+Function  
  ----- ------------  ---------------      ----- ------------  ---------------
    35      4.506528   2 C  s                97     -4.468950   4 C  s         
   104     -2.163322   4 C  pz               66     -2.143801   3 C  s         
    42     -2.097563   2 C  pz              102      1.807635   4 C  px        
    40      1.445842   2 C  px               96      1.269267   4 C  s         
    34     -1.249773   2 C  s                67      1.067561   3 C  s         
 
 Vector   77  Occ=0.000000D+00  E= 1.700961D+00
              MO Center= -8.3D-02,  4.9D-01, -9.9D-02, r^2= 3.8D+00
   Bfn.  Coefficient  Atom+Function         Bfn.  Coefficient  Atom+Function  
  ----- ------------  ---------------      ----- ------------  ---------------
     5      3.865640   1 O  s                97      3.600498   4 C  s         
    72      3.482732   3 C  py               35     -2.550478   2 C  s         
    36     -2.459095   2 C  s                42      2.380536   2 C  pz        
   104      2.182112   4 C  pz              138     -2.180942   7 H  s         
    41      1.483511   2 C  py               12      1.465698   1 O  px        
 
 Vector   78  Occ=0.000000D+00  E= 1.787294D+00
              MO Center=  3.8D-01,  2.6D-01,  3.9D-02, r^2= 3.5D+00
   Bfn.  Coefficient  Atom+Function         Bfn.  Coefficient  Atom+Function  
  ----- ------------  ---------------      ----- ------------  ---------------
    35      3.234775   2 C  s                97     -2.895410   4 C  s         
    36      1.758762   2 C  s                45     -1.289523   2 C  pz        
   104     -1.234307   4 C  pz               67     -1.209438   3 C  s         
    42     -1.099300   2 C  pz               72      1.051152   3 C  py        
   102      0.978132   4 C  px               96      0.938688   4 C  s         
 
 Vector   79  Occ=0.000000D+00  E= 1.815337D+00
              MO Center= -6.2D-01,  1.6D-01,  1.9D-01, r^2= 2.6D+00
   Bfn.  Coefficient  Atom+Function         Bfn.  Coefficient  Atom+Function  
  ----- ------------  ---------------      ----- ------------  ---------------
    35      3.960756   2 C  s                 5     -3.301001   1 O  s         
    40     -2.465115   2 C  px               41      2.156775   2 C  py        
    72      1.964472   3 C  py               66     -1.780202   3 C  s         
    71     -1.649115   3 C  px               12     -1.383758   1 O  px        
   132     -1.031075   6 H  s               138     -1.018038   7 H  s         
 
 Vector   80  Occ=0.000000D+00  E= 1.841258D+00
              MO Center=  7.9D-02,  3.0D-01, -8.2D-02, r^2= 3.7D+00
   Bfn.  Coefficient  Atom+Function         Bfn.  Coefficient  Atom+Function  
  ----- ------------  ---------------      ----- ------------  ---------------
    35      1.762078   2 C  s                36     -1.172882   2 C  s         
   156     -0.962587  10 H  s               104     -0.833450   4 C  pz        
    71     -0.732628   3 C  px               97     -0.689230   4 C  s         
    41     -0.654488   2 C  py              157      0.653685  10 H  s         
    67      0.650066   3 C  s               126     -0.633420   5 H  s         
 
 Vector   81  Occ=0.000000D+00  E= 1.867475D+00
              MO Center=  5.1D-01,  2.0D-01, -4.2D-01, r^2= 4.0D+00
   Bfn.  Coefficient  Atom+Function         Bfn.  Coefficient  Atom+Function  
  ----- ------------  ---------------      ----- ------------  ---------------
    35      6.694393   2 C  s                66     -4.536270   3 C  s         
    72      3.589128   3 C  py               97     -3.219827   4 C  s         
    36      2.030992   2 C  s               104     -1.842200   4 C  pz        
    41      1.717837   2 C  py               34     -1.653531   2 C  s         
    67     -1.453960   3 C  s                45     -1.372987   2 C  pz        
 
 Vector   82  Occ=0.000000D+00  E= 1.922429D+00
              MO Center=  3.5D-01, -1.7D-01, -3.3D-01, r^2= 3.2D+00
   Bfn.  Coefficient  Atom+Function         Bfn.  Coefficient  Atom+Function  
  ----- ------------  ---------------      ----- ------------  ---------------
    36      1.472685   2 C  s                98     -1.426321   4 C  s         
   103     -1.263941   4 C  py               45     -1.248706   2 C  pz        
    97     -1.225342   4 C  s                42     -0.846068   2 C  pz        
    35      0.773379   2 C  s               150     -0.773616   9 H  s         
    40      0.702677   2 C  px               41      0.646006   2 C  py        
 
 Vector   83  Occ=0.000000D+00  E= 1.992065D+00
              MO Center=  1.0D+00, -3.4D-01, -7.1D-01, r^2= 3.3D+00
   Bfn.  Coefficient  Atom+Function         Bfn.  Coefficient  Atom+Function  
  ----- ------------  ---------------      ----- ------------  ---------------
    98      4.772278   4 C  s                35      3.765823   2 C  s         
    36     -3.099961   2 C  s                66     -2.562939   3 C  s         
    40     -1.829383   2 C  px               72      1.801715   3 C  py        
    41      1.647851   2 C  py              107      1.474080   4 C  pz        
    43     -1.295401   2 C  px               34     -1.203527   2 C  s         
 
 Vector   84  Occ=0.000000D+00  E= 1.996226D+00
              MO Center=  4.4D-01,  2.0D-02, -4.1D-01, r^2= 3.3D+00
   Bfn.  Coefficient  Atom+Function         Bfn.  Coefficient  Atom+Function  
  ----- ------------  ---------------      ----- ------------  ---------------
    36      3.476999   2 C  s                98     -2.164820   4 C  s         
    67     -2.006903   3 C  s                45     -1.881453   2 C  pz        
    40     -1.396372   2 C  px                5     -1.184470   1 O  s         
    44      0.965627   2 C  py               43     -0.929262   2 C  px        
    71     -0.901157   3 C  px              126      0.845037   5 H  s         
 
 Vector   85  Occ=0.000000D+00  E= 2.088311D+00
              MO Center= -3.4D-02,  1.6D-01, -1.1D-02, r^2= 3.5D+00
   Bfn.  Coefficient  Atom+Function         Bfn.  Coefficient  Atom+Function  
  ----- ------------  ---------------      ----- ------------  ---------------
    98     -2.037241   4 C  s                36      1.997941   2 C  s         
   138     -0.746953   7 H  s               156      0.725577  10 H  s         
    14     -0.647043   1 O  pz              144      0.530992   8 H  s         
    40     -0.526935   2 C  px              150      0.515312   9 H  s         
    83     -0.485732   3 C  d -1            105      0.483390   4 C  px        
 
 Vector   86  Occ=0.000000D+00  E= 2.097690D+00
              MO Center= -3.7D-01,  6.1D-02,  7.0D-02, r^2= 2.9D+00
   Bfn.  Coefficient  Atom+Function         Bfn.  Coefficient  Atom+Function  
  ----- ------------  ---------------      ----- ------------  ---------------
    36      5.945050   2 C  s                67     -5.673338   3 C  s         
    35     -3.404283   2 C  s                66      3.363393   3 C  s         
    41     -3.093436   2 C  py               71      2.761387   3 C  px        
    13      1.882525   1 O  py               82     -1.480540   3 C  d -2      
    55      1.354431   2 C  d  2             75      1.351798   3 C  py        
 
 Vector   87  Occ=0.000000D+00  E= 2.166948D+00
              MO Center=  5.1D-01, -4.8D-02, -5.0D-01, r^2= 3.2D+00
   Bfn.  Coefficient  Atom+Function         Bfn.  Coefficient  Atom+Function  
  ----- ------------  ---------------      ----- ------------  ---------------
    98      2.241569   4 C  s                67     -1.668316   3 C  s         
    35     -1.202200   2 C  s                73      1.049738   3 C  pz        
   156     -0.898647  10 H  s                40      0.823242   2 C  px        
    44      0.794716   2 C  py               45      0.774021   2 C  pz        
    43     -0.750100   2 C  px               42     -0.718346   2 C  pz        
 
 Vector   88  Occ=0.000000D+00  E= 2.197462D+00
              MO Center=  4.4D-01,  1.9D-01, -3.0D-01, r^2= 3.6D+00
   Bfn.  Coefficient  Atom+Function         Bfn.  Coefficient  Atom+Function  
  ----- ------------  ---------------      ----- ------------  ---------------
    98      2.066734   4 C  s                36     -1.062002   2 C  s         
    45      0.956628   2 C  pz               76     -0.863632   3 C  pz        
   132      0.798927   6 H  s                42     -0.737959   2 C  pz        
   103     -0.693452   4 C  py              117     -0.680244   4 C  d  2      
    97     -0.644395   4 C  s               138     -0.590382   7 H  s         
 
 Vector   89  Occ=0.000000D+00  E= 2.227654D+00
              MO Center=  5.7D-01,  7.3D-02,  1.3D-02, r^2= 3.5D+00
   Bfn.  Coefficient  Atom+Function         Bfn.  Coefficient  Atom+Function  
  ----- ------------  ---------------      ----- ------------  ---------------
    36      3.167015   2 C  s                67     -1.671980   3 C  s         
    98     -1.317548   4 C  s                 5     -1.188425   1 O  s         
    42     -1.053836   2 C  pz               72     -0.958816   3 C  py        
    66      0.840470   3 C  s                35     -0.742022   2 C  s         
    45     -0.729965   2 C  pz               43     -0.719912   2 C  px        
 
 Vector   90  Occ=0.000000D+00  E= 2.242729D+00
              MO Center=  8.2D-01, -2.7D-01, -8.6D-01, r^2= 3.5D+00
   Bfn.  Coefficient  Atom+Function         Bfn.  Coefficient  Atom+Function  
  ----- ------------  ---------------      ----- ------------  ---------------
   150      1.335920   9 H  s                36      1.255943   2 C  s         
   144     -0.885093   8 H  s                66     -0.865457   3 C  s         
    67     -0.854043   3 C  s                98     -0.756180   4 C  s         
   117      0.754107   4 C  d  2             72      0.707244   3 C  py        
   149     -0.539693   9 H  s               147      0.514208   8 H  py        
 
 Vector   91  Occ=0.000000D+00  E= 2.266101D+00
              MO Center=  9.9D-01, -3.1D-01, -1.1D+00, r^2= 2.9D+00
   Bfn.  Coefficient  Atom+Function         Bfn.  Coefficient  Atom+Function  
  ----- ------------  ---------------      ----- ------------  ---------------
    66      2.554223   3 C  s                41     -1.660771   2 C  py        
    36      1.574992   2 C  s                35     -1.472608   2 C  s         
    67     -1.305382   3 C  s                72     -1.179875   3 C  py        
   126     -0.974871   5 H  s                71      0.967995   3 C  px        
   156      0.943663  10 H  s                40      0.786360   2 C  px        
 
 Vector   92  Occ=0.000000D+00  E= 2.283647D+00
              MO Center=  4.7D-01,  1.6D-01, -2.0D-01, r^2= 3.6D+00
   Bfn.  Coefficient  Atom+Function         Bfn.  Coefficient  Atom+Function  
  ----- ------------  ---------------      ----- ------------  ---------------
    98      3.677735   4 C  s                36     -2.575203   2 C  s         
[...]
    21     -0.870727   1 O  d -1             42     -0.810582   2 C  pz        
    97     -0.732844   4 C  s                45     -0.711361   2 C  pz        
    98     -0.553191   4 C  s                67     -0.512940   3 C  s         
    83     -0.500638   3 C  d -1            102      0.490873   4 C  px        
 
 Vector  154  Occ=0.000000D+00  E= 6.677367D+00
              MO Center= -8.7D-01, -1.8D-01,  2.1D-01, r^2= 5.7D-01
   Bfn.  Coefficient  Atom+Function         Bfn.  Coefficient  Atom+Function  
  ----- ------------  ---------------      ----- ------------  ---------------
    18      1.064877   1 O  d  1             23     -1.039179   1 O  d  1      
    97     -0.891598   4 C  s                42     -0.799535   2 C  pz        
    35      0.784611   2 C  s               102      0.650745   4 C  px        
    54     -0.542679   2 C  d  1             14      0.409697   1 O  pz        
    45     -0.401357   2 C  pz               16     -0.391804   1 O  d -1      
 
 Vector  155  Occ=0.000000D+00  E= 6.841456D+00
              MO Center= -8.9D-01, -1.9D-01,  2.1D-01, r^2= 5.9D-01
   Bfn.  Coefficient  Atom+Function         Bfn.  Coefficient  Atom+Function  
  ----- ------------  ---------------      ----- ------------  ---------------
     5      2.119800   1 O  s                40      1.767654   2 C  px        
     9      1.370695   1 O  px               97     -1.276686   4 C  s         
     4      1.216646   1 O  s                20      1.044672   1 O  d -2      
    42     -0.968340   2 C  pz               12      0.851159   1 O  px        
    22     -0.835259   1 O  d  0             35     -0.839400   2 C  s         
 
 Vector  156  Occ=0.000000D+00  E= 7.054967D+00
              MO Center= -8.9D-01, -1.9D-01,  2.1D-01, r^2= 6.4D-01
   Bfn.  Coefficient  Atom+Function         Bfn.  Coefficient  Atom+Function  
  ----- ------------  ---------------      ----- ------------  ---------------
    66     -3.178832   3 C  s                35      3.023314   2 C  s         
    40     -2.726333   2 C  px               72      2.692935   3 C  py        
    24     -1.571165   1 O  d  2             36      1.471525   2 C  s         
    10      1.285174   1 O  py               67     -1.288776   3 C  s         
    19      1.012570   1 O  d  2             13      0.867732   1 O  py        
 
 Vector  157  Occ=0.000000D+00  E= 2.194132D+01
              MO Center=  5.2D-02,  8.1D-01,  8.1D-02, r^2= 1.1D+00
   Bfn.  Coefficient  Atom+Function         Bfn.  Coefficient  Atom+Function  
  ----- ------------  ---------------      ----- ------------  ---------------
    64      1.601513   3 C  s                65     -1.373131   3 C  s         
    63     -1.262020   3 C  s                67     -1.237553   3 C  s         
    98      1.034030   4 C  s                95     -0.705675   4 C  s         
    96      0.575582   4 C  s                94      0.558374   4 C  s         
    35      0.498486   2 C  s                40     -0.459609   2 C  px        
 
 Vector  158  Occ=0.000000D+00  E= 2.197866D+01
              MO Center=  9.3D-01, -2.9D-01, -7.7D-01, r^2= 1.0D+00
   Bfn.  Coefficient  Atom+Function         Bfn.  Coefficient  Atom+Function  
  ----- ------------  ---------------      ----- ------------  ---------------
    95      1.459953   4 C  s                96     -1.344960   4 C  s         
    98     -1.190078   4 C  s                94     -1.148888   4 C  s         
    34     -0.936132   2 C  s                36     -0.907871   2 C  s         
    33      0.858763   2 C  s                32     -0.671104   2 C  s         
    67      0.627120   3 C  s                65     -0.585155   3 C  s         
 
 Vector  159  Occ=0.000000D+00  E= 2.210061D+01
              MO Center=  6.0D-01, -1.1D-01, -6.6D-02, r^2= 7.0D-01
   Bfn.  Coefficient  Atom+Function         Bfn.  Coefficient  Atom+Function  
  ----- ------------  ---------------      ----- ------------  ---------------
    36      2.184059   2 C  s                33     -1.543249   2 C  s         
    34      1.521126   2 C  s                35     -1.306151   2 C  s         
    98     -1.271742   4 C  s                32      1.208649   2 C  s         
    67     -1.164507   3 C  s                95      0.705667   4 C  s         
    97      0.682167   4 C  s                96     -0.635301   4 C  s         
 
 Vector  160  Occ=0.000000D+00  E= 4.341601D+01
              MO Center= -8.8D-01, -1.8D-01,  2.1D-01, r^2= 1.2D-01
   Bfn.  Coefficient  Atom+Function         Bfn.  Coefficient  Atom+Function  
  ----- ------------  ---------------      ----- ------------  ---------------
     4      2.510906   1 O  s                 3     -1.875527   1 O  s         
     2      1.731635   1 O  s                 1     -1.395857   1 O  s         
     5     -0.885808   1 O  s                36      0.856529   2 C  s         
     9      0.564457   1 O  px               66     -0.517992   3 C  s         
    40      0.472904   2 C  px               72      0.455515   3 C  py        
 

 center of mass
 --------------
 x =   0.30619371 y =   0.09486517 z =  -0.27792485

 moments of inertia (a.u.)
 ------------------
         199.489157300473          45.132086299389          84.158377519447
          45.132086299389         248.292871773274         -51.587383763612
          84.158377519447         -51.587383763612         238.861522552903
 
     Multipole analysis of the density
     ---------------------------------
 
     L   x y z        total         alpha         beta         nuclear
     -   - - -        -----         -----         ----         -------
     0   0 0 0     -0.000000    -16.000000    -16.000000     32.000000
 
     1   1 0 0      0.696294     -6.234556     -6.234556     13.165405
     1   0 1 0      0.326130     -1.633191     -1.633191      3.592513
     1   0 0 1     -0.062794      5.333388      5.333388    -10.729569
 
     2   2 0 0    -20.032708    -54.469578    -54.469578     88.906448
     2   1 1 0     -1.097992     13.724590     13.724590    -28.547172
     2   1 0 1      0.166417     26.591550     26.591550    -53.016683
     2   0 2 0    -17.838179    -40.338951    -40.338951     62.839722
     2   0 1 1      0.240289    -15.080551    -15.080551     30.401391
     2   0 0 2    -18.205322    -45.713484    -45.713484     73.221646
 
 *** CALLING NEW AORESP DRIVER FOR CLOSED AND OPEN SHELLS ***
 Entering AOResponse driver routine


--------------------------------------------------------------------------------

          ****************
          *** RESPONSE ***
          ****************

 Response module for NWChem and dynamic CPKS solver
 developed by J. Autschbach and coworkers, SUNY Buffalo
 The methodology used in this program is described in 
 ChemPhysChem 12 (2011), 3224-3235 (main reference)
 J. Chem. Phys. 123 (2005), 114103
 J. Chem. Phys. 122 (2005), 224115
 J. Chem. Phys. 122 (2005), 074105
 Comp. Lett. 3 (2007), 131-150 (contact JA for a copy)
 Please cite this work in publications based on results
 obtained with this code. Thank you!

 For extension of response module to open shell
 calculations please acknowledge:
 F. Aquino, Northwestern University, Schatz Rsrch Group
 The update to the methodology is described in
 J. Phys. Chem. A 118 (2014) 517-525



          -----------------------------------------------
          Solving response equations for perturbing field
          -----------------------------------------------

 number of frequencies:     1
 frequency in a.u.:  0.9319600E-01
 Perturbing field: electric
 Using GIAO formalism for OptRot
 Adding quadrupole terms to OptRot
 to create an origin in dependent tensor.
 Using El. Dipole Length Gauge
 
 Applying DAMPING constant of  0.003700 a.u.
 
 Setting up CPKS
 with frequency omega =      0.09319600 a.u.
 and a damping of            0.00370000 a.u.

 
                            NWChem Dynamic CPHF Module
                            --------------------------
 
 
    scftype = RHF 
    nclosed =   16
      nopen =    0
  variables =     9216
  num. vecs =        3
  tolerance =   1.0D-07
  max. iter =  100

 SCF residual:   4.954654444546548E-006


Iterative solution of linear equations
  No. of variables     4608
  No. of equations        3
  Maximum subspace       99
       Convergence  1.0D-07
        Start time     86.3


   iter   nsub   residual    time 
   ----  ------  --------  --------- 
 dft_CPHF2_read: failed to open
 ./methyloxirane_blyp-def2-tzvp_488.9_02.inp.aoresp_fiao_f1
     1      3    3.78D+00     129.8
     2      6    2.68D+00     173.5
     3      9    2.48D-01     217.3
     4     12    5.27D-02     261.0
     5     15    1.06D-02     304.8
     6     18    1.30D-03     348.5
     7     21    1.48D-04     392.2
     8     24    1.45D-05     435.8
     9     27    1.25D-06     479.5
    10     30    4.99D-07     523.3
    11     33    1.61D-08     567.0

 Calculating some arrays needed for GIAO optical rotation

    0 giaofock schwarz done =      93.23%
    0 giaofock schwarz done =      93.23%
 aor_r1_tensor_giao: roadata output requested
 dip-quad polarizability Re:

              1        2        3        4        5        6      
    1   77.2951  -6.1842 -27.4897  -4.1602   1.3573   9.1018
    2  -11.8693  25.9457   3.6476  23.7620 -21.8791   3.8068
    3   -6.3826   1.3090  39.4058  -0.3218  13.9771 -41.5950
 traceless dip-quad polarizability:

              1        2        3      
    1   74.8243  -9.2763 -41.2345
    2   -9.2763 -47.3586   2.0359
    3  -41.2345   2.0359 -27.4657

              1        2        3      
    1  -25.6537  38.9185   5.4714
    2   38.9185  27.7932 -32.8187
    3    5.4714 -32.8187  -2.1395

              1        2        3      
    1   14.5757   1.9635  59.1087
    2    1.9635  23.6670  20.9656
    3   59.1087  20.9656 -38.2428

 roa begin

 alpha real:
 XX       0.4099113154424E+02
 XY      -0.5131362218801E+01
 XZ      -0.3046123899312E+01
 YX      -0.5131362229730E+01
 YY       0.4403535048031E+02
 YZ       0.3112271760150E+01
 ZX      -0.3046123909059E+01
 ZY       0.3112271758602E+01
 ZZ       0.4143435852255E+02

 alpha im:
 XX       0.1107558221180E+00
 XY      -0.2961042295458E-01
 XZ      -0.1120627642622E-01
 YX      -0.2961041762418E-01
 YY       0.1290325490126E+00
 YZ       0.1817494407384E-01
 ZX      -0.1120627191657E-01
 ZY       0.1817494584843E-01
 ZZ       0.1222056654640E+00

 beta real:
 XX      -0.1382821478001E+00
 XY       0.9411748045229E+00
 XZ       0.1996997630413E+00
 YX      -0.8926204398064E+00
 YY       0.1435551349872E+00
 YZ      -0.1542805370570E+01
 ZX      -0.4851003271429E+00
 ZY       0.1874599557241E+01
 ZZ      -0.8068103647600E-02

 G-prime = -omega beta(real):
 XX      -0.1382821478001E+00
 XY       0.9411748045229E+00
 XZ       0.1996997630413E+00
 YX      -0.8926204398064E+00
 YY       0.1435551349872E+00
 YZ      -0.1542805370570E+01
 ZX      -0.4851003271429E+00
 ZY       0.1874599557241E+01
 ZZ      -0.8068103647600E-02

 beta im:
 XX      -0.5955595553271E-02
 XY       0.1352288492223E-01
 XZ       0.2646724392873E-02
 YX      -0.7669722136696E-02
 YY       0.4704210515726E-02
 YZ      -0.2325957862498E-01
 ZX      -0.1341478018595E-01
 ZY       0.4033236809424E-01
 ZZ       0.5004812546239E-03

 G-prime = -omega beta(imag):
 XX      -0.5955595553271E-02
 XY       0.1352288492223E-01
 XZ       0.2646724392873E-02
 YX      -0.7669722136696E-02
 YY       0.4704210515726E-02
 YZ      -0.2325957862498E-01
 ZX      -0.1341478018595E-01
 ZY       0.4033236809424E-01
 ZZ       0.5004812546239E-03

 dipole-quadrupole real (Cartesian):
 XXX      0.7729510045026E+02
 XXY     -0.6184230607596E+01
 XXZ     -0.2748967397308E+02
 XYY     -0.4160182753874E+01
 XYZ      0.1357279500396E+01
 XZZ      0.9101801085577E+01
 YXX     -0.1186927544392E+02
 YXY      0.2594569452067E+02
 YXZ      0.3647586061378E+01
 YYY      0.2376195893504E+02
 YYZ     -0.2187913277085E+02
 YZZ      0.3806815592121E+01
 ZXX     -0.6382647106992E+01
 ZXY      0.1308993693808E+01
 ZXZ      0.3940579884683E+02
 ZYY     -0.3218061353183E+00
 ZYZ      0.1397709784720E+02
 ZZZ     -0.4159497867275E+02

 dipole-quadrupole imag (Cartesian):
 XXX      0.2699652195599E+00
 XXY     -0.3452764816428E-01
 XXZ     -0.7627889531975E-01
 XYY     -0.2714108540538E-01
 XYZ      0.3000694524149E-02
 XZZ      0.6019021105250E-01
 YXX     -0.5716585558308E-01
 YXY      0.6343694894199E-01
 YXZ      0.2094429823266E-01
 YYY      0.9403416798170E-01
 YYZ     -0.6189067617136E-01
 YZZ      0.8199816864598E-02
 ZXX     -0.3301450697521E-01
 ZXY      0.1140045818201E-02
 ZXZ      0.1456987706960E+00
 ZYY      0.4735432703025E-02
 ZYZ      0.6637709042577E-01
 ZZZ     -0.9825106672595E-01

 dipole-quadrupole (traceless):
 XXX      0.7482429128440E+02
 XXY     -0.9276345911394E+01
 XXZ     -0.4123451095963E+02
 XYY     -0.4735863352179E+02
 XYZ      0.2035919250595E+01
 XZZ     -0.2746565776261E+02
 YXX     -0.2565366270750E+02
 YXY      0.3891854178101E+02
 YXZ      0.5471379092068E+01
 YYY      0.2779318886094E+02
 YYZ     -0.3281869915628E+02
 YZZ     -0.2139526153440E+01
 ZXX      0.1457574529704E+02
 ZXY      0.1963490540712E+01
 ZXZ      0.5910869827024E+02
 ZYY      0.2366700675455E+02
 ZYZ      0.2096564677080E+02
 ZZZ     -0.3824275205159E+02

 roa end


 Electric Dipole Response Matrix (nonzero elements):

              1        2        3      
    1   40.9911  -5.1314  -3.0461
    2   -5.1314  44.0354   3.1123
    3   -3.0461   3.1123  41.4344
 
 Imaginary part:

              1        2        3      
    1    0.1108  -0.0296  -0.0112
    2   -0.0296   0.1290   0.0182
    3   -0.0112   0.0182   0.1222

 ------------------------------------------
 average:        42.15361 + I       0.12066


 DFT Linear Response polarizability / au 
 Frequency  =       0.0931960 / au
 Wavelength =     488.8981609 / nm
              X              Y              Z
 -----------------------------------------------
 X      40.9911315     -5.1313622     -3.0461239
 Y      -5.1313622     44.0353505      3.1122718
 Z      -3.0461239      3.1122718     41.4343585
 -----------------------------------------------
 Eigenvalues =      37.0355630     50.0375770     39.3877006
 Isotropic   =      42.1536135
 Anisotropic =       9.7980404
 -----------------------------------------------
 *************************

 DFT Linear Response IMAG polarizability / au 
 Frequency  =       0.0931960 / au
 Wavelength =     488.8981609 / nm
              X              Y              Z
 -----------------------------------------------
 X       0.1107558     -0.0296104     -0.0112063
 Y      -0.0296104      0.1290325      0.0181749
 Z      -0.0112063      0.0181749      0.1222057
 -----------------------------------------------
 Eigenvalues =       0.0887852      0.1622120      0.1109968
 Isotropic   =       0.1206647
 Anisotropic =       0.0532537
 -----------------------------------------------
 *************************

 Magnetic Dipole Response Matrix (nonzero elements):
 Optical rotation tensor Beta
 (Buckingham-Dunn version including dipole-quadrupole terms)

              1        2        3      
    1    2.6531  -0.3731   0.4099
    2   -0.3731  -1.5645  -1.7306
    3    0.4099  -1.7306  -1.0586
 
 Imaginary part:

              1        2        3      
    1    0.0639  -0.1451  -0.0284
    2    0.0823  -0.0505   0.2496
    3    0.1439  -0.4328  -0.0054

 ------------------------------------------
 average:         0.01000 + I       0.00269

 Principal components and PAS (Real part)
                 -3.06052
                  2.78393
                  0.30659
 ------------------------
 average:         0.01000

              1        2        3      
    1    0.0025   0.9732  -0.2298
    2    0.7568  -0.1521  -0.6357
    3    0.6537   0.1723   0.7369

 Chiral response tensor (Real part):

              1        2        3      
    1   -1.3115   0.1865  -0.2049
    2    0.1865   0.7972   0.8653
    3   -0.2049   0.8653   0.5443
 
 Principal components and PAS (Real part)
                  1.54526
                 -1.37697
                 -0.13830
 ------------------------
 average:         0.01000

              1        2        3      
    1    0.0025   0.9732  -0.2298
    2    0.7568  -0.1521  -0.6357
    3    0.6537   0.1723   0.7369
 Exiting AOResponse driver routine

 Task  times  cpu:      549.9s     wall:      560.8s
 
 
                                NWChem Input Module
                                -------------------
 
 
 Summary of allocated global arrays
-----------------------------------
  No active global arrays



                         GA Statistics for process    0
                         ------------------------------

       create   destroy   get      put      acc     scatter   gather  read&inc
calls: 3294     3294     7.51e+06 3.14e+06 6.76e+05 2694        0     1177     
number of processes/call 1.01e+00 1.03e+00 1.41e+00 0.00e+00 0.00e+00
bytes total:             1.50e+09 1.26e+08 1.61e+09 1.84e+02 0.00e+00 9.42e+03
bytes remote:            5.86e+08 3.29e+07 8.69e+08 0.00e+00 0.00e+00 0.00e+00
Max memory consumed for GA by this process: 11242192 bytes
 
MA_summarize_allocated_blocks: starting scan ...
MA_summarize_allocated_blocks: scan completed: 0 heap blocks, 0 stack blocks
MA usage statistics:

	allocation statistics:
					      heap	     stack
					      ----	     -----
	current number of blocks	         0	         0
	maximum number of blocks	        24	        52
	current total bytes		         0	         0
	maximum total bytes		   7519856	  48504104
	maximum total K-bytes		      7520	     48505
	maximum total M-bytes		         8	        49
 
 
                                     CITATION
                                     --------
                Please cite the following reference when publishing
                           results obtained with NWChem:
 
                 M. Valiev, E.J. Bylaska, N. Govind, K. Kowalski,
              T.P. Straatsma, H.J.J. van Dam, D. Wang, J. Nieplocha,
                        E. Apra, T.L. Windus, W.A. de Jong
                 "NWChem: a comprehensive and scalable open-source
                  solution for large scale molecular simulations"
                      Comput. Phys. Commun. 181, 1477 (2010)
                           doi:10.1016/j.cpc.2010.04.018
 
                                      AUTHORS
                                      -------
          E. Apra, E. J. Bylaska, W. A. de Jong, N. Govind, K. Kowalski,
       T. P. Straatsma, M. Valiev, H. J. J. van Dam, D. Wang, T. L. Windus,
        J. Hammond, J. Autschbach, K. Bhaskaran-Nair, J. Brabec, K. Lopata,
    S. A. Fischer, S. Krishnamoorthy, M. Jacquelin, W. Ma, M. Klemm, O. Villa,
      Y. Chen, V. Anisimov, F. Aquino, S. Hirata, M. T. Hackler, V. Konjkov,
            D. Mejia-Rodriguez, T. Risthaus, M. Malagoli, A. Marenich,
   A. Otero-de-la-Roza, J. Mullin, P. Nichols, R. Peverati, J. Pittner, Y. Zhao,
        P.-D. Fan, A. Fonari, M. J. Williamson, R. J. Harrison, J. R. Rehr,
      M. Dupuis, D. Silverstein, D. M. A. Smith, J. Nieplocha, V. Tipparaju,
    M. Krishnan, B. E. Van Kuiken, A. Vazquez-Mayagoitia, L. Jensen, M. Swart,
      Q. Wu, T. Van Voorhis, A. A. Auer, M. Nooijen, L. D. Crosby, E. Brown,
      G. Cisneros, G. I. Fann, H. Fruchtl, J. Garza, K. Hirao, R. A. Kendall,
      J. A. Nichols, K. Tsemekhman, K. Wolinski, J. Anchell, D. E. Bernholdt,
      P. Borowski, T. Clark, D. Clerc, H. Dachsel, M. J. O. Deegan, K. Dyall,
    D. Elwood, E. Glendening, M. Gutowski, A. C. Hess, J. Jaffe, B. G. Johnson,
     J. Ju, R. Kobayashi, R. Kutteh, Z. Lin, R. Littlefield, X. Long, B. Meng,
      T. Nakajima, S. Niu, L. Pollack, M. Rosing, K. Glaesemann, G. Sandrone,
      M. Stave, H. Taylor, G. Thomas, J. H. van Lenthe, A. T. Wong, Z. Zhang.

 Total times  cpu:      617.1s     wall:      629.5s
