 argument  1 = methyloxirane_blyp-def2-tzvp_488.9_36.inp
 


============================== echo of input deck ==============================
echo
start methyloxirane_blyp-def2-tzvp_488.9_36.inp
title "methyloxirane roa calculations at 488.9 nm, input generated in va  with delta_type=2"
charge 0



geometry units angstrom nocenter noautoz noautosym nucleus point;symmetry c1
 O -0.878829 -0.178906  0.204938
 C  0.571872 -0.158615  0.116986
 C -0.184636  1.086355  0.343781
 C  1.187232 -0.520877 -1.208355
 H  1.068879 -0.585586  0.995236
 H -0.238340  1.547688  1.333498
 H -0.320848  1.768747 -0.499734
 H  2.242217 -0.214759 -1.251189
 H  1.136804 -1.605435 -1.376720
 H  0.643563 -0.024618 -2.022205
end

basis spherical
* library def2-TZVP
end

 set prop:newaoresp 1
 set aor:roadata T
 set cphf:maxsub 100
 set cphf:acc 1.0d-10
 set cphf:maxiter 100

property
    response 1   0.093196
    bdtensor
    convergence 1e-7
    damping 0.0037
    giao
end

dft
 direct
 mult 1
 xc becke88 lyp
 iterations 250
 tolerances tight
 grid xfine
 convergence nolevelshifting
 convergence energy 1e-8
 convergence gradient 1e-7


end

task dft gradient
task dft property
================================================================================


                                         
                                         
 
 
              Northwest Computational Chemistry Package (NWChem) 6.8
              ------------------------------------------------------
 
 
                    Environmental Molecular Sciences Laboratory
                       Pacific Northwest National Laboratory
                                Richland, WA 99352
 
                              Copyright (c) 1994-2017
                       Pacific Northwest National Laboratory
                            Battelle Memorial Institute
 
             NWChem is an open-source computational chemistry package
                        distributed under the terms of the
                      Educational Community License (ECL) 2.0
             A copy of the license is included with this distribution
                              in the LICENSE.TXT file
 
                                  ACKNOWLEDGMENT
                                  --------------

            This software and its documentation were developed at the
            EMSL at Pacific Northwest National Laboratory, a multiprogram
            national laboratory, operated for the U.S. Department of Energy
            by Battelle under Contract Number DE-AC05-76RL01830. Support
            for this work was provided by the Department of Energy Office
            of Biological and Environmental Research, Office of Basic
            Energy Sciences, and the Office of Advanced Scientific Computing.


           Job information
           ---------------

    hostname        = cpn-d11-02.cbls.ccr.buffalo.edu
    program         = /util/academic/nwchem/nwchem-6.8/bin/LINUX64/nwchem
    date            = Fri Mar  1 10:36:33 2019

    compiled        = Tue_Nov_06_14:59:08_2018
    source          = /util/academic/nwchem/nwchem-6.8
    nwchem branch   = 6.8
    nwchem revision = v6.8-47-gdf6c956
    ga revision     = ga-5.6.3
    use scalapack   = F
    input           = methyloxirane_blyp-def2-tzvp_488.9_36.inp
    prefix          = methyloxirane_blyp-def2-tzvp_488.9_36.inp.
    data base       = ./methyloxirane_blyp-def2-tzvp_488.9_36.inp.db
    status          = startup
    nproc           =        7
    time left       =     -1s



           Memory information
           ------------------

    heap     =   13107196 doubles =    100.0 Mbytes
    stack    =   13107201 doubles =    100.0 Mbytes
    global   =   26214400 doubles =    200.0 Mbytes (distinct from heap & stack)
    total    =   52428797 doubles =    400.0 Mbytes
    verify   = yes
    hardfail = no 


           Directory information
           ---------------------
 
  0 permanent = .
  0 scratch   = .
 
 
 
 
                                NWChem Input Module
                                -------------------
 
 
                    methyloxirane roa calculations at 488.9 nm, input generated in va  with delta_type=2
                    ------------------------------------------

 Scaling coordinates for geometry "geometry" by  1.889725989
 (inverse scale =  0.529177249)

 
 
                             Geometry "geometry" -> ""
                             -------------------------
 
 Output coordinates in angstroms (scale by  1.889725989 to convert to a.u.)
 
  No.       Tag          Charge          X              Y              Z
 ---- ---------------- ---------- -------------- -------------- --------------
    1 O                    8.0000    -0.87882900    -0.17890600     0.20493800
    2 C                    6.0000     0.57187200    -0.15861500     0.11698600
    3 C                    6.0000    -0.18463600     1.08635500     0.34378100
    4 C                    6.0000     1.18723200    -0.52087700    -1.20835500
    5 H                    1.0000     1.06887900    -0.58558600     0.99523600
    6 H                    1.0000    -0.23834000     1.54768800     1.33349800
    7 H                    1.0000    -0.32084800     1.76874700    -0.49973400
    8 H                    1.0000     2.24221700    -0.21475900    -1.25118900
    9 H                    1.0000     1.13680400    -1.60543500    -1.37672000
   10 H                    1.0000     0.64356300    -0.02461800    -2.02220500
 
      Atomic Mass 
      ----------- 
 
      O                 15.994910
      C                 12.000000
      H                  1.007825
 

 Effective nuclear repulsion energy (a.u.)     123.7010674285

            Nuclear Dipole moment (a.u.) 
            ----------------------------
        X                 Y               Z
 ---------------- ---------------- ----------------
    13.1306684351     3.5828581134   -10.7093379595
 
 
            XYZ format geometry
            -------------------
    10
 geometry
 O                    -0.87882900    -0.17890600     0.20493800
 C                     0.57187200    -0.15861500     0.11698600
 C                    -0.18463600     1.08635500     0.34378100
 C                     1.18723200    -0.52087700    -1.20835500
 H                     1.06887900    -0.58558600     0.99523600
 H                    -0.23834000     1.54768800     1.33349800
 H                    -0.32084800     1.76874700    -0.49973400
 H                     2.24221700    -0.21475900    -1.25118900
 H                     1.13680400    -1.60543500    -1.37672000
 H                     0.64356300    -0.02461800    -2.02220500
 
 ==============================================================================
                                internuclear distances
 ------------------------------------------------------------------------------
       center one      |      center two      | atomic units |  angstroms
 ------------------------------------------------------------------------------
    2 C                |   1 O                |     2.74673  |     1.45351
    3 C                |   1 O                |     2.73982  |     1.44985
    3 C                |   2 C                |     2.78611  |     1.47434
    4 C                |   2 C                |     2.84492  |     1.50547
    5 H                |   2 C                |     2.07065  |     1.09574
    6 H                |   3 C                |     2.06599  |     1.09328
    7 H                |   3 C                |     2.06640  |     1.09349
    8 H                |   4 C                |     2.07744  |     1.09933
    9 H                |   4 C                |     2.07625  |     1.09871
   10 H                |   4 C                |     2.07371  |     1.09736
 ------------------------------------------------------------------------------
                         number of included internuclear distances:         10
 ==============================================================================



 ==============================================================================
                                 internuclear angles
 ------------------------------------------------------------------------------
        center 1       |       center 2       |       center 3       |  degrees
 ------------------------------------------------------------------------------
    2 C                |   1 O                |   3 C                |    61.04
    2 C                |   1 O                |   3 C                |    61.04
    1 O                |   2 C                |   4 C                |   117.25
    1 O                |   2 C                |   5 H                |   113.50
    3 C                |   2 C                |   4 C                |   123.25
    3 C                |   2 C                |   5 H                |   116.01
    4 C                |   2 C                |   5 H                |   115.24
    3 C                |   1 O                |   2 C                |    61.04
    1 O                |   3 C                |   6 H                |   115.56
    1 O                |   3 C                |   7 H                |   114.27
    2 C                |   3 C                |   6 H                |   121.38
    2 C                |   3 C                |   7 H                |   118.18
    6 H                |   3 C                |   7 H                |   115.40
    2 C                |   4 C                |   8 H                |   111.07
    2 C                |   4 C                |   9 H                |   110.71
    2 C                |   4 C                |  10 H                |   109.97
    8 H                |   4 C                |   9 H                |   108.24
    8 H                |   4 C                |  10 H                |   108.70
    9 H                |   4 C                |  10 H                |   108.06
 ------------------------------------------------------------------------------
                            number of included internuclear angles:         19
 ==============================================================================



  warning:::::::::::::: from_environment
  NWCHEM_BASIS_LIBRARY set to: <
 /util/academic/nwchem/nwchem-6.8/src/basis/libraries>
  but file does not exist !
  using .nwchemrc or compiled library


 Summary of "ao basis" -> "" (spherical)
 ------------------------------------------------------------------------------
       Tag                 Description            Shells   Functions and Types
 ---------------- ------------------------------  ------  ---------------------
 *                         def2-TZVP                  on all atoms 


 
                                 NWChem DFT Module
                                 -----------------
 
 
                    methyloxirane roa calculations at 488.9 nm, input generated in va  with delta_type=2
 
 
                      Basis "ao basis" -> "ao basis" (spherical)
                      -----
  O (Oxygen)
  ----------
            Exponent  Coefficients 
       -------------- ---------------------------------------------------------
  1 S  2.70323826E+04  0.000217
  1 S  4.05238714E+03  0.001684
  1 S  9.22327227E+02  0.008740
  1 S  2.61240710E+02  0.035240
  1 S  8.53546414E+01  0.111535
  1 S  3.10350352E+01  0.255890
 
  2 S  1.22608607E+01  0.397687
  2 S  4.99870760E+00  0.246278
 
  3 S  1.17031082E+00  1.000000
 
  4 S  4.64747410E-01  1.000000
 
  5 S  1.85045364E-01  1.000000
 
  6 P  6.32749548E+01  0.006069
  6 P  1.46270494E+01  0.041913
  6 P  4.45012235E+00  0.161538
  6 P  1.52757996E+00  0.357070
 
  7 P  5.29351179E-01  1.000000
 
  8 P  1.74784213E-01  1.000000
 
  9 D  2.31400000E+00  1.000000
 
 10 D  6.45000000E-01  1.000000
 
 11 F  1.42800000E+00  1.000000
 
  C (Carbon)
  ----------
            Exponent  Coefficients 
       -------------- ---------------------------------------------------------
  1 S  1.35753497E+04  0.000222
  1 S  2.03523337E+03  0.001723
  1 S  4.63225624E+02  0.008926
  1 S  1.31200196E+02  0.035728
  1 S  4.28530159E+01  0.110763
  1 S  1.55841858E+01  0.242956
 
  2 S  6.20671385E+00  0.414403
  2 S  2.57648965E+00  0.237450
 
  3 S  5.76963394E-01  1.000000
 
  4 S  2.29728314E-01  1.000000
 
  5 S  9.51644400E-02  1.000000
 
  6 P  3.46972322E+01  0.005333
  6 P  7.95826228E+00  0.035864
  6 P  2.37808269E+00  0.142159
  6 P  8.14332082E-01  0.342705
 
  7 P  2.88875473E-01  1.000000
 
  8 P  1.00568237E-01  1.000000
 
  9 D  1.09700000E+00  1.000000
 
 10 D  3.18000000E-01  1.000000
 
 11 F  7.61000000E-01  1.000000
 
  H (Hydrogen)
  ------------
            Exponent  Coefficients 
       -------------- ---------------------------------------------------------
  1 S  3.40613410E+01  0.006025
  1 S  5.12357460E+00  0.045021
  1 S  1.16466260E+00  0.201897
 
  2 S  3.27230410E-01  1.000000
 
  3 S  1.03072410E-01  1.000000
 
  4 P  8.00000000E-01  1.000000
 


 Summary of "ao basis" -> "ao basis" (spherical)
 ------------------------------------------------------------------------------
       Tag                 Description            Shells   Functions and Types
 ---------------- ------------------------------  ------  ---------------------
 O                         def2-TZVP                11       31   5s3p2d1f
 C                         def2-TZVP                11       31   5s3p2d1f
 H                         def2-TZVP                 4        6   3s1p




 Summary of "ao basis" -> "ao basis" (spherical)
 ------------------------------------------------------------------------------
       Tag                 Description            Shells   Functions and Types
 ---------------- ------------------------------  ------  ---------------------
 O                         def2-TZVP                11       31   5s3p2d1f
 C                         def2-TZVP                11       31   5s3p2d1f
 H                         def2-TZVP                 4        6   3s1p


  Caching 1-el integrals 
  itol2e modified to match energy
  convergence criterion.
  tol_rho modified to match energy
  convergence criterion.
 
            General Information
            -------------------
          SCF calculation type: DFT
          Wavefunction type:  closed shell.
          No. of atoms     :    10
          No. of electrons :    32
           Alpha electrons :    16
            Beta electrons :    16
          Charge           :     0
          Spin multiplicity:     1
          Use of symmetry is: off; symmetry adaption is: off
          Maximum number of iterations: 250
          This is a Direct SCF calculation.
          AO basis - number of functions:   160
                     number of shells:    68
          Convergence on energy requested:  1.00D-08
          Convergence on density requested:  1.00D-05
          Convergence on gradient requested:  1.00D-07
 
              XC Information
              --------------
                    Becke 1988 Exchange Functional  1.000          
              Lee-Yang-Parr Correlation Functional  1.000          
 
             Grid Information
             ----------------
          Grid used for XC integration:  xfine     
          Radial quadrature: Mura-Knowles        
          Angular quadrature: Lebedev. 
          Tag              B.-S. Rad. Rad. Pts. Rad. Cut. Ang. Pts.
          ---              ---------- --------- --------- ---------
          O                   0.60      100          11.0      1454
          C                   0.70      100          11.0      1454
          H                   0.35      100          12.0      1202
          Grid pruning is: on 
          Number of quadrature shells:  1000
          Spatial weights used:  Erf1
 
          Convergence Information
          -----------------------
          Convergence aids based upon iterative change in 
          total energy or number of iterations. 
          Levelshifting, if invoked, occurs when the 
          HOMO/LUMO gap drops below (HL_TOL):  1.00D-02
          DIIS, if invoked, will attempt to extrapolate 
          using up to (NFOCK): 10 stored Fock matrices.

                    Damping( 0%)  Levelshifting(0.0)       DIIS
                  --------------- ------------------- ---------------
          dE  on:    start             N/A                start   
          dE off:    2 iters           N/A              250 iters 

 
      Screening Tolerance Information
      -------------------------------
          Density screening/tol_rho:  1.00D-11
          AO Gaussian exp screening on grid/accAOfunc:  18
          CD Gaussian exp screening on grid/accCDfunc:  20
          XC Gaussian exp screening on grid/accXCfunc:  20
          Schwarz screening/accCoul:  1.00D-09

 
      Superposition of Atomic Density Guess
      -------------------------------------
 
 Sum of atomic energies:        -190.79714706
 
      Non-variational initial energy
      ------------------------------

 Total energy =    -193.182047
 1-e energy   =    -502.351567
 2-e energy   =     185.468453
 HOMO         =      -0.350734
 LUMO         =       0.090955
 
   Time after variat. SCF:      1.5
   Time prior to 1st pass:      1.5

 Grid_pts file          = ./methyloxirane_blyp-def2-tzvp_488.9_36.inp.gridpts.0
 Record size in doubles =  12289        No. of grid_pts per rec  =   3070
 Max. records in memory =     76        Max. recs in file   =    317624


           Memory utilization after 1st SCF pass: 
           Heap Space remaining (MW):       12.17            12167540
          Stack Space remaining (MW):       13.11            13106124

   convergence    iter        energy       DeltaE   RMS-Dens  Diis-err    time
 ---------------- ----- ----------------- --------- --------- ---------  ------
 d= 0,ls=0.0,diis     1   -193.0208607977 -3.17D+02  9.11D-03  1.05D+00     7.9
 d= 0,ls=0.0,diis     2   -192.8666343848  1.54D-01  7.54D-03  2.47D+00    13.9
 d= 0,ls=0.0,diis     3   -193.0765024957 -2.10D-01  1.83D-03  3.92D-01    20.0
 d= 0,ls=0.0,diis     4   -193.1071735644 -3.07D-02  6.75D-04  1.78D-02    26.0
 d= 0,ls=0.0,diis     5   -193.1087974567 -1.62D-03  2.92D-04  2.66D-03    32.0
 d= 0,ls=0.0,diis     6   -193.1091292857 -3.32D-04  3.06D-05  3.42D-05    38.0
 d= 0,ls=0.0,diis     7   -193.1091334169 -4.13D-06  8.40D-06  3.57D-06    43.9
 d= 0,ls=0.0,diis     8   -193.1091338187 -4.02D-07  1.80D-06  2.59D-07    50.0
 d= 0,ls=0.0,diis     9   -193.1091338473 -2.86D-08  5.82D-07  1.24D-08    55.9
 d= 0,ls=0.0,diis    10   -193.1091338488 -1.55D-09  1.24D-07  4.52D-10    61.9


         Total DFT energy =     -193.109133848807
      One electron energy =     -506.006442949083
           Coulomb energy =      216.221271257914
    Exchange-Corr. energy =      -27.025029586184
 Nuclear repulsion energy =      123.701067428546

 Numeric. integr. density =       31.999999952528

     Total iterative time =     60.4s


 
                       DFT Final Molecular Orbital Analysis
                       ------------------------------------
 
 Vector    1  Occ=2.000000D+00  E=-1.878019D+01
              MO Center= -8.8D-01, -1.8D-01,  2.0D-01, r^2= 1.5D-02
   Bfn.  Coefficient  Atom+Function         Bfn.  Coefficient  Atom+Function  
  ----- ------------  ---------------      ----- ------------  ---------------
     2      0.638474   1 O  s                 1      0.435422   1 O  s         
     3      0.039921   1 O  s                 4     -0.033368   1 O  s         
 
 Vector    2  Occ=2.000000D+00  E=-9.962701D+00
              MO Center=  5.7D-01, -1.6D-01,  1.2D-01, r^2= 2.8D-02
   Bfn.  Coefficient  Atom+Function         Bfn.  Coefficient  Atom+Function  
  ----- ------------  ---------------      ----- ------------  ---------------
    33      0.606900   2 C  s                32      0.467260   2 C  s         
    34      0.042532   2 C  s                36      0.037539   2 C  s         
    35     -0.027044   2 C  s         
 
 Vector    3  Occ=2.000000D+00  E=-9.955101D+00
              MO Center= -1.8D-01,  1.1D+00,  3.4D-01, r^2= 2.8D-02
   Bfn.  Coefficient  Atom+Function         Bfn.  Coefficient  Atom+Function  
  ----- ------------  ---------------      ----- ------------  ---------------
    64      0.607021   3 C  s                63      0.467221   3 C  s         
    65      0.039706   3 C  s         
 
 Vector    4  Occ=2.000000D+00  E=-9.907919D+00
              MO Center=  1.2D+00, -5.2D-01, -1.2D+00, r^2= 2.8D-02
   Bfn.  Coefficient  Atom+Function         Bfn.  Coefficient  Atom+Function  
  ----- ------------  ---------------      ----- ------------  ---------------
    95      0.606953   4 C  s                94      0.467213   4 C  s         
    96      0.040565   4 C  s                98      0.035948   4 C  s         
 
 Vector    5  Occ=2.000000D+00  E=-9.640374D-01
              MO Center= -4.7D-01,  5.7D-02,  2.1D-01, r^2= 6.5D-01
   Bfn.  Coefficient  Atom+Function         Bfn.  Coefficient  Atom+Function  
  ----- ------------  ---------------      ----- ------------  ---------------
     4      0.375089   1 O  s                 3      0.277328   1 O  s         
     2     -0.192739   1 O  s                34      0.139880   2 C  s         
    65      0.139240   3 C  s                 5      0.122558   1 O  s         
    35      0.105156   2 C  s                 6      0.093685   1 O  px        
    66      0.093225   3 C  s                69     -0.091555   3 C  py        
 
 Vector    6  Occ=2.000000D+00  E=-6.711463D-01
              MO Center=  9.4D-01, -3.9D-01, -7.7D-01, r^2= 1.5D+00
   Bfn.  Coefficient  Atom+Function         Bfn.  Coefficient  Atom+Function  
  ----- ------------  ---------------      ----- ------------  ---------------
    97      0.285062   4 C  s                96      0.276310   4 C  s         
    35      0.185173   2 C  s                34      0.174885   2 C  s         
    95     -0.174050   4 C  s                 4     -0.147181   1 O  s         
    33     -0.109348   2 C  s                 3     -0.102768   1 O  s         
    94     -0.083399   4 C  s                 5     -0.072828   1 O  s         
 
 Vector    7  Occ=2.000000D+00  E=-5.896558D-01
              MO Center= -1.3D-01,  7.1D-01,  2.2D-01, r^2= 2.0D+00
   Bfn.  Coefficient  Atom+Function         Bfn.  Coefficient  Atom+Function  
  ----- ------------  ---------------      ----- ------------  ---------------
    66      0.325654   3 C  s                65      0.277831   3 C  s         
     4     -0.238829   1 O  s                64     -0.171747   3 C  s         
     3     -0.168613   1 O  s                 5     -0.148398   1 O  s         
     2      0.111325   1 O  s                38      0.105133   2 C  py        
   132      0.102211   6 H  s                97     -0.099371   4 C  s         
 
 Vector    8  Occ=2.000000D+00  E=-5.297759D-01
              MO Center=  4.1D-01,  2.3D-02, -9.7D-02, r^2= 2.7D+00
   Bfn.  Coefficient  Atom+Function         Bfn.  Coefficient  Atom+Function  
  ----- ------------  ---------------      ----- ------------  ---------------
    35      0.302960   2 C  s                34      0.224462   2 C  s         
    97     -0.155015   4 C  s                66     -0.153723   3 C  s         
    33     -0.138071   2 C  s               126      0.132140   5 H  s         
    96     -0.128509   4 C  s                 6      0.107488   1 O  px        
   125      0.105590   5 H  s                65     -0.099617   3 C  s         
 
 Vector    9  Occ=2.000000D+00  E=-4.486865D-01
              MO Center=  1.2D-01,  2.9D-01,  2.4D-01, r^2= 2.5D+00
   Bfn.  Coefficient  Atom+Function         Bfn.  Coefficient  Atom+Function  
  ----- ------------  ---------------      ----- ------------  ---------------
    70      0.211127   3 C  pz               39      0.154890   2 C  pz        
   132      0.144474   6 H  s                73      0.132592   3 C  pz        
     8      0.128111   1 O  pz              126      0.115564   5 H  s         
     6     -0.109440   1 O  px              131      0.107248   6 H  s         
    37      0.105094   2 C  px               38     -0.105049   2 C  py        
 
 Vector   10  Occ=2.000000D+00  E=-4.133590D-01
              MO Center=  5.8D-02,  2.6D-01, -2.4D-01, r^2= 2.6D+00
   Bfn.  Coefficient  Atom+Function         Bfn.  Coefficient  Atom+Function  
  ----- ------------  ---------------      ----- ------------  ---------------
    69      0.215858   3 C  py              101      0.156639   4 C  pz        
   138      0.149580   7 H  s                 6     -0.146270   1 O  px        
    38     -0.139800   2 C  py               37      0.129967   2 C  px        
     7     -0.123580   1 O  py               72      0.121826   3 C  py        
     9     -0.116836   1 O  px               70     -0.109876   3 C  pz        
 
 Vector   11  Occ=2.000000D+00  E=-3.781370D-01
              MO Center=  9.0D-01, -3.1D-01, -7.3D-01, r^2= 2.7D+00
   Bfn.  Coefficient  Atom+Function         Bfn.  Coefficient  Atom+Function  
  ----- ------------  ---------------      ----- ------------  ---------------
    99      0.209222   4 C  px              144      0.184418   8 H  s         
   100      0.166024   4 C  py              150     -0.141372   9 H  s         
   102      0.133720   4 C  px               37      0.128735   2 C  px        
   143      0.129021   8 H  s                 6     -0.119208   1 O  px        
     7      0.112606   1 O  py              103      0.109673   4 C  py        
 
 Vector   12  Occ=2.000000D+00  E=-3.562555D-01
              MO Center=  6.0D-01, -3.3D-01, -8.7D-01, r^2= 2.9D+00
   Bfn.  Coefficient  Atom+Function         Bfn.  Coefficient  Atom+Function  
  ----- ------------  ---------------      ----- ------------  ---------------
   100      0.256403   4 C  py              150     -0.186075   9 H  s         
   156      0.175328  10 H  s               103      0.166033   4 C  py        
     7     -0.164572   1 O  py               10     -0.131738   1 O  py        
   149     -0.129487   9 H  s                70      0.123509   3 C  pz        
   155      0.124101  10 H  s               106      0.103125   4 C  py        
 
 Vector   13  Occ=2.000000D+00  E=-3.297081D-01
              MO Center=  2.7D-01,  2.2D-01, -2.4D-01, r^2= 2.7D+00
   Bfn.  Coefficient  Atom+Function         Bfn.  Coefficient  Atom+Function  
  ----- ------------  ---------------      ----- ------------  ---------------
     7      0.204446   1 O  py               39     -0.196280   2 C  pz        
   101      0.177021   4 C  pz               10      0.165350   1 O  py        
   138     -0.157860   7 H  s                70      0.155425   3 C  pz        
    99     -0.145838   4 C  px               42     -0.132423   2 C  pz        
   104      0.124772   4 C  pz              137     -0.106389   7 H  s         
 
 Vector   14  Occ=2.000000D+00  E=-3.210486D-01
              MO Center=  4.6D-01, -3.5D-02, -2.3D-01, r^2= 3.0D+00
   Bfn.  Coefficient  Atom+Function         Bfn.  Coefficient  Atom+Function  
  ----- ------------  ---------------      ----- ------------  ---------------
   126      0.173008   5 H  s                 7      0.171342   1 O  py        
    39      0.159749   2 C  pz              156      0.159983  10 H  s         
   101     -0.147543   4 C  pz               99     -0.142537   4 C  px        
    10      0.140969   1 O  py                6     -0.140239   1 O  px        
    37      0.121273   2 C  px              144     -0.121788   8 H  s         
 
 Vector   15  Occ=2.000000D+00  E=-2.629118D-01
              MO Center=  1.7D-02,  1.5D-01,  3.5D-02, r^2= 2.3D+00
   Bfn.  Coefficient  Atom+Function         Bfn.  Coefficient  Atom+Function  
  ----- ------------  ---------------      ----- ------------  ---------------
    68      0.265909   3 C  px               38      0.257984   2 C  py        
     6     -0.235305   1 O  px               41      0.201280   2 C  py        
    71      0.197270   3 C  px                9     -0.183939   1 O  px        
    12     -0.156489   1 O  px              150      0.114395   9 H  s         
   100     -0.109612   4 C  py               67      0.105633   3 C  s         
 
 Vector   16  Occ=2.000000D+00  E=-2.201831D-01
              MO Center= -5.8D-01, -2.2D-02,  2.0D-01, r^2= 1.6D+00
   Bfn.  Coefficient  Atom+Function         Bfn.  Coefficient  Atom+Function  
  ----- ------------  ---------------      ----- ------------  ---------------
     8      0.448147   1 O  pz               11      0.356954   1 O  pz        
    14      0.295347   1 O  pz              133     -0.129530   6 H  s         
   139      0.115537   7 H  s               138      0.105049   7 H  s         
   132     -0.103683   6 H  s               145     -0.102107   8 H  s         
   126     -0.098247   5 H  s                98      0.097064   4 C  s         
 
 Vector   17  Occ=0.000000D+00  E= 2.577298D-02
              MO Center=  1.2D+00, -9.0D-02, -6.3D-01, r^2= 7.2D+00
   Bfn.  Coefficient  Atom+Function         Bfn.  Coefficient  Atom+Function  
  ----- ------------  ---------------      ----- ------------  ---------------
    98      4.493370   4 C  s               145     -1.520358   8 H  s         
   151     -1.506833   9 H  s               157     -1.351267  10 H  s         
   127     -1.222521   5 H  s                45      1.124961   2 C  pz        
   139     -0.878571   7 H  s                67      0.693191   3 C  s         
   133     -0.600661   6 H  s                75      0.322221   3 C  py        
 
 Vector   18  Occ=0.000000D+00  E= 4.327266D-02
              MO Center= -1.3D-01,  6.6D-01,  1.1D-01, r^2= 4.5D+00
   Bfn.  Coefficient  Atom+Function         Bfn.  Coefficient  Atom+Function  
  ----- ------------  ---------------      ----- ------------  ---------------
    98     -2.115382   4 C  s                36      2.073878   2 C  s         
     5     -1.266425   1 O  s                74     -0.955266   3 C  px        
   151      0.811906   9 H  s                67     -0.478052   3 C  s         
    45     -0.445745   2 C  pz               13     -0.431567   1 O  py        
   157      0.428975  10 H  s                44      0.402321   2 C  py        
 
 Vector   19  Occ=0.000000D+00  E= 5.068895D-02
              MO Center=  4.8D-01,  8.0D-01,  3.3D-01, r^2= 7.2D+00
   Bfn.  Coefficient  Atom+Function         Bfn.  Coefficient  Atom+Function  
  ----- ------------  ---------------      ----- ------------  ---------------
    67      3.386683   3 C  s                98     -2.997158   4 C  s         
   133     -1.800509   6 H  s               145      1.285288   8 H  s         
    44     -1.153702   2 C  py              139     -0.813692   7 H  s         
   157      0.722934  10 H  s               151      0.651240   9 H  s         
    45     -0.548195   2 C  pz              127     -0.489901   5 H  s         
 
 Vector   20  Occ=0.000000D+00  E= 5.114139D-02
              MO Center=  5.2D-01,  2.6D-01, -7.5D-02, r^2= 6.9D+00
   Bfn.  Coefficient  Atom+Function         Bfn.  Coefficient  Atom+Function  
  ----- ------------  ---------------      ----- ------------  ---------------
    36      2.868183   2 C  s               127     -2.109091   5 H  s         
    67     -1.728099   3 C  s                98     -1.525498   4 C  s         
   139      1.484181   7 H  s               157      1.199838  10 H  s         
    76      0.704263   3 C  pz               43      0.602833   2 C  px        
   133     -0.424287   6 H  s                 5      0.419312   1 O  s         
 
 Vector   21  Occ=0.000000D+00  E= 6.468598D-02
              MO Center=  2.6D-01,  7.2D-02, -1.5D-01, r^2= 4.9D+00
   Bfn.  Coefficient  Atom+Function         Bfn.  Coefficient  Atom+Function  
  ----- ------------  ---------------      ----- ------------  ---------------
    98      1.427547   4 C  s               139      1.181049   7 H  s         
   151     -1.035061   9 H  s                67     -0.975316   3 C  s         
     5     -0.886652   1 O  s                43     -0.849262   2 C  px        
   133      0.683863   6 H  s                75     -0.583578   3 C  py        
    12     -0.484272   1 O  px               45      0.428612   2 C  pz        
 
 Vector   22  Occ=0.000000D+00  E= 8.562710D-02
              MO Center=  1.2D+00,  2.6D-01, -3.9D-01, r^2= 7.3D+00
   Bfn.  Coefficient  Atom+Function         Bfn.  Coefficient  Atom+Function  
  ----- ------------  ---------------      ----- ------------  ---------------
    36      3.105440   2 C  s               145      1.868626   8 H  s         
    67     -1.522577   3 C  s               127     -1.402538   5 H  s         
   157     -1.297591  10 H  s               133      1.258735   6 H  s         
   107     -1.162238   4 C  pz               98     -1.093359   4 C  s         
   105     -0.923347   4 C  px               75      0.804951   3 C  py        
 
 Vector   23  Occ=0.000000D+00  E= 9.151959D-02
              MO Center=  1.3D+00, -7.1D-01, -6.1D-01, r^2= 6.3D+00
   Bfn.  Coefficient  Atom+Function         Bfn.  Coefficient  Atom+Function  
  ----- ------------  ---------------      ----- ------------  ---------------
   151      2.119821   9 H  s                36      2.078983   2 C  s         
   145     -1.718421   8 H  s               106      1.215068   4 C  py        
   105      1.154943   4 C  px               98     -1.112402   4 C  s         
   133      0.826534   6 H  s               127     -0.707197   5 H  s         
    44     -0.699763   2 C  py               67     -0.678210   3 C  s         
 
 Vector   24  Occ=0.000000D+00  E= 1.033263D-01
              MO Center=  4.2D-01,  4.7D-01, -1.1D+00, r^2= 6.7D+00
   Bfn.  Coefficient  Atom+Function         Bfn.  Coefficient  Atom+Function  
  ----- ------------  ---------------      ----- ------------  ---------------
   157      2.055026  10 H  s               133      1.590337   6 H  s         
    98     -1.575713   4 C  s               139     -1.539029   7 H  s         
   106     -1.446646   4 C  py              151     -1.333966   9 H  s         
    36      1.310750   2 C  s                76     -1.171125   3 C  pz        
   105      1.031714   4 C  px               45     -0.559217   2 C  pz        
 
 Vector   25  Occ=0.000000D+00  E= 1.400887D-01
              MO Center=  8.3D-01,  1.7D-01, -4.9D-01, r^2= 7.9D+00
   Bfn.  Coefficient  Atom+Function         Bfn.  Coefficient  Atom+Function  
  ----- ------------  ---------------      ----- ------------  ---------------
    36      4.803144   2 C  s                98     -3.623631   4 C  s         
    45     -3.405773   2 C  pz               67     -2.773351   3 C  s         
   127      2.682396   5 H  s                76      2.187165   3 C  pz        
   105      2.166753   4 C  px              133     -1.822601   6 H  s         
   139      1.709772   7 H  s               107     -1.622517   4 C  pz        
 
 Vector   26  Occ=0.000000D+00  E= 1.695743D-01
              MO Center=  4.5D-01,  5.4D-01, -1.2D-01, r^2= 7.2D+00
   Bfn.  Coefficient  Atom+Function         Bfn.  Coefficient  Atom+Function  
  ----- ------------  ---------------      ----- ------------  ---------------
    75      2.329996   3 C  py               67     -1.640223   3 C  s         
   107      1.611945   4 C  pz               36      1.588687   2 C  s         
   139     -1.140725   7 H  s               157      1.063951  10 H  s         
    74     -0.985811   3 C  px               44      0.785343   2 C  py        
    43     -0.663239   2 C  px              106     -0.616281   4 C  py        
 
 Vector   27  Occ=0.000000D+00  E= 1.981742D-01
              MO Center=  8.5D-01, -7.7D-02, -9.7D-01, r^2= 5.1D+00
   Bfn.  Coefficient  Atom+Function         Bfn.  Coefficient  Atom+Function  
  ----- ------------  ---------------      ----- ------------  ---------------
    67      3.039346   3 C  s                44     -2.605735   2 C  py        
   106      2.032741   4 C  py               36     -1.603327   2 C  s         
    43      0.979152   2 C  px               74      0.699025   3 C  px        
    45     -0.689130   2 C  pz              105      0.683284   4 C  px        
   150      0.647077   9 H  s               157     -0.640815  10 H  s         
 
 Vector   28  Occ=0.000000D+00  E= 2.015857D-01
              MO Center=  9.2D-01, -4.6D-01, -7.2D-01, r^2= 6.7D+00
   Bfn.  Coefficient  Atom+Function         Bfn.  Coefficient  Atom+Function  
  ----- ------------  ---------------      ----- ------------  ---------------
    36      2.549184   2 C  s                75      1.692925   3 C  py        
   105     -1.497306   4 C  px              133     -1.219079   6 H  s         
   107     -0.843431   4 C  pz               45      0.810671   2 C  pz        
   139     -0.756548   7 H  s               156     -0.720020  10 H  s         
   106      0.715245   4 C  py               76      0.654654   3 C  pz        
 
 Vector   29  Occ=0.000000D+00  E= 2.369375D-01
              MO Center= -3.4D-01,  4.4D-01, -7.4D-03, r^2= 5.4D+00
   Bfn.  Coefficient  Atom+Function         Bfn.  Coefficient  Atom+Function  
  ----- ------------  ---------------      ----- ------------  ---------------
    67      4.911312   3 C  s                36     -3.256186   2 C  s         
   139     -1.474125   7 H  s                66     -1.440562   3 C  s         
   133     -1.246847   6 H  s                98      1.165476   4 C  s         
   107      0.865057   4 C  pz                5     -0.775586   1 O  s         
    74     -0.766941   3 C  px              106      0.762481   4 C  py        
 
 Vector   30  Occ=0.000000D+00  E= 2.494066D-01
              MO Center=  5.9D-01, -3.6D-02, -1.1D-01, r^2= 5.7D+00
   Bfn.  Coefficient  Atom+Function         Bfn.  Coefficient  Atom+Function  
  ----- ------------  ---------------      ----- ------------  ---------------
    67      5.714479   3 C  s                43      4.262281   2 C  px        
    75     -2.975388   3 C  py               44     -2.668950   2 C  py        
   107     -2.139939   4 C  pz               36     -1.879391   2 C  s         
   157     -1.844831  10 H  s                45     -1.627477   2 C  pz        
    98     -1.602368   4 C  s               105     -1.183462   4 C  px        
 
 Vector   31  Occ=0.000000D+00  E= 2.679377D-01
              MO Center=  3.0D-01, -1.0D-01,  2.5D-01, r^2= 5.7D+00
   Bfn.  Coefficient  Atom+Function         Bfn.  Coefficient  Atom+Function  
  ----- ------------  ---------------      ----- ------------  ---------------
    36      4.225739   2 C  s                67      2.317523   3 C  s         
     5     -2.174337   1 O  s               105      1.506846   4 C  px        
    43     -1.497372   2 C  px               66     -1.211421   3 C  s         
    98     -1.085727   4 C  s               139     -0.983828   7 H  s         
   133     -0.885365   6 H  s               127     -0.879422   5 H  s         
 
 Vector   32  Occ=0.000000D+00  E= 2.785119D-01
              MO Center=  3.7D-01,  3.1D-01,  3.0D-01, r^2= 4.2D+00
   Bfn.  Coefficient  Atom+Function         Bfn.  Coefficient  Atom+Function  
  ----- ------------  ---------------      ----- ------------  ---------------
    36      2.508291   2 C  s                 5     -1.757208   1 O  s         
    67     -1.502754   3 C  s                43     -1.189087   2 C  px        
    74     -0.719042   3 C  px               98     -0.620853   4 C  s         
   145      0.581800   8 H  s                 4      0.495436   1 O  s         
    45     -0.477666   2 C  pz              157     -0.421110  10 H  s         
 
 Vector   33  Occ=0.000000D+00  E= 3.001763D-01
              MO Center=  4.4D-01,  3.5D-01, -3.9D-01, r^2= 5.0D+00
   Bfn.  Coefficient  Atom+Function         Bfn.  Coefficient  Atom+Function  
  ----- ------------  ---------------      ----- ------------  ---------------
    43      1.821952   2 C  px              106      1.727768   4 C  py        
   151      1.635361   9 H  s                36     -1.619630   2 C  s         
    98     -1.359435   4 C  s                44     -1.188993   2 C  py        
    76      1.132213   3 C  pz               66      0.990001   3 C  s         
   107     -0.940577   4 C  pz                5      0.877680   1 O  s         
 
 Vector   34  Occ=0.000000D+00  E= 3.387577D-01
              MO Center=  5.7D-02,  4.8D-01, -3.8D-01, r^2= 5.9D+00
   Bfn.  Coefficient  Atom+Function         Bfn.  Coefficient  Atom+Function  
  ----- ------------  ---------------      ----- ------------  ---------------
    67      4.796121   3 C  s                76     -4.277103   3 C  pz        
   139     -3.347615   7 H  s                36     -3.002618   2 C  s         
   133      2.179727   6 H  s                98      1.824972   4 C  s         
   157     -1.772692  10 H  s               107     -1.640846   4 C  pz        
    43      1.305636   2 C  px               44     -1.127554   2 C  py        
 
 Vector   35  Occ=0.000000D+00  E= 3.637377D-01
              MO Center=  9.1D-01, -1.0D-01, -5.3D-01, r^2= 6.8D+00
   Bfn.  Coefficient  Atom+Function         Bfn.  Coefficient  Atom+Function  
  ----- ------------  ---------------      ----- ------------  ---------------
    98      8.846576   4 C  s                97     -3.499837   4 C  s         
   145     -3.497034   8 H  s                76      3.026754   3 C  pz        
   133     -2.193840   6 H  s               151     -2.145725   9 H  s         
   157     -1.732829  10 H  s                45     -1.440187   2 C  pz        
    44      1.399052   2 C  py              139      1.336593   7 H  s         
 
 Vector   36  Occ=0.000000D+00  E= 3.742317D-01
              MO Center=  5.6D-01,  2.3D-01,  6.5D-02, r^2= 6.2D+00
   Bfn.  Coefficient  Atom+Function         Bfn.  Coefficient  Atom+Function  
  ----- ------------  ---------------      ----- ------------  ---------------
    36     13.475088   2 C  s                67     -8.536650   3 C  s         
    98     -8.282079   4 C  s               127     -3.303898   5 H  s         
   157      2.165226  10 H  s                97      2.120236   4 C  s         
    35     -2.038150   2 C  s                44      2.006706   2 C  py        
    74     -1.640732   3 C  px               75      1.600233   3 C  py        
 
 Vector   37  Occ=0.000000D+00  E= 3.861645D-01
              MO Center=  7.7D-01, -3.4D-01, -1.0D-01, r^2= 6.1D+00
   Bfn.  Coefficient  Atom+Function         Bfn.  Coefficient  Atom+Function  
  ----- ------------  ---------------      ----- ------------  ---------------
    98      5.634206   4 C  s               127     -4.176834   5 H  s         
    36      3.945581   2 C  s                45      3.796750   2 C  pz        
    76     -2.482730   3 C  pz              151     -2.359430   9 H  s         
    35     -2.071186   2 C  s               145     -1.875760   8 H  s         
   133      1.815967   6 H  s                43      1.754400   2 C  px        
 
 Vector   38  Occ=0.000000D+00  E= 3.958030D-01
              MO Center=  1.5D-01,  1.5D-01, -7.6D-02, r^2= 6.2D+00
   Bfn.  Coefficient  Atom+Function         Bfn.  Coefficient  Atom+Function  
  ----- ------------  ---------------      ----- ------------  ---------------
    98     11.463622   4 C  s                67     -5.591675   3 C  s         
    45      5.108707   2 C  pz               76     -2.916716   3 C  pz        
    36     -2.558219   2 C  s               157     -2.490522  10 H  s         
   133      2.472779   6 H  s                44      2.434770   2 C  py        
    43     -2.012217   2 C  px              107      1.785331   4 C  pz        
 
 Vector   39  Occ=0.000000D+00  E= 4.007426D-01
              MO Center= -1.7D-01,  2.2D-01,  2.2D-01, r^2= 6.5D+00
   Bfn.  Coefficient  Atom+Function         Bfn.  Coefficient  Atom+Function  
  ----- ------------  ---------------      ----- ------------  ---------------
    67    -12.724206   3 C  s                36     12.535944   2 C  s         
    45     -4.719817   2 C  pz               98     -4.382737   4 C  s         
    44      3.927502   2 C  py               66      2.799835   3 C  s         
   127      2.646587   5 H  s                43     -2.518202   2 C  px        
   105      2.363986   4 C  px              139      2.273097   7 H  s         
 
 Vector   40  Occ=0.000000D+00  E= 4.160963D-01
              MO Center=  8.1D-01, -3.2D-01, -8.2D-01, r^2= 5.9D+00
   Bfn.  Coefficient  Atom+Function         Bfn.  Coefficient  Atom+Function  
  ----- ------------  ---------------      ----- ------------  ---------------
    98      7.140675   4 C  s                45      3.117238   2 C  pz        
    36     -3.096897   2 C  s               105     -2.627960   4 C  px        
   151     -2.365152   9 H  s               157     -2.098866  10 H  s         
   145      1.810560   8 H  s                97     -1.122176   4 C  s         
   127     -0.994497   5 H  s               144     -0.974218   8 H  s         
 
 Vector   41  Occ=0.000000D+00  E= 4.253641D-01
              MO Center=  4.9D-01,  1.8D-01, -1.9D-01, r^2= 6.8D+00
   Bfn.  Coefficient  Atom+Function         Bfn.  Coefficient  Atom+Function  
  ----- ------------  ---------------      ----- ------------  ---------------
    36      9.243314   2 C  s                67     -4.319703   3 C  s         
    98     -4.278856   4 C  s                75      2.490399   3 C  py        
   151      2.458891   9 H  s                44      2.381054   2 C  py        
    43     -1.589838   2 C  px               74     -1.403924   3 C  px        
    45     -1.394080   2 C  pz               35     -1.368688   2 C  s         
 
 Vector   42  Occ=0.000000D+00  E= 4.476371D-01
              MO Center=  7.9D-02, -8.5D-02, -2.2D-01, r^2= 6.2D+00
   Bfn.  Coefficient  Atom+Function         Bfn.  Coefficient  Atom+Function  
  ----- ------------  ---------------      ----- ------------  ---------------
    36      9.812333   2 C  s                98     -9.550778   4 C  s         
    45     -5.809691   2 C  pz              127      2.903473   5 H  s         
    76      2.837481   3 C  pz               67     -2.705084   3 C  s         
   157      2.317134  10 H  s               133     -2.206270   6 H  s         
    44      2.107153   2 C  py              106     -2.039113   4 C  py        
 
 Vector   43  Occ=0.000000D+00  E= 4.596927D-01
              MO Center=  9.3D-02,  7.5D-01, -5.7D-01, r^2= 5.2D+00
   Bfn.  Coefficient  Atom+Function         Bfn.  Coefficient  Atom+Function  
  ----- ------------  ---------------      ----- ------------  ---------------
   139      3.236914   7 H  s               107     -2.396689   4 C  pz        
   157     -2.382895  10 H  s                75     -2.204628   3 C  py        
    45     -1.993008   2 C  pz               43      1.672054   2 C  px        
    44     -1.614282   2 C  py              138     -1.409046   7 H  s         
    98     -1.324573   4 C  s                76      1.130787   3 C  pz        
 
 Vector   44  Occ=0.000000D+00  E= 4.688468D-01
              MO Center=  4.5D-01,  2.2D-01,  3.8D-02, r^2= 5.6D+00
   Bfn.  Coefficient  Atom+Function         Bfn.  Coefficient  Atom+Function  
  ----- ------------  ---------------      ----- ------------  ---------------
    98      5.108004   4 C  s                36     -4.579940   2 C  s         
    45      2.174277   2 C  pz              145     -1.751209   8 H  s         
   107      1.529886   4 C  pz              133     -1.455334   6 H  s         
    67      1.266143   3 C  s               132      1.184562   6 H  s         
    35      1.162959   2 C  s               126     -1.074747   5 H  s         
 
 Vector   45  Occ=0.000000D+00  E= 5.075757D-01
              MO Center=  9.4D-01, -4.0D-01, -9.6D-01, r^2= 4.7D+00
   Bfn.  Coefficient  Atom+Function         Bfn.  Coefficient  Atom+Function  
  ----- ------------  ---------------      ----- ------------  ---------------
    98     11.820541   4 C  s                36     -7.831065   2 C  s         
    45      4.762754   2 C  pz              107      3.135442   4 C  pz        
   106      1.330457   4 C  py              144     -1.330957   8 H  s         
   156     -1.266045  10 H  s               127     -1.180194   5 H  s         
   105     -1.139553   4 C  px              150     -1.128616   9 H  s         
 
 Vector   46  Occ=0.000000D+00  E= 5.350222D-01
              MO Center=  4.7D-02, -3.7D-01, -4.5D-01, r^2= 4.4D+00
   Bfn.  Coefficient  Atom+Function         Bfn.  Coefficient  Atom+Function  
  ----- ------------  ---------------      ----- ------------  ---------------
    36      6.291759   2 C  s                98     -6.168999   4 C  s         
    76      3.152051   3 C  pz               45     -3.106364   2 C  pz        
   133     -1.805644   6 H  s               105      1.438382   4 C  px        
   139      1.357523   7 H  s               107     -1.239233   4 C  pz        
    14     -1.223579   1 O  pz                5     -1.063542   1 O  s         
 
 Vector   47  Occ=0.000000D+00  E= 6.588091D-01
              MO Center= -4.3D-01,  5.1D-02, -9.4D-03, r^2= 4.3D+00
   Bfn.  Coefficient  Atom+Function         Bfn.  Coefficient  Atom+Function  
  ----- ------------  ---------------      ----- ------------  ---------------
    36     12.172082   2 C  s                67     -9.380728   3 C  s         
    98     -4.299067   4 C  s                43     -2.600727   2 C  px        
    75      2.593391   3 C  py               13      2.327949   1 O  py        
    76      2.225540   3 C  pz              105      1.619750   4 C  px        
   139      1.600308   7 H  s                44      1.496675   2 C  py        
 
 Vector   48  Occ=0.000000D+00  E= 6.756322D-01
              MO Center= -2.6D-01,  3.6D-01,  1.2D-01, r^2= 3.9D+00
   Bfn.  Coefficient  Atom+Function         Bfn.  Coefficient  Atom+Function  
  ----- ------------  ---------------      ----- ------------  ---------------
    36      7.549803   2 C  s                67     -7.482929   3 C  s         
     5      3.038388   1 O  s                75      2.454411   3 C  py        
    13      2.003738   1 O  py               98     -1.993616   4 C  s         
    45     -1.306048   2 C  pz               43     -1.170527   2 C  px        
     4     -1.121735   1 O  s                44      0.929238   2 C  py        
 
 Vector   49  Occ=0.000000D+00  E= 7.071052D-01
              MO Center=  1.7D-01, -3.2D-01, -2.7D-01, r^2= 4.5D+00
   Bfn.  Coefficient  Atom+Function         Bfn.  Coefficient  Atom+Function  
  ----- ------------  ---------------      ----- ------------  ---------------
    67      9.457508   3 C  s                36     -7.258199   2 C  s         
    43      3.619677   2 C  px               44     -3.452756   2 C  py        
    75     -2.720428   3 C  py               98     -2.656158   4 C  s         
     5      2.236684   1 O  s                12      1.685028   1 O  px        
   106      1.645325   4 C  py               13     -1.325576   1 O  py        
 
 Vector   50  Occ=0.000000D+00  E= 7.624866D-01
              MO Center=  6.7D-01, -3.8D-02, -3.7D-01, r^2= 4.0D+00
   Bfn.  Coefficient  Atom+Function         Bfn.  Coefficient  Atom+Function  
  ----- ------------  ---------------      ----- ------------  ---------------
    45      2.256271   2 C  pz              105     -1.670904   4 C  px        
   127     -1.610417   5 H  s                43      1.547507   2 C  px        
    36      1.498444   2 C  s               126     -1.362829   5 H  s         
   144      1.279737   8 H  s                 5     -1.263505   1 O  s         
    66      0.983303   3 C  s                76     -0.905089   3 C  pz        
 
 Vector   51  Occ=0.000000D+00  E= 7.943811D-01
              MO Center=  2.6D-01,  6.3D-02, -1.8D-01, r^2= 4.4D+00
   Bfn.  Coefficient  Atom+Function         Bfn.  Coefficient  Atom+Function  
  ----- ------------  ---------------      ----- ------------  ---------------
     5      4.125930   1 O  s                36     -2.880296   2 C  s         
    76     -2.537368   3 C  pz                4     -1.617194   1 O  s         
    45      1.573949   2 C  pz               12      1.379271   1 O  px        
   133      1.339644   6 H  s                43      1.312102   2 C  px        
    35     -1.145055   2 C  s                66     -1.069536   3 C  s         
 
 Vector   52  Occ=0.000000D+00  E= 8.320109D-01
              MO Center=  3.0D-01,  1.6D-01,  6.4D-03, r^2= 4.4D+00
   Bfn.  Coefficient  Atom+Function         Bfn.  Coefficient  Atom+Function  
  ----- ------------  ---------------      ----- ------------  ---------------
    36      6.720010   2 C  s                 5     -4.091932   1 O  s         
    98     -4.010373   4 C  s                43     -2.609414   2 C  px        
   105      1.965008   4 C  px               35     -1.870734   2 C  s         
    45     -1.736871   2 C  pz               44      1.442796   2 C  py        
    66     -1.094497   3 C  s                97      1.061795   4 C  s         
 
 Vector   53  Occ=0.000000D+00  E= 8.543683D-01
              MO Center=  6.4D-01,  9.4D-02, -4.2D-01, r^2= 4.2D+00
   Bfn.  Coefficient  Atom+Function         Bfn.  Coefficient  Atom+Function  
  ----- ------------  ---------------      ----- ------------  ---------------
    98     -4.675422   4 C  s                36      4.546445   2 C  s         
    45     -4.527549   2 C  pz               76      2.054549   3 C  pz        
   127      1.755450   5 H  s               106     -1.539613   4 C  py        
    44      1.424068   2 C  py              105      1.394758   4 C  px        
   150     -1.279944   9 H  s               139      1.059861   7 H  s         
 
 Vector   54  Occ=0.000000D+00  E= 8.733450D-01
              MO Center=  1.9D-01, -4.8D-02, -1.4D-01, r^2= 4.3D+00
   Bfn.  Coefficient  Atom+Function         Bfn.  Coefficient  Atom+Function  
  ----- ------------  ---------------      ----- ------------  ---------------
     5      4.561276   1 O  s                36     -1.625465   2 C  s         
     4     -1.561394   1 O  s               138      1.515923   7 H  s         
    76      1.354076   3 C  pz               67     -1.337040   3 C  s         
    66     -1.215589   3 C  s                12      1.181327   1 O  px        
    98     -0.999855   4 C  s                97      0.867317   4 C  s         
 
 Vector   55  Occ=0.000000D+00  E= 9.193136D-01
              MO Center=  4.7D-01,  3.4D-01, -4.4D-01, r^2= 4.6D+00
   Bfn.  Coefficient  Atom+Function         Bfn.  Coefficient  Atom+Function  
  ----- ------------  ---------------      ----- ------------  ---------------
    35      5.049765   2 C  s                36     -1.687126   2 C  s         
    67      1.557375   3 C  s               132     -1.306815   6 H  s         
    72      1.298006   3 C  py               66     -1.214063   3 C  s         
    84      1.180085   3 C  d  0             41      1.165922   2 C  py        
   156     -1.084628  10 H  s               116     -1.056119   4 C  d  1      
 
 Vector   56  Occ=0.000000D+00  E= 9.604800D-01
              MO Center=  4.7D-01,  2.7D-01, -5.7D-01, r^2= 4.7D+00
   Bfn.  Coefficient  Atom+Function         Bfn.  Coefficient  Atom+Function  
  ----- ------------  ---------------      ----- ------------  ---------------
    35      4.265544   2 C  s                67      2.935113   3 C  s         
   138     -2.292243   7 H  s                36     -2.185801   2 C  s         
    76     -1.931979   3 C  pz               42     -1.717797   2 C  pz        
    83     -1.608662   3 C  d -1            115     -1.505855   4 C  d  0      
    43      1.411850   2 C  px              132      1.326493   6 H  s         
 
 Vector   57  Occ=0.000000D+00  E= 9.948981D-01
              MO Center=  2.7D-01,  5.9D-01, -3.9D-02, r^2= 3.9D+00
   Bfn.  Coefficient  Atom+Function         Bfn.  Coefficient  Atom+Function  
  ----- ------------  ---------------      ----- ------------  ---------------
    36      6.909641   2 C  s                98     -4.877417   4 C  s         
    45     -3.591041   2 C  pz               67     -3.323671   3 C  s         
    43     -2.175816   2 C  px               44      1.836981   2 C  py        
    66     -1.550890   3 C  s               127      1.481379   5 H  s         
    75      1.331159   3 C  py              126      1.294547   5 H  s         
 
 Vector   58  Occ=0.000000D+00  E= 1.013342D+00
              MO Center=  4.4D-01,  4.5D-01, -9.9D-02, r^2= 4.3D+00
   Bfn.  Coefficient  Atom+Function         Bfn.  Coefficient  Atom+Function  
  ----- ------------  ---------------      ----- ------------  ---------------
    36      5.865876   2 C  s                67     -4.583599   3 C  s         
    45     -2.341858   2 C  pz               98     -2.087127   4 C  s         
    44      1.881797   2 C  py              156     -1.534134  10 H  s         
   144      1.496390   8 H  s                43     -1.479182   2 C  px        
    76      1.308334   3 C  pz               74     -1.266678   3 C  px        
 
 Vector   59  Occ=0.000000D+00  E= 1.042688D+00
              MO Center=  6.9D-01, -1.5D-01, -4.5D-01, r^2= 4.2D+00
   Bfn.  Coefficient  Atom+Function         Bfn.  Coefficient  Atom+Function  
  ----- ------------  ---------------      ----- ------------  ---------------
    36      3.638063   2 C  s                35      2.637560   2 C  s         
    66     -2.546351   3 C  s                67     -1.998806   3 C  s         
   150      1.994887   9 H  s                 5     -1.955962   1 O  s         
   144     -1.818017   8 H  s               117      1.708363   4 C  d  2      
    41      1.653954   2 C  py               44      1.660588   2 C  py        
 
 Vector   60  Occ=0.000000D+00  E= 1.079049D+00
              MO Center=  6.8D-01,  3.0D-03, -8.6D-02, r^2= 4.1D+00
   Bfn.  Coefficient  Atom+Function         Bfn.  Coefficient  Atom+Function  
  ----- ------------  ---------------      ----- ------------  ---------------
    98      4.349403   4 C  s                45      3.942832   2 C  pz        
    66     -3.948434   3 C  s                97      3.847301   4 C  s         
    36     -3.748900   2 C  s               104      2.561786   4 C  pz        
    41      2.512889   2 C  py               42      2.422993   2 C  pz        
    72      2.270431   3 C  py               53     -2.212946   2 C  d  0      
 
 Vector   61  Occ=0.000000D+00  E= 1.106730D+00
              MO Center=  3.7D-01,  8.2D-02,  6.9D-02, r^2= 3.8D+00
   Bfn.  Coefficient  Atom+Function         Bfn.  Coefficient  Atom+Function  
  ----- ------------  ---------------      ----- ------------  ---------------
    36      7.535828   2 C  s                67     -5.404182   3 C  s         
    98     -2.839807   4 C  s                66      2.165310   3 C  s         
   126     -2.069653   5 H  s                45     -1.824827   2 C  pz        
   132      1.725427   6 H  s                72     -1.614163   3 C  py        
    53      1.470419   2 C  d  0             41     -1.460307   2 C  py        
 
 Vector   62  Occ=0.000000D+00  E= 1.149136D+00
              MO Center=  6.3D-01, -1.8D-02, -4.4D-02, r^2= 3.5D+00
   Bfn.  Coefficient  Atom+Function         Bfn.  Coefficient  Atom+Function  
  ----- ------------  ---------------      ----- ------------  ---------------
    67      4.929557   3 C  s                36     -3.614811   2 C  s         
    44     -2.353373   2 C  py               97     -1.934186   4 C  s         
   126      1.724400   5 H  s                54      1.602078   2 C  d  1      
    43      1.540681   2 C  px               42     -1.502563   2 C  pz        
    55      1.506919   2 C  d  2             75     -1.385767   3 C  py        
 
 Vector   63  Occ=0.000000D+00  E= 1.214968D+00
              MO Center=  5.6D-01,  2.0D-01, -1.5D-01, r^2= 3.8D+00
   Bfn.  Coefficient  Atom+Function         Bfn.  Coefficient  Atom+Function  
  ----- ------------  ---------------      ----- ------------  ---------------
    36      6.568159   2 C  s                66     -5.132877   3 C  s         
    97     -3.463766   4 C  s                35      3.341715   2 C  s         
    67     -3.128606   3 C  s                72      1.984195   3 C  py        
    51     -1.783540   2 C  d -2             52      1.713584   2 C  d -1      
   138      1.614438   7 H  s               104     -1.545509   4 C  pz        
 
 Vector   64  Occ=0.000000D+00  E= 1.350724D+00
              MO Center=  3.3D-01,  5.5D-01,  2.3D-01, r^2= 3.6D+00
   Bfn.  Coefficient  Atom+Function         Bfn.  Coefficient  Atom+Function  
  ----- ------------  ---------------      ----- ------------  ---------------
    66      4.707627   3 C  s                35      3.928165   2 C  s         
    67     -3.143880   3 C  s                36     -2.714127   2 C  s         
    65     -2.428522   3 C  s               132     -2.112044   6 H  s         
   133      1.464218   6 H  s                34     -1.421723   2 C  s         
    72      1.403255   3 C  py              139      1.068923   7 H  s         
 
 Vector   65  Occ=0.000000D+00  E= 1.414948D+00
              MO Center=  1.7D-01,  5.0D-01, -3.5D-02, r^2= 3.4D+00
   Bfn.  Coefficient  Atom+Function         Bfn.  Coefficient  Atom+Function  
  ----- ------------  ---------------      ----- ------------  ---------------
    36      4.491158   2 C  s                67     -3.996432   3 C  s         
    35     -3.941058   2 C  s                66      3.859502   3 C  s         
    73     -2.297576   3 C  pz              138     -2.200607   7 H  s         
   139      2.180161   7 H  s               126      1.781965   5 H  s         
    76      1.664319   3 C  pz               34      1.602223   2 C  s         
 
 Vector   66  Occ=0.000000D+00  E= 1.433102D+00
              MO Center=  1.1D+00, -4.6D-01, -1.1D+00, r^2= 3.5D+00
   Bfn.  Coefficient  Atom+Function         Bfn.  Coefficient  Atom+Function  
  ----- ------------  ---------------      ----- ------------  ---------------
    98     10.076302   4 C  s                97     -7.529465   4 C  s         
    96      3.042557   4 C  s                36     -2.437843   2 C  s         
   145     -2.398562   8 H  s               151     -2.295002   9 H  s         
   157     -2.090452  10 H  s               144      1.742108   8 H  s         
   150      1.640660   9 H  s               104      1.474529   4 C  pz        
 
 Vector   67  Occ=0.000000D+00  E= 1.443206D+00
              MO Center=  4.2D-01,  1.4D-02, -2.7D-01, r^2= 4.2D+00
   Bfn.  Coefficient  Atom+Function         Bfn.  Coefficient  Atom+Function  
  ----- ------------  ---------------      ----- ------------  ---------------
    66      4.126339   3 C  s                35     -2.929683   2 C  s         
    67     -2.821585   3 C  s                98      2.392985   4 C  s         
    36      2.062814   2 C  s               133      1.886950   6 H  s         
    76     -1.725677   3 C  pz               45      1.689648   2 C  pz        
    65     -1.471673   3 C  s               127     -1.420684   5 H  s         
 
 Vector   68  Occ=0.000000D+00  E= 1.447519D+00
              MO Center=  2.8D-01, -3.3D-03, -8.4D-02, r^2= 3.1D+00
   Bfn.  Coefficient  Atom+Function         Bfn.  Coefficient  Atom+Function  
  ----- ------------  ---------------      ----- ------------  ---------------
    98      5.595843   4 C  s                97     -3.160095   4 C  s         
    36     -2.775596   2 C  s                45      2.067075   2 C  pz        
     5      1.946650   1 O  s                35     -1.605183   2 C  s         
    96      1.327508   4 C  s               127     -1.264221   5 H  s         
    76     -1.060340   3 C  pz               42     -0.996976   2 C  pz        
 
 Vector   69  Occ=0.000000D+00  E= 1.475119D+00
              MO Center=  9.0D-01, -2.5D-01, -9.2D-01, r^2= 3.6D+00
   Bfn.  Coefficient  Atom+Function         Bfn.  Coefficient  Atom+Function  
  ----- ------------  ---------------      ----- ------------  ---------------
    66      2.471589   3 C  s                67     -1.494486   3 C  s         
    36      1.310696   2 C  s                 5     -1.211814   1 O  s         
   133      1.091946   6 H  s                65     -1.033477   3 C  s         
   132     -0.947815   6 H  s                71     -0.903232   3 C  px        
   103      0.864600   4 C  py               97      0.855568   4 C  s         
 
 Vector   70  Occ=0.000000D+00  E= 1.477514D+00
              MO Center=  9.8D-01, -3.9D-01, -1.0D+00, r^2= 3.3D+00
   Bfn.  Coefficient  Atom+Function         Bfn.  Coefficient  Atom+Function  
  ----- ------------  ---------------      ----- ------------  ---------------
    36      3.027050   2 C  s               156     -2.780127  10 H  s         
   157      2.115115  10 H  s               102     -2.025100   4 C  px        
   104     -1.801520   4 C  pz              126      1.777305   5 H  s         
   103      1.761813   4 C  py               66     -1.597688   3 C  s         
    35     -1.472653   2 C  s               127     -1.448327   5 H  s         
 
 Vector   71  Occ=0.000000D+00  E= 1.513994D+00
              MO Center=  3.4D-01,  1.3D-01, -3.3D-01, r^2= 4.0D+00
   Bfn.  Coefficient  Atom+Function         Bfn.  Coefficient  Atom+Function  
  ----- ------------  ---------------      ----- ------------  ---------------
    98      2.625552   4 C  s               144      1.846840   8 H  s         
   102     -1.528561   4 C  px              103     -1.429588   4 C  py        
   145     -1.399599   8 H  s                45      1.312205   2 C  pz        
    97     -1.194380   4 C  s                66      1.040435   3 C  s         
   150     -1.018933   9 H  s                36     -0.826040   2 C  s         
 
 Vector   72  Occ=0.000000D+00  E= 1.542563D+00
              MO Center=  3.4D-01,  4.7D-01, -2.0D-01, r^2= 4.6D+00
   Bfn.  Coefficient  Atom+Function         Bfn.  Coefficient  Atom+Function  
  ----- ------------  ---------------      ----- ------------  ---------------
    36      4.284858   2 C  s                35     -3.631964   2 C  s         
    98     -3.610293   4 C  s                97      3.157477   4 C  s         
    67     -2.398867   3 C  s                73      2.169335   3 C  pz        
   132     -1.756248   6 H  s               133      1.440407   6 H  s         
   102     -1.430916   4 C  px              138      1.390106   7 H  s         
 
 Vector   73  Occ=0.000000D+00  E= 1.578356D+00
              MO Center=  4.8D-01, -1.0D-02, -5.3D-02, r^2= 3.2D+00
   Bfn.  Coefficient  Atom+Function         Bfn.  Coefficient  Atom+Function  
  ----- ------------  ---------------      ----- ------------  ---------------
    35      3.431211   2 C  s                36     -2.633885   2 C  s         
    40     -2.108604   2 C  px               97     -1.984471   4 C  s         
   126      1.848149   5 H  s                67      1.715633   3 C  s         
    72      1.693216   3 C  py               42     -1.516448   2 C  pz        
    34     -1.427327   2 C  s               127     -1.328297   5 H  s         
 
 Vector   74  Occ=0.000000D+00  E= 1.596530D+00
              MO Center=  3.7D-01,  3.5D-01, -1.8D-01, r^2= 3.4D+00
   Bfn.  Coefficient  Atom+Function         Bfn.  Coefficient  Atom+Function  
  ----- ------------  ---------------      ----- ------------  ---------------
    36     -5.376014   2 C  s                66     -5.378058   3 C  s         
    35      5.103090   2 C  s                67      4.002308   3 C  s         
    41      3.787135   2 C  py               71     -2.546784   3 C  px        
    72      2.474843   3 C  py               40     -2.130307   2 C  px        
    98      1.810990   4 C  s                82      1.660481   3 C  d -2      
 
 Vector   75  Occ=0.000000D+00  E= 1.642523D+00
              MO Center=  4.4D-01,  2.1D-01, -2.8D-02, r^2= 3.7D+00
   Bfn.  Coefficient  Atom+Function         Bfn.  Coefficient  Atom+Function  
  ----- ------------  ---------------      ----- ------------  ---------------
    66      2.695306   3 C  s                35      2.516502   2 C  s         
    98      2.141843   4 C  s                97     -2.015466   4 C  s         
     5     -1.969106   1 O  s               104     -1.307150   4 C  pz        
    67     -1.268215   3 C  s               144      1.130011   8 H  s         
    41     -1.021162   2 C  py              103     -1.023410   4 C  py        
 
 Vector   76  Occ=0.000000D+00  E= 1.696046D+00
              MO Center=  6.0D-01,  4.8D-02, -4.3D-01, r^2= 3.6D+00
   Bfn.  Coefficient  Atom+Function         Bfn.  Coefficient  Atom+Function  
  ----- ------------  ---------------      ----- ------------  ---------------
    97     -5.243952   4 C  s                35      5.152063   2 C  s         
   104     -2.639777   4 C  pz               42     -2.597723   2 C  pz        
    66     -1.971130   3 C  s               102      1.916512   4 C  px        
    40      1.601705   2 C  px               34     -1.448245   2 C  s         
    96      1.428826   4 C  s                67      1.149700   3 C  s         
 
 Vector   77  Occ=0.000000D+00  E= 1.701215D+00
              MO Center= -8.5D-02,  3.7D-01, -6.9D-02, r^2= 3.7D+00
   Bfn.  Coefficient  Atom+Function         Bfn.  Coefficient  Atom+Function  
  ----- ------------  ---------------      ----- ------------  ---------------
     5      3.940937   1 O  s                72      3.319596   3 C  py        
    97      2.572047   4 C  s                36     -2.496415   2 C  s         
   138     -2.083447   7 H  s                42      1.928014   2 C  pz        
    35     -1.705095   2 C  s               104      1.621966   4 C  pz        
    66     -1.601068   3 C  s                12      1.512161   1 O  px        
 
 Vector   78  Occ=0.000000D+00  E= 1.792727D+00
              MO Center=  3.6D-01,  2.7D-01,  4.5D-02, r^2= 3.6D+00
   Bfn.  Coefficient  Atom+Function         Bfn.  Coefficient  Atom+Function  
  ----- ------------  ---------------      ----- ------------  ---------------
    35      3.691175   2 C  s                97     -2.878270   4 C  s         
    36      1.780867   2 C  s                45     -1.361913   2 C  pz        
    72      1.231518   3 C  py              104     -1.230529   4 C  pz        
     5     -1.137097   1 O  s                67     -1.067482   3 C  s         
    42     -1.028109   2 C  pz              102      0.965417   4 C  px        
 
 Vector   79  Occ=0.000000D+00  E= 1.816168D+00
              MO Center= -6.0D-01,  1.8D-01,  1.8D-01, r^2= 2.6D+00
   Bfn.  Coefficient  Atom+Function         Bfn.  Coefficient  Atom+Function  
  ----- ------------  ---------------      ----- ------------  ---------------
    35      3.811807   2 C  s                 5     -3.201893   1 O  s         
    40     -2.400427   2 C  px               41      2.115755   2 C  py        
    72      1.907976   3 C  py               66     -1.739684   3 C  s         
    71     -1.684616   3 C  px               12     -1.339776   1 O  px        
    67      1.086085   3 C  s               132     -1.030300   6 H  s         
 
 Vector   80  Occ=0.000000D+00  E= 1.841130D+00
              MO Center=  1.4D-01,  2.3D-01, -1.4D-01, r^2= 3.8D+00
   Bfn.  Coefficient  Atom+Function         Bfn.  Coefficient  Atom+Function  
  ----- ------------  ---------------      ----- ------------  ---------------
    35      2.176123   2 C  s               156     -1.001968  10 H  s         
    36     -0.980908   2 C  s               104     -0.976636   4 C  pz        
    97     -0.909635   4 C  s                71     -0.767840   3 C  px        
   157      0.697669  10 H  s               126     -0.684262   5 H  s         
   150      0.676556   9 H  s                41     -0.592158   2 C  py        
 
 Vector   81  Occ=0.000000D+00  E= 1.868508D+00
              MO Center=  4.8D-01,  2.1D-01, -4.0D-01, r^2= 4.0D+00
   Bfn.  Coefficient  Atom+Function         Bfn.  Coefficient  Atom+Function  
  ----- ------------  ---------------      ----- ------------  ---------------
    35      6.553980   2 C  s                66     -4.406022   3 C  s         
    72      3.494689   3 C  py               97     -3.273972   4 C  s         
    36      2.214751   2 C  s               104     -1.842861   4 C  pz        
    34     -1.624129   2 C  s                67     -1.594613   3 C  s         
    41      1.564663   2 C  py               45     -1.359799   2 C  pz        
 
 Vector   82  Occ=0.000000D+00  E= 1.923291D+00
              MO Center=  3.2D-01, -1.6D-01, -2.9D-01, r^2= 3.2D+00
   Bfn.  Coefficient  Atom+Function         Bfn.  Coefficient  Atom+Function  
  ----- ------------  ---------------      ----- ------------  ---------------
    36      1.624805   2 C  s                98     -1.583792   4 C  s         
    45     -1.310742   2 C  pz               97     -1.254598   4 C  s         
   103     -1.212249   4 C  py               35      1.074789   2 C  s         
    42     -0.830218   2 C  pz               66     -0.816347   3 C  s         
   150     -0.723652   9 H  s                41      0.720015   2 C  py        
 
 Vector   83  Occ=0.000000D+00  E= 1.991778D+00
              MO Center=  1.0D+00, -3.6D-01, -8.2D-01, r^2= 3.3D+00
   Bfn.  Coefficient  Atom+Function         Bfn.  Coefficient  Atom+Function  
  ----- ------------  ---------------      ----- ------------  ---------------
    98      5.104288   4 C  s                35      3.963655   2 C  s         
    36     -3.773070   2 C  s                66     -2.585887   3 C  s         
    72      1.744899   3 C  py               41      1.617808   2 C  py        
    40     -1.605751   2 C  px              107      1.525910   4 C  pz        
    34     -1.287621   2 C  s                45      1.243239   2 C  pz        
 
 Vector   84  Occ=0.000000D+00  E= 1.995726D+00
              MO Center=  4.2D-01,  3.6D-02, -2.7D-01, r^2= 3.3D+00
   Bfn.  Coefficient  Atom+Function         Bfn.  Coefficient  Atom+Function  
  ----- ------------  ---------------      ----- ------------  ---------------
    36      2.925264   2 C  s                67     -2.047741   3 C  s         
    40     -1.661314   2 C  px               45     -1.642395   2 C  pz        
    98     -1.359496   4 C  s                 5     -1.229016   1 O  s         
    43     -1.131913   2 C  px               66     -1.122003   3 C  s         
   126      1.023392   5 H  s                71     -1.011933   3 C  px        
 
 Vector   85  Occ=0.000000D+00  E= 2.090617D+00
              MO Center= -6.6D-02,  1.4D-01,  4.3D-03, r^2= 3.5D+00
   Bfn.  Coefficient  Atom+Function         Bfn.  Coefficient  Atom+Function  
  ----- ------------  ---------------      ----- ------------  ---------------
    36      3.250471   2 C  s                98     -2.322032   4 C  s         
    67     -1.408593   3 C  s                35     -1.092420   2 C  s         
   138     -0.751343   7 H  s                13      0.682570   1 O  py        
    71      0.668835   3 C  px              156      0.667318  10 H  s         
   144      0.595544   8 H  s                40     -0.570720   2 C  px        
 
 Vector   86  Occ=0.000000D+00  E= 2.097872D+00
              MO Center= -3.4D-01,  6.0D-02,  3.2D-02, r^2= 3.0D+00
   Bfn.  Coefficient  Atom+Function         Bfn.  Coefficient  Atom+Function  
  ----- ------------  ---------------      ----- ------------  ---------------
    67     -5.459778   3 C  s                36      5.224269   2 C  s         
    66      3.237164   3 C  s                35     -3.109065   2 C  s         
    41     -3.044010   2 C  py               71      2.659528   3 C  px        
    13      1.773093   1 O  py               82     -1.422339   3 C  d -2      
    75      1.330220   3 C  py               43     -1.323190   2 C  px        
 
 Vector   87  Occ=0.000000D+00  E= 2.169177D+00
              MO Center=  4.9D-01, -3.4D-02, -4.8D-01, r^2= 3.2D+00
   Bfn.  Coefficient  Atom+Function         Bfn.  Coefficient  Atom+Function  
  ----- ------------  ---------------      ----- ------------  ---------------
    98      2.124365   4 C  s                67     -1.850578   3 C  s         
    35     -1.299150   2 C  s                73      1.012847   3 C  pz        
    40      0.887689   2 C  px              156     -0.855143  10 H  s         
    36      0.835910   2 C  s                44      0.817162   2 C  py        
    43     -0.801158   2 C  px               42     -0.775612   2 C  pz        
 
 Vector   88  Occ=0.000000D+00  E= 2.199978D+00
              MO Center=  4.6D-01,  2.1D-01, -3.1D-01, r^2= 3.7D+00
   Bfn.  Coefficient  Atom+Function         Bfn.  Coefficient  Atom+Function  
  ----- ------------  ---------------      ----- ------------  ---------------
    98      2.153355   4 C  s                36     -1.092873   2 C  s         
    45      0.988928   2 C  pz               76     -0.900418   3 C  pz        
   132      0.793673   6 H  s                42     -0.764800   2 C  pz        
   103     -0.694500   4 C  py               97     -0.688036   4 C  s         
   117     -0.624348   4 C  d  2            138     -0.588949   7 H  s         
 
 Vector   89  Occ=0.000000D+00  E= 2.228586D+00
              MO Center=  6.3D-01,  3.1D-02, -7.7D-02, r^2= 3.6D+00
   Bfn.  Coefficient  Atom+Function         Bfn.  Coefficient  Atom+Function  
  ----- ------------  ---------------      ----- ------------  ---------------
    36      3.320089   2 C  s                67     -1.754430   3 C  s         
    98     -1.467440   4 C  s                 5     -1.114377   1 O  s         
    42     -1.055872   2 C  pz               72     -0.919691   3 C  py        
    35     -0.837323   2 C  s                66      0.811099   3 C  s         
    45     -0.795090   2 C  pz               43     -0.755708   2 C  px        
 
 Vector   90  Occ=0.000000D+00  E= 2.243283D+00
              MO Center=  7.3D-01, -2.3D-01, -7.5D-01, r^2= 3.6D+00
   Bfn.  Coefficient  Atom+Function         Bfn.  Coefficient  Atom+Function  
  ----- ------------  ---------------      ----- ------------  ---------------
   150      1.315975   9 H  s                66     -1.076325   3 C  s         
    72      0.858007   3 C  py               36      0.843013   2 C  s         
    98     -0.843031   4 C  s               144     -0.827976   8 H  s         
   117      0.809627   4 C  d  2             83      0.548800   3 C  d -1      
   138      0.521310   7 H  s               147      0.507011   8 H  py        
 
 Vector   91  Occ=0.000000D+00  E= 2.268866D+00
              MO Center=  9.9D-01, -3.5D-01, -1.2D+00, r^2= 2.8D+00
   Bfn.  Coefficient  Atom+Function         Bfn.  Coefficient  Atom+Function  
  ----- ------------  ---------------      ----- ------------  ---------------
    66      2.608257   3 C  s                36      1.810394   2 C  s         
    41     -1.658929   2 C  py               67     -1.443342   3 C  s         
    35     -1.307981   2 C  s                72     -1.165184   3 C  py        
   156      1.008395  10 H  s                71      0.984108   3 C  px        
   126     -0.927779   5 H  s                98     -0.890470   4 C  s         
 
 Vector   92  Occ=0.000000D+00  E= 2.283321D+00
              MO Center=  4.6D-01,  1.6D-01, -1.9D-01, r^2= 3.5D+00
   Bfn.  Coefficient  Atom+Function         Bfn.  Coefficient  Atom+Function  
  ----- ------------  ---------------      ----- ------------  ---------------
    98      3.515392   4 C  s                36     -2.497085   2 C  s         
[...]
    21     -0.878013   1 O  d -1             42     -0.812337   2 C  pz        
    97     -0.724752   4 C  s                45     -0.684544   2 C  pz        
     5     -0.583705   1 O  s                72     -0.544320   3 C  py        
    67     -0.513710   3 C  s               102      0.507029   4 C  px        
 
 Vector  154  Occ=0.000000D+00  E= 6.677069D+00
              MO Center= -8.7D-01, -1.8D-01,  2.0D-01, r^2= 5.7D-01
   Bfn.  Coefficient  Atom+Function         Bfn.  Coefficient  Atom+Function  
  ----- ------------  ---------------      ----- ------------  ---------------
    18      1.058646   1 O  d  1             23     -1.036007   1 O  d  1      
    97     -0.841930   4 C  s                42     -0.780905   2 C  pz        
    35      0.760047   2 C  s               102      0.644402   4 C  px        
    54     -0.541051   2 C  d  1             14      0.404516   1 O  pz        
    16     -0.396288   1 O  d -1             11      0.391971   1 O  pz        
 
 Vector  155  Occ=0.000000D+00  E= 6.842718D+00
              MO Center= -8.8D-01, -1.9D-01,  2.0D-01, r^2= 5.9D-01
   Bfn.  Coefficient  Atom+Function         Bfn.  Coefficient  Atom+Function  
  ----- ------------  ---------------      ----- ------------  ---------------
     5      2.090483   1 O  s                40      1.775430   2 C  px        
     9      1.361316   1 O  px               97     -1.327799   4 C  s         
     4      1.211975   1 O  s                20      1.048369   1 O  d -2      
    42     -1.009205   2 C  pz               12      0.841118   1 O  px        
    15     -0.831490   1 O  d -2            104     -0.833528   4 C  pz        
 
 Vector  156  Occ=0.000000D+00  E= 7.055062D+00
              MO Center= -8.9D-01, -1.8D-01,  2.0D-01, r^2= 6.3D-01
   Bfn.  Coefficient  Atom+Function         Bfn.  Coefficient  Atom+Function  
  ----- ------------  ---------------      ----- ------------  ---------------
    66     -3.176633   3 C  s                35      3.021563   2 C  s         
    40     -2.730223   2 C  px               72      2.680932   3 C  py        
    24     -1.576884   1 O  d  2             36      1.468780   2 C  s         
    67     -1.301828   3 C  s                10      1.283741   1 O  py        
    19      1.014663   1 O  d  2             13      0.869679   1 O  py        
 
 Vector  157  Occ=0.000000D+00  E= 2.194618D+01
              MO Center=  8.2D-02,  7.8D-01,  4.7D-02, r^2= 1.2D+00
   Bfn.  Coefficient  Atom+Function         Bfn.  Coefficient  Atom+Function  
  ----- ------------  ---------------      ----- ------------  ---------------
    64      1.581540   3 C  s                65     -1.343495   3 C  s         
    67     -1.288233   3 C  s                63     -1.246255   3 C  s         
    98      1.070371   4 C  s                95     -0.768261   4 C  s         
    96      0.624632   4 C  s                94      0.607552   4 C  s         
    40     -0.503154   2 C  px               35      0.433813   2 C  s         
 
 Vector  158  Occ=0.000000D+00  E= 2.198614D+01
              MO Center=  8.8D-01, -2.4D-01, -7.1D-01, r^2= 1.2D+00
   Bfn.  Coefficient  Atom+Function         Bfn.  Coefficient  Atom+Function  
  ----- ------------  ---------------      ----- ------------  ---------------
    95      1.424501   4 C  s                96     -1.317294   4 C  s         
    98     -1.141856   4 C  s                94     -1.120418   4 C  s         
    34     -0.960497   2 C  s                36     -0.877218   2 C  s         
    33      0.863446   2 C  s                32     -0.674276   2 C  s         
    65     -0.661837   3 C  s                64      0.615406   3 C  s         
 
 Vector  159  Occ=0.000000D+00  E= 2.211366D+01
              MO Center=  6.1D-01, -1.2D-01, -7.7D-02, r^2= 6.8D-01
   Bfn.  Coefficient  Atom+Function         Bfn.  Coefficient  Atom+Function  
  ----- ------------  ---------------      ----- ------------  ---------------
    36      2.217309   2 C  s                33     -1.551699   2 C  s         
    34      1.534605   2 C  s                35     -1.309807   2 C  s         
    98     -1.314209   4 C  s                32      1.214465   2 C  s         
    67     -1.151989   3 C  s                95      0.714591   4 C  s         
    97      0.659547   4 C  s                96     -0.635807   4 C  s         
 
 Vector  160  Occ=0.000000D+00  E= 4.341788D+01
              MO Center= -8.8D-01, -1.8D-01,  2.0D-01, r^2= 1.2D-01
   Bfn.  Coefficient  Atom+Function         Bfn.  Coefficient  Atom+Function  
  ----- ------------  ---------------      ----- ------------  ---------------
     4      2.518813   1 O  s                 3     -1.877553   1 O  s         
     2      1.731778   1 O  s                 1     -1.395881   1 O  s         
     5     -0.878990   1 O  s                36      0.843693   2 C  s         
     9      0.567726   1 O  px               66     -0.529328   3 C  s         
    40      0.476187   2 C  px               72      0.462581   3 C  py        
 

 center of mass
 --------------
 x =   0.30619369 y =   0.09486553 z =  -0.27792408

 moments of inertia (a.u.)
 ------------------
         199.316087908952          45.669213442672          83.829267543095
          45.669213442672         247.646791187807         -52.866756575055
          83.829267543095         -52.866756575055         238.615958893465
 
     Multipole analysis of the density
     ---------------------------------
 
     L   x y z        total         alpha         beta         nuclear
     -   - - -        -----         -----         ----         -------
     0   0 0 0     -0.000000    -16.000000    -16.000000     32.000000
 
     1   1 0 0      0.689570     -6.220549     -6.220549     13.130668
     1   0 1 0      0.325070     -1.628894     -1.628894      3.582858
     1   0 0 1     -0.058240      5.325549      5.325549    -10.709338
 
     2   2 0 0    -19.985132    -54.343213    -54.343213     88.701295
     2   1 1 0     -1.096587     13.887832     13.887832    -28.872252
     2   1 0 1      0.122245     26.475365     26.475365    -52.828485
     2   0 2 0    -17.866652    -40.370754    -40.370754     62.874856
     2   0 1 1      0.306245    -15.449651    -15.449651     31.205547
     2   0 0 2    -18.206991    -45.629314    -45.629314     73.051637
 
 *** CALLING NEW AORESP DRIVER FOR CLOSED AND OPEN SHELLS ***
 Entering AOResponse driver routine


--------------------------------------------------------------------------------

          ****************
          *** RESPONSE ***
          ****************

 Response module for NWChem and dynamic CPKS solver
 developed by J. Autschbach and coworkers, SUNY Buffalo
 The methodology used in this program is described in 
 ChemPhysChem 12 (2011), 3224-3235 (main reference)
 J. Chem. Phys. 123 (2005), 114103
 J. Chem. Phys. 122 (2005), 224115
 J. Chem. Phys. 122 (2005), 074105
 Comp. Lett. 3 (2007), 131-150 (contact JA for a copy)
 Please cite this work in publications based on results
 obtained with this code. Thank you!

 For extension of response module to open shell
 calculations please acknowledge:
 F. Aquino, Northwestern University, Schatz Rsrch Group
 The update to the methodology is described in
 J. Phys. Chem. A 118 (2014) 517-525



          -----------------------------------------------
          Solving response equations for perturbing field
          -----------------------------------------------

 number of frequencies:     1
 frequency in a.u.:  0.9319600E-01
 Perturbing field: electric
 Using GIAO formalism for OptRot
 Adding quadrupole terms to OptRot
 to create an origin in dependent tensor.
 Using El. Dipole Length Gauge
 
 Applying DAMPING constant of  0.003700 a.u.
 
 Setting up CPKS
 with frequency omega =      0.09319600 a.u.
 and a damping of            0.00370000 a.u.

 
                            NWChem Dynamic CPHF Module
                            --------------------------
 
 
    scftype = RHF 
    nclosed =   16
      nopen =    0
  variables =     9216
  num. vecs =        3
  tolerance =   1.0D-07
  max. iter =  100

 SCF residual:   1.716480844762811E-006


Iterative solution of linear equations
  No. of variables     4608
  No. of equations        3
  Maximum subspace       99
       Convergence  1.0D-07
        Start time     95.2


   iter   nsub   residual    time 
   ----  ------  --------  --------- 
 dft_CPHF2_read: failed to open
 ./methyloxirane_blyp-def2-tzvp_488.9_36.inp.aoresp_fiao_f1
     1      3    3.72D+00     144.8
     2      6    2.73D+00     194.1
     3      9    2.45D-01     243.5
     4     12    5.34D-02     292.8
     5     15    1.07D-02     342.0
     6     18    1.25D-03     391.3
     7     21    1.38D-04     440.8
     8     24    1.35D-05     490.0
     9     27    1.22D-06     542.2
    10     30    4.81D-07     591.7
    11     33    1.40D-08     641.0

 Calculating some arrays needed for GIAO optical rotation

    0 giaofock schwarz done =      95.30%
    0 giaofock schwarz done =      93.13%
 aor_r1_tensor_giao: roadata output requested
 dip-quad polarizability Re:

              1        2        3        4        5        6      
    1   77.2460  -6.2274 -27.5294  -4.5768   1.0870   9.1032
    2  -11.8546  25.4040   3.4411  23.5385 -21.6684   4.1377
    3   -6.4823   1.0239  39.1494  -0.1529  14.2837 -40.8291
 traceless dip-quad polarizability:

              1        2        3      
    1   74.9828  -9.3410 -41.2941
    2   -9.3410 -47.7514   1.6304
    3  -41.2941   1.6304 -27.2314

              1        2        3      
    1  -25.6927  38.1059   5.1616
    2   38.1059  27.3970 -32.5026
    3    5.1616 -32.5026  -1.7043

              1        2        3      
    1   14.0087   1.5359  58.7241
    2    1.5359  23.5028  21.4255
    3   58.7241  21.4255 -37.5115

 roa begin

 alpha real:
 XX       0.4096401116132E+02
 XY      -0.5223564173610E+01
 XZ      -0.3004994281212E+01
 YX      -0.5223564180882E+01
 YY       0.4395665835081E+02
 YZ       0.3238410335518E+01
 ZX      -0.3004994289517E+01
 ZY       0.3238410333889E+01
 ZZ       0.4145770354727E+02

 alpha im:
 XX       0.1104937607161E+00
 XY      -0.3014018665690E-01
 XZ      -0.1068908716282E-01
 YX      -0.3014018234865E-01
 YY       0.1290938959825E+00
 YZ       0.1833543714850E-01
 ZX      -0.1068908388488E-01
 ZY       0.1833543898867E-01
 ZZ       0.1228156268392E+00

 beta real:
 XX      -0.1315881834639E+00
 XY       0.9475277865688E+00
 XZ       0.1979572668020E+00
 YX      -0.8843026632205E+00
 YY       0.1426894079165E+00
 YZ      -0.1549369448360E+01
 ZX      -0.4850646270102E+00
 ZY       0.1863007272032E+01
 ZZ      -0.1609637025251E-01

 G-prime = -omega beta(real):
 XX      -0.1315881834639E+00
 XY       0.9475277865688E+00
 XZ       0.1979572668020E+00
 YX      -0.8843026632205E+00
 YY       0.1426894079165E+00
 YZ      -0.1549369448360E+01
 ZX      -0.4850646270102E+00
 ZY       0.1863007272032E+01
 ZZ      -0.1609637025251E-01

 beta im:
 XX      -0.5646943473099E-02
 XY       0.1380462778245E-01
 XZ       0.2720153530419E-02
 YX      -0.7487953082376E-02
 YY       0.4678048031271E-02
 YZ      -0.2366702067467E-01
 ZX      -0.1343315398348E-01
 ZY       0.4000168815676E-01
 ZZ       0.2605777386283E-03

 G-prime = -omega beta(imag):
 XX      -0.5646943473099E-02
 XY       0.1380462778245E-01
 XZ       0.2720153530419E-02
 YX      -0.7487953082376E-02
 YY       0.4678048031271E-02
 YZ      -0.2366702067467E-01
 ZX      -0.1343315398348E-01
 ZY       0.4000168815676E-01
 ZZ       0.2605777386283E-03

 dipole-quadrupole real (Cartesian):
 XXX      0.7724596772271E+02
 XXY     -0.6227358733702E+01
 XXZ     -0.2752940572514E+02
 XYY     -0.4576807490368E+01
 XYZ      0.1086957065048E+01
 XZZ      0.9103200744782E+01
 YXX     -0.1185459254795E+02
 YXY      0.2540396350952E+02
 YXZ      0.3441071139801E+01
 YYY      0.2353851732142E+02
 YYZ     -0.2166841368459E+02
 YZZ      0.4137663840678E+01
 ZXX     -0.6482325793895E+01
 ZXY      0.1023916055591E+01
 ZXZ      0.3914940901348E+02
 ZYY     -0.1529057387364E+00
 ZYZ      0.1428366104706E+02
 ZZZ     -0.4082908314331E+02

 dipole-quadrupole imag (Cartesian):
 XXX      0.2686876059936E+00
 XXY     -0.3461278113759E-01
 XXZ     -0.7554694982261E-01
 XYY     -0.2925664966703E-01
 XYZ      0.1618776614681E-02
 XZZ      0.5992624079691E-01
 YXX     -0.5727304012190E-01
 YXY      0.6121904999325E-01
 YXZ      0.1971229789691E-01
 YYY      0.9375776594862E-01
 YYZ     -0.6130488832544E-01
 YZZ      0.1033318752265E-01
 ZXX     -0.3224926193910E-01
 ZXY     -0.8880769587241E-03
 ZXZ      0.1448741834076E+00
 ZYY      0.5110081735783E-02
 ZYZ      0.6825999782560E-01
 ZZZ     -0.9468021474418E-01

 dipole-quadrupole (traceless):
 XXX      0.7498277109550E+02
 XXY     -0.9341038100553E+01
 XXZ     -0.4129410858771E+02
 XYY     -0.4775139172411E+02
 XYZ      0.1630435597572E+01
 XZZ     -0.2723137937139E+02
 YXX     -0.2569268312900E+02
 YXY      0.3810594526428E+02
 YXZ      0.5161606709702E+01
 YYY      0.2739698167506E+02
 YYZ     -0.3250262052688E+02
 YZZ     -0.1704298546058E+01
 ZXX      0.1400866864713E+02
 ZXY      0.1535874083387E+01
 ZXZ      0.5872411352022E+02
 ZYY      0.2350279872987E+02
 ZYZ      0.2142549157058E+02
 ZZZ     -0.3751146737699E+02

 roa end


 Electric Dipole Response Matrix (nonzero elements):

              1        2        3      
    1   40.9640  -5.2236  -3.0050
    2   -5.2236  43.9567   3.2384
    3   -3.0050   3.2384  41.4577
 
 Imaginary part:

              1        2        3      
    1    0.1105  -0.0301  -0.0107
    2   -0.0301   0.1291   0.0183
    3   -0.0107   0.0183   0.1228

 ------------------------------------------
 average:        42.12612 + I       0.12080


 DFT Linear Response polarizability / au 
 Frequency  =       0.0931960 / au
 Wavelength =     488.8981609 / nm
              X              Y              Z
 -----------------------------------------------
 X      40.9640112     -5.2235642     -3.0049943
 Y      -5.2235642     43.9566584      3.2384103
 Z      -3.0049943      3.2384103     41.4577035
 -----------------------------------------------
 Eigenvalues =      36.9526426     50.1261178     39.2996126
 Isotropic   =      42.1261244
 Anisotropic =       9.9375036
 -----------------------------------------------
 *************************

 DFT Linear Response IMAG polarizability / au 
 Frequency  =       0.0931960 / au
 Wavelength =     488.8981609 / nm
              X              Y              Z
 -----------------------------------------------
 X       0.1104938     -0.0301402     -0.0106891
 Y      -0.0301402      0.1290939      0.0183354
 Z      -0.0106891      0.0183354      0.1228156
 -----------------------------------------------
 Eigenvalues =       0.0880628      0.1625585      0.1117820
 Isotropic   =       0.1208011
 Anisotropic =       0.0538221
 -----------------------------------------------
 *************************

 Magnetic Dipole Response Matrix (nonzero elements):
 Optical rotation tensor Beta
 (Buckingham-Dunn version including dipole-quadrupole terms)

              1        2        3      
    1    2.6205  -0.4563   0.4107
    2   -0.4563  -1.5626  -1.6663
    3    0.4107  -1.6663  -1.0043
 
 Imaginary part:

              1        2        3      
    1    0.0606  -0.1481  -0.0292
    2    0.0803  -0.0502   0.2539
    3    0.1441  -0.4292  -0.0028

 ------------------------------------------
 average:         0.01787 + I       0.00253

 Principal components and PAS (Real part)
                 -2.97426
                  2.77772
                  0.25013
 ------------------------
 average:         0.01787

              1        2        3      
    1    0.0151   0.9686  -0.2483
    2    0.7650  -0.1712  -0.6209
    3    0.6439   0.1806   0.7435

 Chiral response tensor (Real part):

              1        2        3      
    1   -1.2835   0.2282  -0.2053
    2    0.2282   0.8081   0.8332
    3   -0.2053   0.8332   0.5290
 
 Principal components and PAS (Real part)
                  1.51393
                 -1.36206
                 -0.09827
 ------------------------
 average:         0.01787

              1        2        3      
    1    0.0151   0.9686  -0.2483
    2    0.7650  -0.1712  -0.6209
    3    0.6439   0.1806   0.7435
 Exiting AOResponse driver routine

 Task  times  cpu:      621.5s     wall:      635.0s
 
 
                                NWChem Input Module
                                -------------------
 
 
 Summary of allocated global arrays
-----------------------------------
  No active global arrays



                         GA Statistics for process    0
                         ------------------------------

       create   destroy   get      put      acc     scatter   gather  read&inc
calls: 3294     3294     8.46e+06 3.14e+06 7.17e+05 2694        0     1068     
number of processes/call 1.01e+00 1.03e+00 1.42e+00 0.00e+00 0.00e+00
bytes total:             1.67e+09 1.26e+08 1.71e+09 1.84e+02 0.00e+00 8.54e+03
bytes remote:            6.72e+08 3.29e+07 9.59e+08 0.00e+00 0.00e+00 0.00e+00
Max memory consumed for GA by this process: 11242192 bytes
 
MA_summarize_allocated_blocks: starting scan ...
MA_summarize_allocated_blocks: scan completed: 0 heap blocks, 0 stack blocks
MA usage statistics:

	allocation statistics:
					      heap	     stack
					      ----	     -----
	current number of blocks	         0	         0
	maximum number of blocks	        24	        52
	current total bytes		         0	         0
	maximum total bytes		   7519856	  48723944
	maximum total K-bytes		      7520	     48724
	maximum total M-bytes		         8	        49
 
 
                                     CITATION
                                     --------
                Please cite the following reference when publishing
                           results obtained with NWChem:
 
                 M. Valiev, E.J. Bylaska, N. Govind, K. Kowalski,
              T.P. Straatsma, H.J.J. van Dam, D. Wang, J. Nieplocha,
                        E. Apra, T.L. Windus, W.A. de Jong
                 "NWChem: a comprehensive and scalable open-source
                  solution for large scale molecular simulations"
                      Comput. Phys. Commun. 181, 1477 (2010)
                           doi:10.1016/j.cpc.2010.04.018
 
                                      AUTHORS
                                      -------
          E. Apra, E. J. Bylaska, W. A. de Jong, N. Govind, K. Kowalski,
       T. P. Straatsma, M. Valiev, H. J. J. van Dam, D. Wang, T. L. Windus,
        J. Hammond, J. Autschbach, K. Bhaskaran-Nair, J. Brabec, K. Lopata,
    S. A. Fischer, S. Krishnamoorthy, M. Jacquelin, W. Ma, M. Klemm, O. Villa,
      Y. Chen, V. Anisimov, F. Aquino, S. Hirata, M. T. Hackler, V. Konjkov,
            D. Mejia-Rodriguez, T. Risthaus, M. Malagoli, A. Marenich,
   A. Otero-de-la-Roza, J. Mullin, P. Nichols, R. Peverati, J. Pittner, Y. Zhao,
        P.-D. Fan, A. Fonari, M. J. Williamson, R. J. Harrison, J. R. Rehr,
      M. Dupuis, D. Silverstein, D. M. A. Smith, J. Nieplocha, V. Tipparaju,
    M. Krishnan, B. E. Van Kuiken, A. Vazquez-Mayagoitia, L. Jensen, M. Swart,
      Q. Wu, T. Van Voorhis, A. A. Auer, M. Nooijen, L. D. Crosby, E. Brown,
      G. Cisneros, G. I. Fann, H. Fruchtl, J. Garza, K. Hirao, R. A. Kendall,
      J. A. Nichols, K. Tsemekhman, K. Wolinski, J. Anchell, D. E. Bernholdt,
      P. Borowski, T. Clark, D. Clerc, H. Dachsel, M. J. O. Deegan, K. Dyall,
    D. Elwood, E. Glendening, M. Gutowski, A. C. Hess, J. Jaffe, B. G. Johnson,
     J. Ju, R. Kobayashi, R. Kutteh, Z. Lin, R. Littlefield, X. Long, B. Meng,
      T. Nakajima, S. Niu, L. Pollack, M. Rosing, K. Glaesemann, G. Sandrone,
      M. Stave, H. Taylor, G. Thomas, J. H. van Lenthe, A. T. Wong, Z. Zhang.

 Total times  cpu:      693.9s     wall:      710.9s
