 argument  1 = methyloxirane_blyp-def2-tzvp_488.9_01.inp
 


============================== echo of input deck ==============================
echo
start methyloxirane_blyp-def2-tzvp_488.9_01.inp
title "methyloxirane roa calculations at 488.9 nm, input generated in va  with delta_type=2"
charge 0



geometry units angstrom nocenter noautoz noautosym nucleus point;symmetry c1
 O -0.880095 -0.179085  0.204500
 C  0.573372 -0.159121  0.122679
 C -0.183953  1.088110  0.340723
 C  1.185611 -0.520300 -1.211291
 H  1.056597 -0.606701  0.998155
 H -0.226009  1.537092  1.336504
 H -0.322076  1.783164 -0.492026
 H  2.236103 -0.196750 -1.252283
 H  1.161857 -1.607783 -1.367216
 H  0.639181 -0.041882 -2.033729
end

basis spherical
* library def2-TZVP
end

 set prop:newaoresp 1
 set aor:roadata T
 set cphf:maxsub 100
 set cphf:acc 1.0d-10
 set cphf:maxiter 100

property
    response 1   0.093196
    bdtensor
    convergence 1e-7
    damping 0.0037
    giao
end

dft
 direct
 mult 1
 xc becke88 lyp
 iterations 250
 tolerances tight
 grid xfine
 convergence nolevelshifting
 convergence energy 1e-8
 convergence gradient 1e-7


end

task dft gradient
task dft property
================================================================================


                                         
                                         
 
 
              Northwest Computational Chemistry Package (NWChem) 6.8
              ------------------------------------------------------
 
 
                    Environmental Molecular Sciences Laboratory
                       Pacific Northwest National Laboratory
                                Richland, WA 99352
 
                              Copyright (c) 1994-2017
                       Pacific Northwest National Laboratory
                            Battelle Memorial Institute
 
             NWChem is an open-source computational chemistry package
                        distributed under the terms of the
                      Educational Community License (ECL) 2.0
             A copy of the license is included with this distribution
                              in the LICENSE.TXT file
 
                                  ACKNOWLEDGMENT
                                  --------------

            This software and its documentation were developed at the
            EMSL at Pacific Northwest National Laboratory, a multiprogram
            national laboratory, operated for the U.S. Department of Energy
            by Battelle under Contract Number DE-AC05-76RL01830. Support
            for this work was provided by the Department of Energy Office
            of Biological and Environmental Research, Office of Basic
            Energy Sciences, and the Office of Advanced Scientific Computing.


           Job information
           ---------------

    hostname        = cpn-f11-17-02.cbls.ccr.buffalo.edu
    program         = /util/academic/nwchem/nwchem-6.8/bin/LINUX64/nwchem
    date            = Fri Mar  1 09:54:10 2019

    compiled        = Tue_Nov_06_14:59:08_2018
    source          = /util/academic/nwchem/nwchem-6.8
    nwchem branch   = 6.8
    nwchem revision = v6.8-47-gdf6c956
    ga revision     = ga-5.6.3
    use scalapack   = F
    input           = methyloxirane_blyp-def2-tzvp_488.9_01.inp
    prefix          = methyloxirane_blyp-def2-tzvp_488.9_01.inp.
    data base       = ./methyloxirane_blyp-def2-tzvp_488.9_01.inp.db
    status          = startup
    nproc           =        7
    time left       =     -1s



           Memory information
           ------------------

    heap     =   13107198 doubles =    100.0 Mbytes
    stack    =   13107195 doubles =    100.0 Mbytes
    global   =   26214400 doubles =    200.0 Mbytes (distinct from heap & stack)
    total    =   52428793 doubles =    400.0 Mbytes
    verify   = yes
    hardfail = no 


           Directory information
           ---------------------
 
  0 permanent = .
  0 scratch   = .
 
 
 
 
                                NWChem Input Module
                                -------------------
 
 
                    methyloxirane roa calculations at 488.9 nm, input generated in va  with delta_type=2
                    ------------------------------------------

 Scaling coordinates for geometry "geometry" by  1.889725989
 (inverse scale =  0.529177249)

 
 
                             Geometry "geometry" -> ""
                             -------------------------
 
 Output coordinates in angstroms (scale by  1.889725989 to convert to a.u.)
 
  No.       Tag          Charge          X              Y              Z
 ---- ---------------- ---------- -------------- -------------- --------------
    1 O                    8.0000    -0.88009500    -0.17908500     0.20450000
    2 C                    6.0000     0.57337200    -0.15912100     0.12267900
    3 C                    6.0000    -0.18395300     1.08811000     0.34072300
    4 C                    6.0000     1.18561100    -0.52030000    -1.21129100
    5 H                    1.0000     1.05659700    -0.60670100     0.99815500
    6 H                    1.0000    -0.22600900     1.53709200     1.33650400
    7 H                    1.0000    -0.32207600     1.78316400    -0.49202600
    8 H                    1.0000     2.23610300    -0.19675000    -1.25228300
    9 H                    1.0000     1.16185700    -1.60778300    -1.36721600
   10 H                    1.0000     0.63918100    -0.04188200    -2.03372900
 
      Atomic Mass 
      ----------- 
 
      O                 15.994910
      C                 12.000000
      H                  1.007825
 

 Effective nuclear repulsion energy (a.u.)     123.5315733626

            Nuclear Dipole moment (a.u.) 
            ----------------------------
        X                 Y               Z
 ---------------- ---------------- ----------------
    13.1431822006     3.5651457117   -10.6994943768
 
 
            XYZ format geometry
            -------------------
    10
 geometry
 O                    -0.88009500    -0.17908500     0.20450000
 C                     0.57337200    -0.15912100     0.12267900
 C                    -0.18395300     1.08811000     0.34072300
 C                     1.18561100    -0.52030000    -1.21129100
 H                     1.05659700    -0.60670100     0.99815500
 H                    -0.22600900     1.53709200     1.33650400
 H                    -0.32207600     1.78316400    -0.49202600
 H                     2.23610300    -0.19675000    -1.25228300
 H                     1.16185700    -1.60778300    -1.36721600
 H                     0.63918100    -0.04188200    -2.03372900
 
 ==============================================================================
                                internuclear distances
 ------------------------------------------------------------------------------
       center one      |      center two      | atomic units |  angstroms
 ------------------------------------------------------------------------------
    2 C                |   1 O                |     2.75126  |     1.45591
    3 C                |   1 O                |     2.74430  |     1.45222
    3 C                |   2 C                |     2.78801  |     1.47535
    4 C                |   2 C                |     2.85640  |     1.51154
    5 H                |   2 C                |     2.07034  |     1.09558
    6 H                |   3 C                |     2.06572  |     1.09313
    7 H                |   3 C                |     2.06633  |     1.09346
    8 H                |   4 C                |     2.07861  |     1.09995
    9 H                |   4 C                |     2.07655  |     1.09886
   10 H                |   4 C                |     2.07343  |     1.09721
 ------------------------------------------------------------------------------
                         number of included internuclear distances:         10
 ==============================================================================



 ==============================================================================
                                 internuclear angles
 ------------------------------------------------------------------------------
        center 1       |       center 2       |       center 3       |  degrees
 ------------------------------------------------------------------------------
    2 C                |   1 O                |   3 C                |    60.97
    2 C                |   1 O                |   3 C                |    60.97
    1 O                |   2 C                |   4 C                |   116.79
    1 O                |   2 C                |   5 H                |   112.94
    3 C                |   2 C                |   4 C                |   122.71
    3 C                |   2 C                |   5 H                |   116.98
    4 C                |   2 C                |   5 H                |   115.40
    3 C                |   1 O                |   2 C                |    60.97
    1 O                |   3 C                |   6 H                |   115.18
    1 O                |   3 C                |   7 H                |   115.00
    2 C                |   3 C                |   6 H                |   120.11
    2 C                |   3 C                |   7 H                |   119.32
    6 H                |   3 C                |   7 H                |   115.33
    2 C                |   4 C                |   8 H                |   110.45
    2 C                |   4 C                |   9 H                |   110.67
    2 C                |   4 C                |  10 H                |   110.83
    8 H                |   4 C                |   9 H                |   107.85
    8 H                |   4 C                |  10 H                |   108.63
    9 H                |   4 C                |  10 H                |   108.32
 ------------------------------------------------------------------------------
                            number of included internuclear angles:         19
 ==============================================================================



  warning:::::::::::::: from_environment
  NWCHEM_BASIS_LIBRARY set to: <
 /util/academic/nwchem/nwchem-6.8/src/basis/libraries>
  but file does not exist !
  using .nwchemrc or compiled library


 Summary of "ao basis" -> "" (spherical)
 ------------------------------------------------------------------------------
       Tag                 Description            Shells   Functions and Types
 ---------------- ------------------------------  ------  ---------------------
 *                         def2-TZVP                  on all atoms 


 
                                 NWChem DFT Module
                                 -----------------
 
 
                    methyloxirane roa calculations at 488.9 nm, input generated in va  with delta_type=2
 
 
                      Basis "ao basis" -> "ao basis" (spherical)
                      -----
  O (Oxygen)
  ----------
            Exponent  Coefficients 
       -------------- ---------------------------------------------------------
  1 S  2.70323826E+04  0.000217
  1 S  4.05238714E+03  0.001684
  1 S  9.22327227E+02  0.008740
  1 S  2.61240710E+02  0.035240
  1 S  8.53546414E+01  0.111535
  1 S  3.10350352E+01  0.255890
 
  2 S  1.22608607E+01  0.397687
  2 S  4.99870760E+00  0.246278
 
  3 S  1.17031082E+00  1.000000
 
  4 S  4.64747410E-01  1.000000
 
  5 S  1.85045364E-01  1.000000
 
  6 P  6.32749548E+01  0.006069
  6 P  1.46270494E+01  0.041913
  6 P  4.45012235E+00  0.161538
  6 P  1.52757996E+00  0.357070
 
  7 P  5.29351179E-01  1.000000
 
  8 P  1.74784213E-01  1.000000
 
  9 D  2.31400000E+00  1.000000
 
 10 D  6.45000000E-01  1.000000
 
 11 F  1.42800000E+00  1.000000
 
  C (Carbon)
  ----------
            Exponent  Coefficients 
       -------------- ---------------------------------------------------------
  1 S  1.35753497E+04  0.000222
  1 S  2.03523337E+03  0.001723
  1 S  4.63225624E+02  0.008926
  1 S  1.31200196E+02  0.035728
  1 S  4.28530159E+01  0.110763
  1 S  1.55841858E+01  0.242956
 
  2 S  6.20671385E+00  0.414403
  2 S  2.57648965E+00  0.237450
 
  3 S  5.76963394E-01  1.000000
 
  4 S  2.29728314E-01  1.000000
 
  5 S  9.51644400E-02  1.000000
 
  6 P  3.46972322E+01  0.005333
  6 P  7.95826228E+00  0.035864
  6 P  2.37808269E+00  0.142159
  6 P  8.14332082E-01  0.342705
 
  7 P  2.88875473E-01  1.000000
 
  8 P  1.00568237E-01  1.000000
 
  9 D  1.09700000E+00  1.000000
 
 10 D  3.18000000E-01  1.000000
 
 11 F  7.61000000E-01  1.000000
 
  H (Hydrogen)
  ------------
            Exponent  Coefficients 
       -------------- ---------------------------------------------------------
  1 S  3.40613410E+01  0.006025
  1 S  5.12357460E+00  0.045021
  1 S  1.16466260E+00  0.201897
 
  2 S  3.27230410E-01  1.000000
 
  3 S  1.03072410E-01  1.000000
 
  4 P  8.00000000E-01  1.000000
 


 Summary of "ao basis" -> "ao basis" (spherical)
 ------------------------------------------------------------------------------
       Tag                 Description            Shells   Functions and Types
 ---------------- ------------------------------  ------  ---------------------
 O                         def2-TZVP                11       31   5s3p2d1f
 C                         def2-TZVP                11       31   5s3p2d1f
 H                         def2-TZVP                 4        6   3s1p




 Summary of "ao basis" -> "ao basis" (spherical)
 ------------------------------------------------------------------------------
       Tag                 Description            Shells   Functions and Types
 ---------------- ------------------------------  ------  ---------------------
 O                         def2-TZVP                11       31   5s3p2d1f
 C                         def2-TZVP                11       31   5s3p2d1f
 H                         def2-TZVP                 4        6   3s1p


  Caching 1-el integrals 
  itol2e modified to match energy
  convergence criterion.
  tol_rho modified to match energy
  convergence criterion.
 
            General Information
            -------------------
          SCF calculation type: DFT
          Wavefunction type:  closed shell.
          No. of atoms     :    10
          No. of electrons :    32
           Alpha electrons :    16
            Beta electrons :    16
          Charge           :     0
          Spin multiplicity:     1
          Use of symmetry is: off; symmetry adaption is: off
          Maximum number of iterations: 250
          This is a Direct SCF calculation.
          AO basis - number of functions:   160
                     number of shells:    68
          Convergence on energy requested:  1.00D-08
          Convergence on density requested:  1.00D-05
          Convergence on gradient requested:  1.00D-07
 
              XC Information
              --------------
                    Becke 1988 Exchange Functional  1.000          
              Lee-Yang-Parr Correlation Functional  1.000          
 
             Grid Information
             ----------------
          Grid used for XC integration:  xfine     
          Radial quadrature: Mura-Knowles        
          Angular quadrature: Lebedev. 
          Tag              B.-S. Rad. Rad. Pts. Rad. Cut. Ang. Pts.
          ---              ---------- --------- --------- ---------
          O                   0.60      100          11.0      1454
          C                   0.70      100          11.0      1454
          H                   0.35      100          12.0      1202
          Grid pruning is: on 
          Number of quadrature shells:  1000
          Spatial weights used:  Erf1
 
          Convergence Information
          -----------------------
          Convergence aids based upon iterative change in 
          total energy or number of iterations. 
          Levelshifting, if invoked, occurs when the 
          HOMO/LUMO gap drops below (HL_TOL):  1.00D-02
          DIIS, if invoked, will attempt to extrapolate 
          using up to (NFOCK): 10 stored Fock matrices.

                    Damping( 0%)  Levelshifting(0.0)       DIIS
                  --------------- ------------------- ---------------
          dE  on:    start             N/A                start   
          dE off:    2 iters           N/A              250 iters 

 
      Screening Tolerance Information
      -------------------------------
          Density screening/tol_rho:  1.00D-11
          AO Gaussian exp screening on grid/accAOfunc:  18
          CD Gaussian exp screening on grid/accCDfunc:  20
          XC Gaussian exp screening on grid/accXCfunc:  20
          Schwarz screening/accCoul:  1.00D-09

 
      Superposition of Atomic Density Guess
      -------------------------------------
 
 Sum of atomic energies:        -190.79714706
 
      Non-variational initial energy
      ------------------------------

 Total energy =    -193.161360
 1-e energy   =    -502.025364
 2-e energy   =     185.332430
 HOMO         =      -0.351600
 LUMO         =       0.090373
 
   Time after variat. SCF:      0.6
   Time prior to 1st pass:      0.6

 Grid_pts file          = ./methyloxirane_blyp-def2-tzvp_488.9_01.inp.gridpts.0
 Record size in doubles =  12289        No. of grid_pts per rec  =   3070
 Max. records in memory =     76        Max. recs in file   =    554552


           Memory utilization after 1st SCF pass: 
           Heap Space remaining (MW):       12.17            12167542
          Stack Space remaining (MW):       13.11            13106116

   convergence    iter        energy       DeltaE   RMS-Dens  Diis-err    time
 ---------------- ----- ----------------- --------- --------- ---------  ------
 d= 0,ls=0.0,diis     1   -193.0202231727 -3.17D+02  9.20D-03  1.06D+00     6.4
 d= 0,ls=0.0,diis     2   -192.8585071826  1.62D-01  7.61D-03  2.56D+00    11.9
 d= 0,ls=0.0,diis     3   -193.0770909565 -2.19D-01  1.82D-03  3.87D-01    17.4
 d= 0,ls=0.0,diis     4   -193.1073011849 -3.02D-02  6.82D-04  1.82D-02    22.9
 d= 0,ls=0.0,diis     5   -193.1089713557 -1.67D-03  2.93D-04  2.70D-03    28.6
 d= 0,ls=0.0,diis     6   -193.1093082154 -3.37D-04  3.04D-05  3.56D-05    34.1
 d= 0,ls=0.0,diis     7   -193.1093124453 -4.23D-06  8.52D-06  4.15D-06    39.6
 d= 0,ls=0.0,diis     8   -193.1093129062 -4.61D-07  2.04D-06  2.94D-07    45.1
 d= 0,ls=0.0,diis     9   -193.1093129383 -3.21D-08  6.56D-07  1.58D-08    50.6
 d= 0,ls=0.0,diis    10   -193.1093129401 -1.80D-09  1.86D-07  2.07D-09    56.3


         Total DFT energy =     -193.109312940083
      One electron energy =     -505.680724739562
           Coulomb energy =      216.060397611249
    Exchange-Corr. energy =      -27.020559174413
 Nuclear repulsion energy =      123.531573362642

 Numeric. integr. density =       32.000000044967

     Total iterative time =     55.7s


 
                       DFT Final Molecular Orbital Analysis
                       ------------------------------------
 
 Vector    1  Occ=2.000000D+00  E=-1.877972D+01
              MO Center= -8.8D-01, -1.8D-01,  2.0D-01, r^2= 1.5D-02
   Bfn.  Coefficient  Atom+Function         Bfn.  Coefficient  Atom+Function  
  ----- ------------  ---------------      ----- ------------  ---------------
     2      0.638477   1 O  s                 1      0.435422   1 O  s         
     3      0.039886   1 O  s                 4     -0.033239   1 O  s         
 
 Vector    2  Occ=2.000000D+00  E=-9.963223D+00
              MO Center=  5.7D-01, -1.6D-01,  1.2D-01, r^2= 2.8D-02
   Bfn.  Coefficient  Atom+Function         Bfn.  Coefficient  Atom+Function  
  ----- ------------  ---------------      ----- ------------  ---------------
    33      0.606915   2 C  s                32      0.467263   2 C  s         
    34      0.042489   2 C  s                36      0.037273   2 C  s         
    35     -0.027198   2 C  s         
 
 Vector    3  Occ=2.000000D+00  E=-9.955535D+00
              MO Center= -1.8D-01,  1.1D+00,  3.4D-01, r^2= 2.8D-02
   Bfn.  Coefficient  Atom+Function         Bfn.  Coefficient  Atom+Function  
  ----- ------------  ---------------      ----- ------------  ---------------
    64      0.607028   3 C  s                63      0.467224   3 C  s         
    65      0.039705   3 C  s         
 
 Vector    4  Occ=2.000000D+00  E=-9.908029D+00
              MO Center=  1.2D+00, -5.2D-01, -1.2D+00, r^2= 2.8D-02
   Bfn.  Coefficient  Atom+Function         Bfn.  Coefficient  Atom+Function  
  ----- ------------  ---------------      ----- ------------  ---------------
    95      0.606961   4 C  s                94      0.467215   4 C  s         
    96      0.040598   4 C  s                98      0.035712   4 C  s         
 
 Vector    5  Occ=2.000000D+00  E=-9.624047D-01
              MO Center= -4.7D-01,  5.7D-02,  2.1D-01, r^2= 6.5D-01
   Bfn.  Coefficient  Atom+Function         Bfn.  Coefficient  Atom+Function  
  ----- ------------  ---------------      ----- ------------  ---------------
     4      0.375229   1 O  s                 3      0.277445   1 O  s         
     2     -0.192791   1 O  s                34      0.139798   2 C  s         
    65      0.139141   3 C  s                 5      0.122773   1 O  s         
    35      0.105134   2 C  s                 6      0.093384   1 O  px        
    66      0.093572   3 C  s                69     -0.091333   3 C  py        
 
 Vector    6  Occ=2.000000D+00  E=-6.697821D-01
              MO Center=  9.4D-01, -3.9D-01, -7.7D-01, r^2= 1.5D+00
   Bfn.  Coefficient  Atom+Function         Bfn.  Coefficient  Atom+Function  
  ----- ------------  ---------------      ----- ------------  ---------------
    97      0.285173   4 C  s                96      0.276266   4 C  s         
    35      0.185152   2 C  s                34      0.174494   2 C  s         
    95     -0.173954   4 C  s                 4     -0.147693   1 O  s         
    33     -0.109012   2 C  s                 3     -0.103299   1 O  s         
    94     -0.083349   4 C  s                 5     -0.073205   1 O  s         
 
 Vector    7  Occ=2.000000D+00  E=-5.897778D-01
              MO Center= -1.3D-01,  7.2D-01,  2.2D-01, r^2= 2.0D+00
   Bfn.  Coefficient  Atom+Function         Bfn.  Coefficient  Atom+Function  
  ----- ------------  ---------------      ----- ------------  ---------------
    66      0.326181   3 C  s                65      0.278175   3 C  s         
     4     -0.238234   1 O  s                64     -0.171933   3 C  s         
     3     -0.168261   1 O  s                 5     -0.147754   1 O  s         
     2      0.111094   1 O  s                38      0.104771   2 C  py        
   132      0.102798   6 H  s                97     -0.099683   4 C  s         
 
 Vector    8  Occ=2.000000D+00  E=-5.299165D-01
              MO Center=  4.1D-01,  1.5D-02, -9.6D-02, r^2= 2.7D+00
   Bfn.  Coefficient  Atom+Function         Bfn.  Coefficient  Atom+Function  
  ----- ------------  ---------------      ----- ------------  ---------------
    35      0.303438   2 C  s                34      0.225019   2 C  s         
    97     -0.154908   4 C  s                66     -0.153204   3 C  s         
    33     -0.138427   2 C  s               126      0.132923   5 H  s         
    96     -0.128605   4 C  s                 6      0.106629   1 O  px        
   125      0.106271   5 H  s                65     -0.099144   3 C  s         
 
 Vector    9  Occ=2.000000D+00  E=-4.477090D-01
              MO Center=  1.2D-01,  2.8D-01,  2.5D-01, r^2= 2.5D+00
   Bfn.  Coefficient  Atom+Function         Bfn.  Coefficient  Atom+Function  
  ----- ------------  ---------------      ----- ------------  ---------------
    70      0.209814   3 C  pz               39      0.155471   2 C  pz        
   132      0.144916   6 H  s                73      0.131864   3 C  pz        
     8      0.126989   1 O  pz              126      0.115825   5 H  s         
     6     -0.110939   1 O  px               38     -0.107155   2 C  py        
   131      0.107535   6 H  s                37      0.104214   2 C  px        
 
 Vector   10  Occ=2.000000D+00  E=-4.135625D-01
              MO Center=  4.9D-02,  2.8D-01, -2.4D-01, r^2= 2.6D+00
   Bfn.  Coefficient  Atom+Function         Bfn.  Coefficient  Atom+Function  
  ----- ------------  ---------------      ----- ------------  ---------------
    69      0.215626   3 C  py              101      0.154710   4 C  pz        
   138      0.153993   7 H  s                 6     -0.143508   1 O  px        
    38     -0.140036   2 C  py               37      0.128637   2 C  px        
     7     -0.121889   1 O  py               72      0.122024   3 C  py        
    70     -0.116567   3 C  pz                9     -0.114685   1 O  px        
 
 Vector   11  Occ=2.000000D+00  E=-3.767942D-01
              MO Center=  9.1D-01, -3.1D-01, -7.5D-01, r^2= 2.7D+00
   Bfn.  Coefficient  Atom+Function         Bfn.  Coefficient  Atom+Function  
  ----- ------------  ---------------      ----- ------------  ---------------
    99      0.209885   4 C  px              144      0.186321   8 H  s         
   100      0.165850   4 C  py              150     -0.138193   9 H  s         
   102      0.134760   4 C  px              143      0.130463   8 H  s         
    37      0.127887   2 C  px                6     -0.117773   1 O  px        
     7      0.114618   1 O  py              103      0.109547   4 C  py        
 
 Vector   12  Occ=2.000000D+00  E=-3.560483D-01
              MO Center=  6.0D-01, -3.5D-01, -8.7D-01, r^2= 2.9D+00
   Bfn.  Coefficient  Atom+Function         Bfn.  Coefficient  Atom+Function  
  ----- ------------  ---------------      ----- ------------  ---------------
   100      0.255658   4 C  py              150     -0.188162   9 H  s         
   156      0.174127  10 H  s                 7     -0.167962   1 O  py        
   103      0.165659   4 C  py               10     -0.134484   1 O  py        
   149     -0.131079   9 H  s               155      0.123342  10 H  s         
    70      0.117683   3 C  pz              106      0.102656   4 C  py        
 
 Vector   13  Occ=2.000000D+00  E=-3.290720D-01
              MO Center=  3.3D-01,  2.5D-01, -2.2D-01, r^2= 2.7D+00
   Bfn.  Coefficient  Atom+Function         Bfn.  Coefficient  Atom+Function  
  ----- ------------  ---------------      ----- ------------  ---------------
    39      0.214473   2 C  pz              101     -0.192050   4 C  pz        
     7     -0.172454   1 O  py               70     -0.169600   3 C  pz        
   138      0.161941   7 H  s                42      0.145384   2 C  pz        
    10     -0.139161   1 O  py              104     -0.134892   4 C  pz        
    99      0.133128   4 C  px              137      0.108985   7 H  s         
 
 Vector   14  Occ=2.000000D+00  E=-3.211800D-01
              MO Center=  4.0D-01, -5.4D-02, -2.3D-01, r^2= 3.0D+00
   Bfn.  Coefficient  Atom+Function         Bfn.  Coefficient  Atom+Function  
  ----- ------------  ---------------      ----- ------------  ---------------
     7      0.201411   1 O  py               10      0.165225   1 O  py        
   126      0.163796   5 H  s                99     -0.155329   4 C  px        
   156      0.155588  10 H  s                 6     -0.146293   1 O  px        
    39      0.134749   2 C  pz               37      0.131429   2 C  px        
   144     -0.128471   8 H  s               101     -0.124271   4 C  pz        
 
 Vector   15  Occ=2.000000D+00  E=-2.633872D-01
              MO Center=  1.8D-02,  1.5D-01,  3.6D-02, r^2= 2.3D+00
   Bfn.  Coefficient  Atom+Function         Bfn.  Coefficient  Atom+Function  
  ----- ------------  ---------------      ----- ------------  ---------------
    68      0.264397   3 C  px               38      0.256262   2 C  py        
     6     -0.237249   1 O  px               41      0.199911   2 C  py        
    71      0.196409   3 C  px                9     -0.185539   1 O  px        
    12     -0.157197   1 O  px              150      0.114832   9 H  s         
   100     -0.110898   4 C  py               67      0.105584   3 C  s         
 
 Vector   16  Occ=2.000000D+00  E=-2.196664D-01
              MO Center= -5.8D-01, -2.5D-02,  2.0D-01, r^2= 1.6D+00
   Bfn.  Coefficient  Atom+Function         Bfn.  Coefficient  Atom+Function  
  ----- ------------  ---------------      ----- ------------  ---------------
     8      0.449040   1 O  pz               11      0.357619   1 O  pz        
    14      0.296099   1 O  pz              133     -0.130945   6 H  s         
   139      0.116058   7 H  s               132     -0.103998   6 H  s         
   138      0.103889   7 H  s               145     -0.102087   8 H  s         
   126     -0.096830   5 H  s                98      0.094456   4 C  s         
 
 Vector   17  Occ=0.000000D+00  E= 2.564713D-02
              MO Center=  1.2D+00, -9.5D-02, -6.1D-01, r^2= 7.2D+00
   Bfn.  Coefficient  Atom+Function         Bfn.  Coefficient  Atom+Function  
  ----- ------------  ---------------      ----- ------------  ---------------
    98      4.474030   4 C  s               145     -1.529186   8 H  s         
   151     -1.503271   9 H  s               157     -1.337176  10 H  s         
   127     -1.237491   5 H  s                45      1.126152   2 C  pz        
   139     -0.881668   7 H  s                67      0.698441   3 C  s         
   133     -0.611422   6 H  s                75      0.330476   3 C  py        
 
 Vector   18  Occ=0.000000D+00  E= 4.285902D-02
              MO Center= -1.3D-01,  6.6D-01,  1.0D-01, r^2= 4.5D+00
   Bfn.  Coefficient  Atom+Function         Bfn.  Coefficient  Atom+Function  
  ----- ------------  ---------------      ----- ------------  ---------------
    98     -2.137121   4 C  s                36      1.994944   2 C  s         
     5     -1.273850   1 O  s                74     -0.943229   3 C  px        
   151      0.816195   9 H  s                45     -0.497589   2 C  pz        
    67     -0.448847   3 C  s               157      0.446485  10 H  s         
    13     -0.434920   1 O  py               44      0.412766   2 C  py        
 
 Vector   19  Occ=0.000000D+00  E= 5.003114D-02
              MO Center=  3.3D-01,  5.8D-01, -1.5D-01, r^2= 6.4D+00
   Bfn.  Coefficient  Atom+Function         Bfn.  Coefficient  Atom+Function  
  ----- ------------  ---------------      ----- ------------  ---------------
    67      3.010852   3 C  s                36     -2.557312   2 C  s         
   139     -1.652334   7 H  s               127      1.615020   5 H  s         
   157     -0.737396  10 H  s               145      0.592196   8 H  s         
    45     -0.577416   2 C  pz               44     -0.570991   2 C  py        
     5     -0.502159   1 O  s                76     -0.451780   3 C  pz        
 
 Vector   20  Occ=0.000000D+00  E= 5.079548D-02
              MO Center=  6.4D-01,  4.5D-01,  4.4D-01, r^2= 7.6D+00
   Bfn.  Coefficient  Atom+Function         Bfn.  Coefficient  Atom+Function  
  ----- ------------  ---------------      ----- ------------  ---------------
    98      3.406149   4 C  s                67     -2.318992   3 C  s         
   133      1.803282   6 H  s               127      1.396677   5 H  s         
    36     -1.203398   2 C  s               157     -1.166337  10 H  s         
   145     -1.137605   8 H  s                44      1.020260   2 C  py        
    43     -0.699755   2 C  px              151     -0.679426   9 H  s         
 
 Vector   21  Occ=0.000000D+00  E= 6.492541D-02
              MO Center=  2.7D-01,  1.2D-01, -1.5D-01, r^2= 4.8D+00
   Bfn.  Coefficient  Atom+Function         Bfn.  Coefficient  Atom+Function  
  ----- ------------  ---------------      ----- ------------  ---------------
   139      1.248448   7 H  s                98      1.237891   4 C  s         
    67     -0.982614   3 C  s               151     -0.935397   9 H  s         
     5     -0.872631   1 O  s                43     -0.815119   2 C  px        
   133      0.603051   6 H  s                75     -0.563790   3 C  py        
    12     -0.486492   1 O  px              127     -0.444069   5 H  s         
 
 Vector   22  Occ=0.000000D+00  E= 8.590863D-02
              MO Center=  1.2D+00,  2.4D-01, -4.9D-01, r^2= 7.2D+00
   Bfn.  Coefficient  Atom+Function         Bfn.  Coefficient  Atom+Function  
  ----- ------------  ---------------      ----- ------------  ---------------
    36      2.955716   2 C  s               145      1.974347   8 H  s         
    67     -1.452738   3 C  s               157     -1.338393  10 H  s         
   127     -1.304117   5 H  s               133      1.210366   6 H  s         
   107     -1.128828   4 C  pz               98     -1.005179   4 C  s         
   105     -0.995343   4 C  px               75      0.798741   3 C  py        
 
 Vector   23  Occ=0.000000D+00  E= 9.140847D-02
              MO Center=  1.2D+00, -6.9D-01, -5.9D-01, r^2= 6.4D+00
   Bfn.  Coefficient  Atom+Function         Bfn.  Coefficient  Atom+Function  
  ----- ------------  ---------------      ----- ------------  ---------------
    36      2.469956   2 C  s               151      2.117491   9 H  s         
   145     -1.599272   8 H  s                98     -1.274437   4 C  s         
   106      1.201393   4 C  py              105      1.077667   4 C  px        
    67     -0.888612   3 C  s               133      0.857111   6 H  s         
   127     -0.826644   5 H  s               107     -0.696398   4 C  pz        
 
 Vector   24  Occ=0.000000D+00  E= 1.023552D-01
              MO Center=  4.2D-01,  4.6D-01, -1.1D+00, r^2= 6.8D+00
   Bfn.  Coefficient  Atom+Function         Bfn.  Coefficient  Atom+Function  
  ----- ------------  ---------------      ----- ------------  ---------------
   157      2.030221  10 H  s               133      1.635523   6 H  s         
   139     -1.510136   7 H  s                98     -1.475895   4 C  s         
   106     -1.423708   4 C  py              151     -1.365204   9 H  s         
    36      1.343141   2 C  s                76     -1.180966   3 C  pz        
   105      1.037936   4 C  px               45     -0.522129   2 C  pz        
 
 Vector   25  Occ=0.000000D+00  E= 1.390055D-01
              MO Center=  8.1D-01,  1.8D-01, -4.5D-01, r^2= 7.9D+00
   Bfn.  Coefficient  Atom+Function         Bfn.  Coefficient  Atom+Function  
  ----- ------------  ---------------      ----- ------------  ---------------
    36      4.643901   2 C  s                98     -3.548473   4 C  s         
    45     -3.410344   2 C  pz               67     -2.765066   3 C  s         
   127      2.728814   5 H  s                76      2.163744   3 C  pz        
   105      2.092509   4 C  px              133     -1.783815   6 H  s         
   139      1.693870   7 H  s               107     -1.572962   4 C  pz        
 
 Vector   26  Occ=0.000000D+00  E= 1.701258D-01
              MO Center=  4.3D-01,  5.6D-01, -1.4D-01, r^2= 7.3D+00
   Bfn.  Coefficient  Atom+Function         Bfn.  Coefficient  Atom+Function  
  ----- ------------  ---------------      ----- ------------  ---------------
    75      2.350224   3 C  py               36      1.617289   2 C  s         
    67     -1.618039   3 C  s               107      1.622098   4 C  pz        
   139     -1.182986   7 H  s               157      1.083943  10 H  s         
    74     -0.988255   3 C  px               44      0.779457   2 C  py        
    43     -0.646124   2 C  px              106     -0.592183   4 C  py        
 
 Vector   27  Occ=0.000000D+00  E= 1.974414D-01
              MO Center=  7.9D-01, -1.1D-01, -9.6D-01, r^2= 5.1D+00
   Bfn.  Coefficient  Atom+Function         Bfn.  Coefficient  Atom+Function  
  ----- ------------  ---------------      ----- ------------  ---------------
    67      3.171843   3 C  s                44     -2.656342   2 C  py        
    36     -2.031476   2 C  s               106      1.954902   4 C  py        
    43      1.069932   2 C  px               74      0.751924   3 C  px        
   105      0.714875   4 C  px               45     -0.704623   2 C  pz        
   157     -0.680147  10 H  s               150      0.619554   9 H  s         
 
 Vector   28  Occ=0.000000D+00  E= 2.019251D-01
              MO Center=  1.0D+00, -4.5D-01, -6.9D-01, r^2= 6.6D+00
   Bfn.  Coefficient  Atom+Function         Bfn.  Coefficient  Atom+Function  
  ----- ------------  ---------------      ----- ------------  ---------------
    36      2.521300   2 C  s                75      1.632550   3 C  py        
   105     -1.410408   4 C  px              133     -1.232459   6 H  s         
   107     -0.958505   4 C  pz              106      0.908355   4 C  py        
   156     -0.721368  10 H  s               139     -0.717397   7 H  s         
    45      0.707597   2 C  pz               76      0.682663   3 C  pz        
 
 Vector   29  Occ=0.000000D+00  E= 2.359406D-01
              MO Center= -2.9D-01,  3.8D-01, -6.8D-02, r^2= 5.4D+00
   Bfn.  Coefficient  Atom+Function         Bfn.  Coefficient  Atom+Function  
  ----- ------------  ---------------      ----- ------------  ---------------
    67      4.456826   3 C  s                36     -3.058133   2 C  s         
   139     -1.566133   7 H  s                66     -1.449313   3 C  s         
    98      1.289408   4 C  s               133     -1.257004   6 H  s         
   107      0.993721   4 C  pz               74     -0.797989   3 C  px        
   106      0.797745   4 C  py                5     -0.743394   1 O  s         
 
 Vector   30  Occ=0.000000D+00  E= 2.476889D-01
              MO Center=  5.3D-01,  3.4D-02, -7.3D-02, r^2= 5.9D+00
   Bfn.  Coefficient  Atom+Function         Bfn.  Coefficient  Atom+Function  
  ----- ------------  ---------------      ----- ------------  ---------------
    67      5.993149   3 C  s                43      4.155360   2 C  px        
    75     -2.998224   3 C  py               44     -2.552626   2 C  py        
    36     -2.121031   2 C  s               107     -2.019092   4 C  pz        
   157     -1.801638  10 H  s                45     -1.483730   2 C  pz        
    98     -1.344760   4 C  s               105     -1.181916   4 C  px        
 
 Vector   31  Occ=0.000000D+00  E= 2.688164D-01
              MO Center=  2.6D-01, -1.9D-01,  2.4D-01, r^2= 5.6D+00
   Bfn.  Coefficient  Atom+Function         Bfn.  Coefficient  Atom+Function  
  ----- ------------  ---------------      ----- ------------  ---------------
    36      4.434926   2 C  s                 5     -2.298201   1 O  s         
    67      2.175241   3 C  s                43     -1.636037   2 C  px        
   105      1.573457   4 C  px               98     -1.196245   4 C  s         
    66     -1.178273   3 C  s               139     -0.915979   7 H  s         
   133     -0.910581   6 H  s               127     -0.841501   5 H  s         
 
 Vector   32  Occ=0.000000D+00  E= 2.779554D-01
              MO Center=  4.3D-01,  3.7D-01,  3.0D-01, r^2= 4.1D+00
   Bfn.  Coefficient  Atom+Function         Bfn.  Coefficient  Atom+Function  
  ----- ------------  ---------------      ----- ------------  ---------------
    36      2.274503   2 C  s                67     -1.693731   3 C  s         
     5     -1.634284   1 O  s                43     -1.179155   2 C  px        
    74     -0.742597   3 C  px               45     -0.628162   2 C  pz        
    98     -0.627432   4 C  s               145      0.592142   8 H  s         
     4      0.488830   1 O  s                66      0.441535   3 C  s         
 
 Vector   33  Occ=0.000000D+00  E= 3.011487D-01
              MO Center=  4.4D-01,  3.4D-01, -3.9D-01, r^2= 5.0D+00
   Bfn.  Coefficient  Atom+Function         Bfn.  Coefficient  Atom+Function  
  ----- ------------  ---------------      ----- ------------  ---------------
    43      1.897063   2 C  px              106      1.776152   4 C  py        
   151      1.692067   9 H  s                98     -1.529022   4 C  s         
    36     -1.442280   2 C  s                76      1.301421   3 C  pz        
    44     -1.274528   2 C  py              107     -1.016905   4 C  pz        
    66      0.994463   3 C  s               139      0.881282   7 H  s         
 
 Vector   34  Occ=0.000000D+00  E= 3.377333D-01
              MO Center=  9.9D-02,  4.3D-01, -4.0D-01, r^2= 5.8D+00
   Bfn.  Coefficient  Atom+Function         Bfn.  Coefficient  Atom+Function  
  ----- ------------  ---------------      ----- ------------  ---------------
    67      4.449094   3 C  s                76     -4.001334   3 C  pz        
   139     -3.172664   7 H  s                36     -2.085552   2 C  s         
   133      2.048507   6 H  s               107     -1.786388   4 C  pz        
   157     -1.686394  10 H  s                43      1.369102   2 C  px        
    98      1.281380   4 C  s                44     -1.081806   2 C  py        
 
 Vector   35  Occ=0.000000D+00  E= 3.622279D-01
              MO Center=  8.0D-01, -1.8D-02, -3.8D-01, r^2= 6.8D+00
   Bfn.  Coefficient  Atom+Function         Bfn.  Coefficient  Atom+Function  
  ----- ------------  ---------------      ----- ------------  ---------------
    98      7.923985   4 C  s               145     -3.303150   8 H  s         
    76      3.225636   3 C  pz               97     -3.184735   4 C  s         
   133     -2.303475   6 H  s               151     -1.929366   9 H  s         
   139      1.588368   7 H  s                44      1.558226   2 C  py        
    45     -1.473377   2 C  pz               67     -1.439830   3 C  s         
 
 Vector   36  Occ=0.000000D+00  E= 3.720408D-01
              MO Center=  5.5D-01,  2.5D-01, -5.8D-02, r^2= 6.4D+00
   Bfn.  Coefficient  Atom+Function         Bfn.  Coefficient  Atom+Function  
  ----- ------------  ---------------      ----- ------------  ---------------
    36     12.727358   2 C  s                98     -8.729936   4 C  s         
    67     -8.347016   3 C  s               127     -3.162321   5 H  s         
    97      2.425941   4 C  s               157      2.268266  10 H  s         
    44      1.898621   2 C  py               35     -1.879702   2 C  s         
   151      1.692175   9 H  s                74     -1.590799   3 C  px        
 
 Vector   37  Occ=0.000000D+00  E= 3.848671D-01
              MO Center=  9.0D-01, -3.4D-01, -1.2D-01, r^2= 6.1D+00
   Bfn.  Coefficient  Atom+Function         Bfn.  Coefficient  Atom+Function  
  ----- ------------  ---------------      ----- ------------  ---------------
    36      6.085253   2 C  s                98      4.098952   4 C  s         
   127     -4.081921   5 H  s                45      2.883320   2 C  pz        
    67     -2.585217   3 C  s               151     -2.246602   9 H  s         
    35     -2.210723   2 C  s                76     -2.016977   3 C  pz        
   145     -2.004427   8 H  s               133      1.694331   6 H  s         
 
 Vector   38  Occ=0.000000D+00  E= 3.948678D-01
              MO Center=  2.1D-01,  1.8D-01, -8.4D-02, r^2= 6.5D+00
   Bfn.  Coefficient  Atom+Function         Bfn.  Coefficient  Atom+Function  
  ----- ------------  ---------------      ----- ------------  ---------------
    98     11.999803   4 C  s                67     -6.315050   3 C  s         
    45      5.180474   2 C  pz               76     -3.059091   3 C  pz        
   133      2.651095   6 H  s               157     -2.653750  10 H  s         
    44      2.508109   2 C  py               43     -2.007385   2 C  px        
    75      1.896243   3 C  py               97     -1.756767   4 C  s         
 
 Vector   39  Occ=0.000000D+00  E= 4.015107D-01
              MO Center= -2.6D-01,  2.0D-01,  2.1D-01, r^2= 6.4D+00
   Bfn.  Coefficient  Atom+Function         Bfn.  Coefficient  Atom+Function  
  ----- ------------  ---------------      ----- ------------  ---------------
    67    -12.141084   3 C  s                36     11.865604   2 C  s         
    98     -5.315864   4 C  s                45     -5.244042   2 C  pz        
    44      3.858562   2 C  py              127      2.961882   5 H  s         
    66      2.708991   3 C  s               139      2.486281   7 H  s         
    43     -2.427456   2 C  px              105      2.338401   4 C  px        
 
 Vector   40  Occ=0.000000D+00  E= 4.154781D-01
              MO Center=  8.1D-01, -3.6D-01, -8.5D-01, r^2= 5.8D+00
   Bfn.  Coefficient  Atom+Function         Bfn.  Coefficient  Atom+Function  
  ----- ------------  ---------------      ----- ------------  ---------------
    98      6.821472   4 C  s                36     -3.256566   2 C  s         
    45      2.926659   2 C  pz              105     -2.544713   4 C  px        
   151     -2.334793   9 H  s               157     -2.041589  10 H  s         
   145      1.837663   8 H  s                97     -1.110060   4 C  s         
   144     -0.978545   8 H  s               127     -0.929708   5 H  s         
 
 Vector   41  Occ=0.000000D+00  E= 4.267112D-01
              MO Center=  4.8D-01,  1.9D-01, -1.4D-01, r^2= 6.9D+00
   Bfn.  Coefficient  Atom+Function         Bfn.  Coefficient  Atom+Function  
  ----- ------------  ---------------      ----- ------------  ---------------
    36      9.486584   2 C  s                67     -4.712782   3 C  s         
    98     -4.385231   4 C  s                44      2.590182   2 C  py        
    75      2.579623   3 C  py              151      2.446978   9 H  s         
    43     -1.730890   2 C  px               45     -1.588573   2 C  pz        
    74     -1.447963   3 C  px              132      1.325700   6 H  s         
 
 Vector   42  Occ=0.000000D+00  E= 4.473246D-01
              MO Center=  9.9D-02, -1.1D-01, -1.9D-01, r^2= 6.1D+00
   Bfn.  Coefficient  Atom+Function         Bfn.  Coefficient  Atom+Function  
  ----- ------------  ---------------      ----- ------------  ---------------
    36      9.574604   2 C  s                98     -9.109043   4 C  s         
    45     -5.633666   2 C  pz               67     -2.905598   3 C  s         
   127      2.883670   5 H  s                76      2.667606   3 C  pz        
    44      2.177197   2 C  py              157      2.147801  10 H  s         
   106     -2.022340   4 C  py              133     -2.032218   6 H  s         
 
 Vector   43  Occ=0.000000D+00  E= 4.592407D-01
              MO Center=  8.5D-02,  7.8D-01, -5.6D-01, r^2= 5.1D+00
   Bfn.  Coefficient  Atom+Function         Bfn.  Coefficient  Atom+Function  
  ----- ------------  ---------------      ----- ------------  ---------------
   139      3.177696   7 H  s               157     -2.433042  10 H  s         
   107     -2.253891   4 C  pz               75     -2.181089   3 C  py        
    45     -1.639956   2 C  pz               43      1.623419   2 C  px        
    44     -1.598461   2 C  py              138     -1.429935   7 H  s         
    76      1.036562   3 C  pz               74      0.812592   3 C  px        
 
 Vector   44  Occ=0.000000D+00  E= 4.688198D-01
              MO Center=  4.6D-01,  1.9D-01,  1.8D-02, r^2= 5.6D+00
   Bfn.  Coefficient  Atom+Function         Bfn.  Coefficient  Atom+Function  
  ----- ------------  ---------------      ----- ------------  ---------------
    98     -5.041609   4 C  s                36      4.734969   2 C  s         
    45     -2.147877   2 C  pz              145      1.660154   8 H  s         
   107     -1.554800   4 C  pz              133      1.516092   6 H  s         
    67     -1.463985   3 C  s                35     -1.250382   2 C  s         
   132     -1.143833   6 H  s               126      1.076616   5 H  s         
 
 Vector   45  Occ=0.000000D+00  E= 5.085893D-01
              MO Center=  9.2D-01, -3.8D-01, -9.5D-01, r^2= 4.8D+00
   Bfn.  Coefficient  Atom+Function         Bfn.  Coefficient  Atom+Function  
  ----- ------------  ---------------      ----- ------------  ---------------
    98     11.685954   4 C  s                36     -7.764474   2 C  s         
    45      4.765383   2 C  pz              107      3.113338   4 C  pz        
   106      1.375308   4 C  py              144     -1.332822   8 H  s         
   156     -1.250449  10 H  s               127     -1.211701   5 H  s         
   105     -1.096551   4 C  px              150     -1.099041   9 H  s         
 
 Vector   46  Occ=0.000000D+00  E= 5.369869D-01
              MO Center=  7.7D-02, -4.0D-01, -4.8D-01, r^2= 4.4D+00
   Bfn.  Coefficient  Atom+Function         Bfn.  Coefficient  Atom+Function  
  ----- ------------  ---------------      ----- ------------  ---------------
    98     -6.963026   4 C  s                36      6.692150   2 C  s         
    45     -3.536857   2 C  pz               76      3.282605   3 C  pz        
   133     -1.830131   6 H  s               105      1.476612   4 C  px        
   139      1.473961   7 H  s               107     -1.423250   4 C  pz        
    14     -1.184572   1 O  pz                5     -1.098715   1 O  s         
 
 Vector   47  Occ=0.000000D+00  E= 6.568073D-01
              MO Center= -3.5D-01,  2.7D-02, -2.2D-02, r^2= 4.3D+00
   Bfn.  Coefficient  Atom+Function         Bfn.  Coefficient  Atom+Function  
  ----- ------------  ---------------      ----- ------------  ---------------
    36     11.217616   2 C  s                67     -8.652790   3 C  s         
    98     -3.905857   4 C  s                43     -2.540552   2 C  px        
    75      2.325740   3 C  py               13      2.156870   1 O  py        
    76      2.052874   3 C  pz              105      1.586529   4 C  px        
   139      1.507327   7 H  s                44      1.412469   2 C  py        
 
 Vector   48  Occ=0.000000D+00  E= 6.742155D-01
              MO Center= -3.1D-01,  3.6D-01,  1.2D-01, r^2= 4.0D+00
   Bfn.  Coefficient  Atom+Function         Bfn.  Coefficient  Atom+Function  
  ----- ------------  ---------------      ----- ------------  ---------------
    36      8.383908   2 C  s                67     -8.130282   3 C  s         
     5      2.990915   1 O  s                75      2.648568   3 C  py        
    13      2.173010   1 O  py               98     -2.173321   4 C  s         
    43     -1.285444   2 C  px               45     -1.197956   2 C  pz        
     4     -1.106030   1 O  s                44      0.995296   2 C  py        
 
 Vector   49  Occ=0.000000D+00  E= 7.080319D-01
              MO Center=  1.8D-01, -3.2D-01, -2.7D-01, r^2= 4.5D+00
   Bfn.  Coefficient  Atom+Function         Bfn.  Coefficient  Atom+Function  
  ----- ------------  ---------------      ----- ------------  ---------------
    67      9.524880   3 C  s                36     -7.541133   2 C  s         
    43      3.701497   2 C  px               44     -3.509774   2 C  py        
    75     -2.760396   3 C  py                5      2.337375   1 O  s         
    98     -2.347265   4 C  s                12      1.701141   1 O  px        
   106      1.673359   4 C  py               13     -1.317157   1 O  py        
 
 Vector   50  Occ=0.000000D+00  E= 7.611904D-01
              MO Center=  6.2D-01,  2.4D-02, -3.2D-01, r^2= 4.1D+00
   Bfn.  Coefficient  Atom+Function         Bfn.  Coefficient  Atom+Function  
  ----- ------------  ---------------      ----- ------------  ---------------
    45      2.406201   2 C  pz              127     -1.690642   5 H  s         
   105     -1.588530   4 C  px               36      1.500232   2 C  s         
    43      1.442582   2 C  px                5     -1.407699   1 O  s         
   126     -1.318627   5 H  s               144      1.276264   8 H  s         
    76     -1.088341   3 C  pz               66      0.929850   3 C  s         
 
 Vector   51  Occ=0.000000D+00  E= 7.949008D-01
              MO Center=  2.7D-01,  2.1D-02, -1.9D-01, r^2= 4.4D+00
   Bfn.  Coefficient  Atom+Function         Bfn.  Coefficient  Atom+Function  
  ----- ------------  ---------------      ----- ------------  ---------------
     5      4.194601   1 O  s                36     -2.737120   2 C  s         
    76     -2.457464   3 C  pz                4     -1.639785   1 O  s         
    45      1.432969   2 C  pz               12      1.376511   1 O  px        
   133      1.310408   6 H  s                43      1.176824   2 C  px        
    66     -1.096574   3 C  s                35     -1.033253   2 C  s         
 
 Vector   52  Occ=0.000000D+00  E= 8.325977D-01
              MO Center=  3.3D-01,  1.7D-01, -1.3D-02, r^2= 4.4D+00
   Bfn.  Coefficient  Atom+Function         Bfn.  Coefficient  Atom+Function  
  ----- ------------  ---------------      ----- ------------  ---------------
    36      6.689893   2 C  s                98     -4.216736   4 C  s         
     5     -3.857072   1 O  s                43     -2.578325   2 C  px        
   105      1.991224   4 C  px               45     -1.949947   2 C  pz        
    35     -1.880858   2 C  s                44      1.525362   2 C  py        
    66     -1.221508   3 C  s                97      1.052478   4 C  s         
 
 Vector   53  Occ=0.000000D+00  E= 8.521632D-01
              MO Center=  6.1D-01,  1.3D-01, -3.9D-01, r^2= 4.2D+00
   Bfn.  Coefficient  Atom+Function         Bfn.  Coefficient  Atom+Function  
  ----- ------------  ---------------      ----- ------------  ---------------
    98     -4.590882   4 C  s                45     -4.546379   2 C  pz        
    36      4.395761   2 C  s                76      2.111234   3 C  pz        
   127      1.816721   5 H  s               106     -1.517498   4 C  py        
    44      1.475847   2 C  py              105      1.333879   4 C  px        
   150     -1.241880   9 H  s               139      1.120323   7 H  s         
 
 Vector   54  Occ=0.000000D+00  E= 8.716362D-01
              MO Center=  1.7D-01, -4.0D-02, -1.3D-01, r^2= 4.2D+00
   Bfn.  Coefficient  Atom+Function         Bfn.  Coefficient  Atom+Function  
  ----- ------------  ---------------      ----- ------------  ---------------
     5      4.646413   1 O  s                36     -1.953735   2 C  s         
     4     -1.562146   1 O  s               138      1.451861   7 H  s         
    76      1.282972   3 C  pz               67     -1.232209   3 C  s         
    12      1.183307   1 O  px               66     -1.122623   3 C  s         
    43      0.886322   2 C  px              156     -0.861761  10 H  s         
 
 Vector   55  Occ=0.000000D+00  E= 9.202736D-01
              MO Center=  5.1D-01,  3.0D-01, -4.8D-01, r^2= 4.6D+00
   Bfn.  Coefficient  Atom+Function         Bfn.  Coefficient  Atom+Function  
  ----- ------------  ---------------      ----- ------------  ---------------
    35      4.964611   2 C  s                36     -1.706262   2 C  s         
    67      1.508406   3 C  s               132     -1.315650   6 H  s         
    72      1.277913   3 C  py               66     -1.256288   3 C  s         
    84      1.157025   3 C  d  0            156     -1.156531  10 H  s         
    41      1.149370   2 C  py               98     -1.094247   4 C  s         
 
 Vector   56  Occ=0.000000D+00  E= 9.614704D-01
              MO Center=  4.5D-01,  3.0D-01, -5.3D-01, r^2= 4.7D+00
   Bfn.  Coefficient  Atom+Function         Bfn.  Coefficient  Atom+Function  
  ----- ------------  ---------------      ----- ------------  ---------------
    35      4.145737   2 C  s                67      2.546096   3 C  s         
   138     -2.358474   7 H  s                76     -1.807030   3 C  pz        
    42     -1.746248   2 C  pz               83     -1.653823   3 C  d -1      
    36     -1.488603   2 C  s               115     -1.470380   4 C  d  0      
    98     -1.387719   4 C  s               132      1.374362   6 H  s         
 
 Vector   57  Occ=0.000000D+00  E= 9.924174D-01
              MO Center=  3.5D-01,  4.6D-01, -1.3D-01, r^2= 4.1D+00
   Bfn.  Coefficient  Atom+Function         Bfn.  Coefficient  Atom+Function  
  ----- ------------  ---------------      ----- ------------  ---------------
    36      7.438859   2 C  s                98     -4.767618   4 C  s         
    67     -3.954506   3 C  s                45     -3.711666   2 C  pz        
    43     -2.341235   2 C  px               44      2.152439   2 C  py        
    66     -1.679326   3 C  s               127      1.566452   5 H  s         
    75      1.473895   3 C  py              126      1.352417   5 H  s         
 
 Vector   58  Occ=0.000000D+00  E= 1.011505D+00
              MO Center=  3.6D-01,  5.7D-01, -4.1D-02, r^2= 4.2D+00
   Bfn.  Coefficient  Atom+Function         Bfn.  Coefficient  Atom+Function  
  ----- ------------  ---------------      ----- ------------  ---------------
    36      5.410308   2 C  s                67     -4.451765   3 C  s         
    45     -2.096419   2 C  pz               44      1.843332   2 C  py        
    98     -1.634329   4 C  s               156     -1.445690  10 H  s         
    82      1.354782   3 C  d -2             74     -1.332103   3 C  px        
   144      1.334852   8 H  s                43     -1.282836   2 C  px        
 
 Vector   59  Occ=0.000000D+00  E= 1.041792D+00
              MO Center=  7.0D-01, -1.6D-01, -4.6D-01, r^2= 4.2D+00
   Bfn.  Coefficient  Atom+Function         Bfn.  Coefficient  Atom+Function  
  ----- ------------  ---------------      ----- ------------  ---------------
    35      2.732762   2 C  s                36      2.581098   2 C  s         
    66     -2.405443   3 C  s               150      1.968213   9 H  s         
   144     -1.902838   8 H  s                 5     -1.863613   1 O  s         
   117      1.714959   4 C  d  2             41      1.564736   2 C  py        
    44      1.336831   2 C  py               72      1.263361   3 C  py        
 
 Vector   60  Occ=0.000000D+00  E= 1.079177D+00
              MO Center=  6.7D-01,  1.2D-02, -7.0D-02, r^2= 4.1D+00
   Bfn.  Coefficient  Atom+Function         Bfn.  Coefficient  Atom+Function  
  ----- ------------  ---------------      ----- ------------  ---------------
    98      4.168849   4 C  s                66     -4.004872   3 C  s         
    45      3.815412   2 C  pz               97      3.727434   4 C  s         
    36     -3.385766   2 C  s                41      2.553203   2 C  py        
   104      2.533939   4 C  pz               42      2.371772   2 C  pz        
    72      2.323358   3 C  py               53     -2.209148   2 C  d  0      
 
 Vector   61  Occ=0.000000D+00  E= 1.104900D+00
              MO Center=  3.7D-01,  5.7D-02,  6.5D-02, r^2= 3.8D+00
   Bfn.  Coefficient  Atom+Function         Bfn.  Coefficient  Atom+Function  
  ----- ------------  ---------------      ----- ------------  ---------------
    36      7.584761   2 C  s                67     -5.267216   3 C  s         
    98     -2.989397   4 C  s                66      2.160769   3 C  s         
   126     -2.033162   5 H  s                45     -1.966632   2 C  pz        
   132      1.672824   6 H  s                72     -1.623778   3 C  py        
    41     -1.500251   2 C  py               53      1.473118   2 C  d  0      
 
 Vector   62  Occ=0.000000D+00  E= 1.147508D+00
              MO Center=  6.3D-01,  2.2D-03, -3.6D-02, r^2= 3.5D+00
   Bfn.  Coefficient  Atom+Function         Bfn.  Coefficient  Atom+Function  
  ----- ------------  ---------------      ----- ------------  ---------------
    67      5.057641   3 C  s                36     -3.869892   2 C  s         
    44     -2.341211   2 C  py              126      1.808585   5 H  s         
    97     -1.697539   4 C  s                54      1.552782   2 C  d  1      
    43      1.500044   2 C  px               55      1.497316   2 C  d  2      
    75     -1.406707   3 C  py               42     -1.397571   2 C  pz        
 
 Vector   63  Occ=0.000000D+00  E= 1.214810D+00
              MO Center=  5.5D-01,  2.0D-01, -1.4D-01, r^2= 3.8D+00
   Bfn.  Coefficient  Atom+Function         Bfn.  Coefficient  Atom+Function  
  ----- ------------  ---------------      ----- ------------  ---------------
    36      6.742991   2 C  s                66     -4.997494   3 C  s         
    97     -3.392400   4 C  s                67     -3.307886   3 C  s         
    35      3.170718   2 C  s                72      1.928122   3 C  py        
    51     -1.760097   2 C  d -2             52      1.693952   2 C  d -1      
   138      1.666161   7 H  s                41      1.505294   2 C  py        
 
 Vector   64  Occ=0.000000D+00  E= 1.348533D+00
              MO Center=  3.5D-01,  5.4D-01,  2.2D-01, r^2= 3.6D+00
   Bfn.  Coefficient  Atom+Function         Bfn.  Coefficient  Atom+Function  
  ----- ------------  ---------------      ----- ------------  ---------------
    66      4.727933   3 C  s                35      3.878628   2 C  s         
    67     -3.157478   3 C  s                36     -2.640577   2 C  s         
    65     -2.417166   3 C  s               132     -2.037404   6 H  s         
    34     -1.438998   2 C  s               133      1.413769   6 H  s         
    72      1.354603   3 C  py              139      1.098637   7 H  s         
 
 Vector   65  Occ=0.000000D+00  E= 1.415868D+00
              MO Center=  1.5D-01,  5.2D-01, -4.6D-02, r^2= 3.4D+00
   Bfn.  Coefficient  Atom+Function         Bfn.  Coefficient  Atom+Function  
  ----- ------------  ---------------      ----- ------------  ---------------
    36      4.297506   2 C  s                66      3.888279   3 C  s         
    67     -3.849435   3 C  s                35     -3.823168   2 C  s         
    73     -2.316331   3 C  pz              138     -2.253247   7 H  s         
   139      2.201566   7 H  s               126      1.779921   5 H  s         
    76      1.665965   3 C  pz               65     -1.575343   3 C  s         
 
 Vector   66  Occ=0.000000D+00  E= 1.432759D+00
              MO Center=  1.1D+00, -4.4D-01, -1.1D+00, r^2= 3.6D+00
   Bfn.  Coefficient  Atom+Function         Bfn.  Coefficient  Atom+Function  
  ----- ------------  ---------------      ----- ------------  ---------------
    98      9.933898   4 C  s                97     -7.509224   4 C  s         
    96      3.035559   4 C  s                36     -2.560088   2 C  s         
   145     -2.407894   8 H  s               151     -2.241116   9 H  s         
   157     -2.072520  10 H  s               144      1.749070   8 H  s         
   150      1.582936   9 H  s               104      1.454901   4 C  pz        
 
 Vector   67  Occ=0.000000D+00  E= 1.441960D+00
              MO Center=  3.9D-01,  9.9D-03, -2.2D-01, r^2= 4.2D+00
   Bfn.  Coefficient  Atom+Function         Bfn.  Coefficient  Atom+Function  
  ----- ------------  ---------------      ----- ------------  ---------------
    66      4.303080   3 C  s                67     -2.959427   3 C  s         
    98      2.926806   4 C  s                35     -2.906410   2 C  s         
    36      1.971408   2 C  s               133      1.921017   6 H  s         
    45      1.760984   2 C  pz               76     -1.734893   3 C  pz        
    65     -1.541480   3 C  s               132     -1.506704   6 H  s         
 
 Vector   68  Occ=0.000000D+00  E= 1.446968D+00
              MO Center=  2.9D-01, -2.5D-02, -8.8D-02, r^2= 3.1D+00
   Bfn.  Coefficient  Atom+Function         Bfn.  Coefficient  Atom+Function  
  ----- ------------  ---------------      ----- ------------  ---------------
    98      5.482459   4 C  s                97     -2.998055   4 C  s         
    36     -2.655443   2 C  s                45      2.173665   2 C  pz        
     5      1.968853   1 O  s                35     -1.604797   2 C  s         
   127     -1.395528   5 H  s                96      1.261796   4 C  s         
    76     -1.076932   3 C  pz               42     -1.027023   2 C  pz        
 
 Vector   69  Occ=0.000000D+00  E= 1.474778D+00
              MO Center=  9.4D-01, -2.5D-01, -9.7D-01, r^2= 3.5D+00
   Bfn.  Coefficient  Atom+Function         Bfn.  Coefficient  Atom+Function  
  ----- ------------  ---------------      ----- ------------  ---------------
    66      2.139187   3 C  s                36      1.568664   2 C  s         
    67     -1.432317   3 C  s                 5     -1.198676   1 O  s         
   103      1.087878   4 C  py              133      0.926916   6 H  s         
    65     -0.916715   3 C  s                71     -0.895653   3 C  px        
    98     -0.883183   4 C  s                97      0.866651   4 C  s         
 
 Vector   70  Occ=0.000000D+00  E= 1.477500D+00
              MO Center=  9.7D-01, -3.8D-01, -9.9D-01, r^2= 3.4D+00
   Bfn.  Coefficient  Atom+Function         Bfn.  Coefficient  Atom+Function  
  ----- ------------  ---------------      ----- ------------  ---------------
    36      2.702291   2 C  s               156     -2.699194  10 H  s         
   102     -2.135169   4 C  px              157      2.059335  10 H  s         
   104     -1.818996   4 C  pz              126      1.746952   5 H  s         
    66     -1.736373   3 C  s               103      1.522355   4 C  py        
    35     -1.389517   2 C  s               127     -1.366467   5 H  s         
 
 Vector   71  Occ=0.000000D+00  E= 1.512929D+00
              MO Center=  3.1D-01,  1.6D-01, -3.1D-01, r^2= 4.0D+00
   Bfn.  Coefficient  Atom+Function         Bfn.  Coefficient  Atom+Function  
  ----- ------------  ---------------      ----- ------------  ---------------
    98      2.681888   4 C  s               144      1.818177   8 H  s         
   102     -1.496623   4 C  px              145     -1.390097   8 H  s         
   103     -1.355721   4 C  py               45      1.278917   2 C  pz        
    97     -1.236589   4 C  s               150     -0.926111   9 H  s         
    36     -0.896841   2 C  s                66      0.825718   3 C  s         
 
 Vector   72  Occ=0.000000D+00  E= 1.543110D+00
              MO Center=  3.8D-01,  4.3D-01, -2.2D-01, r^2= 4.7D+00
   Bfn.  Coefficient  Atom+Function         Bfn.  Coefficient  Atom+Function  
  ----- ------------  ---------------      ----- ------------  ---------------
    36      4.299536   2 C  s                35     -3.672062   2 C  s         
    98     -3.523472   4 C  s                97      3.078560   4 C  s         
    67     -2.438694   3 C  s                73      2.122711   3 C  pz        
   132     -1.739465   6 H  s               133      1.431136   6 H  s         
   102     -1.409868   4 C  px              138      1.347891   7 H  s         
 
 Vector   73  Occ=0.000000D+00  E= 1.577865D+00
              MO Center=  4.9D-01, -4.3D-02, -9.2D-02, r^2= 3.2D+00
   Bfn.  Coefficient  Atom+Function         Bfn.  Coefficient  Atom+Function  
  ----- ------------  ---------------      ----- ------------  ---------------
    35      3.718734   2 C  s                36     -3.030395   2 C  s         
    40     -2.138492   2 C  px               97     -2.015124   4 C  s         
    67      1.981877   3 C  s               126      1.805593   5 H  s         
    72      1.682178   3 C  py               34     -1.522142   2 C  s         
    42     -1.456364   2 C  pz               98      1.452709   4 C  s         
 
 Vector   74  Occ=0.000000D+00  E= 1.597020D+00
              MO Center=  3.4D-01,  3.8D-01, -1.5D-01, r^2= 3.4D+00
   Bfn.  Coefficient  Atom+Function         Bfn.  Coefficient  Atom+Function  
  ----- ------------  ---------------      ----- ------------  ---------------
    66     -5.315986   3 C  s                36     -5.271342   2 C  s         
    35      5.031574   2 C  s                67      3.944707   3 C  s         
    41      3.766599   2 C  py               71     -2.576519   3 C  px        
    72      2.424838   3 C  py               40     -2.016361   2 C  px        
    98      1.772995   4 C  s                82      1.686295   3 C  d -2      
 
 Vector   75  Occ=0.000000D+00  E= 1.641318D+00
              MO Center=  4.5D-01,  1.9D-01, -1.9D-02, r^2= 3.7D+00
   Bfn.  Coefficient  Atom+Function         Bfn.  Coefficient  Atom+Function  
  ----- ------------  ---------------      ----- ------------  ---------------
    66      2.703886   3 C  s                35      2.211879   2 C  s         
    98      2.026659   4 C  s                 5     -1.818197   1 O  s         
    97     -1.663217   4 C  s                67     -1.341085   3 C  s         
   144      1.122960   8 H  s               104     -1.111820   4 C  pz        
   103     -1.098309   4 C  py              150     -1.074633   9 H  s         
 
 Vector   76  Occ=0.000000D+00  E= 1.695799D+00
              MO Center=  5.8D-01,  9.9D-02, -4.2D-01, r^2= 3.7D+00
   Bfn.  Coefficient  Atom+Function         Bfn.  Coefficient  Atom+Function  
  ----- ------------  ---------------      ----- ------------  ---------------
    97     -5.411918   4 C  s                35      5.126422   2 C  s         
   104     -2.793556   4 C  pz               42     -2.722262   2 C  pz        
   102      1.847048   4 C  px               66     -1.632797   3 C  s         
    40      1.619810   2 C  px               34     -1.489852   2 C  s         
    96      1.484474   4 C  s                54      1.102689   2 C  d  1      
 
 Vector   77  Occ=0.000000D+00  E= 1.699698D+00
              MO Center= -6.1D-02,  3.1D-01, -7.7D-02, r^2= 3.7D+00
   Bfn.  Coefficient  Atom+Function         Bfn.  Coefficient  Atom+Function  
  ----- ------------  ---------------      ----- ------------  ---------------
     5      3.903723   1 O  s                72      3.277665   3 C  py        
    36     -2.436634   2 C  s                97      2.106148   4 C  s         
   138     -1.967304   7 H  s                66     -1.831719   3 C  s         
    42      1.628266   2 C  pz               12      1.501058   1 O  px        
    41      1.426282   2 C  py              104      1.407240   4 C  pz        
 
 Vector   78  Occ=0.000000D+00  E= 1.790040D+00
              MO Center=  4.0D-01,  2.6D-01,  2.4D-02, r^2= 3.5D+00
   Bfn.  Coefficient  Atom+Function         Bfn.  Coefficient  Atom+Function  
  ----- ------------  ---------------      ----- ------------  ---------------
    35      3.069287   2 C  s                97     -2.789502   4 C  s         
    36      1.716813   2 C  s                45     -1.302784   2 C  pz        
   104     -1.173583   4 C  pz               67     -1.084688   3 C  s         
    42     -1.053930   2 C  pz               72      0.995709   3 C  py        
   102      0.955882   4 C  px               96      0.905173   4 C  s         
 
 Vector   79  Occ=0.000000D+00  E= 1.815428D+00
              MO Center= -6.3D-01,  1.8D-01,  1.9D-01, r^2= 2.6D+00
   Bfn.  Coefficient  Atom+Function         Bfn.  Coefficient  Atom+Function  
  ----- ------------  ---------------      ----- ------------  ---------------
    35      4.125220   2 C  s                 5     -3.320512   1 O  s         
    40     -2.454067   2 C  px               41      2.124491   2 C  py        
    72      2.007597   3 C  py               66     -1.801369   3 C  s         
    71     -1.672556   3 C  px               12     -1.385972   1 O  px        
   132     -1.059258   6 H  s               138     -1.035149   7 H  s         
 
 Vector   80  Occ=0.000000D+00  E= 1.841970D+00
              MO Center=  7.8D-02,  2.9D-01, -7.3D-02, r^2= 3.7D+00
   Bfn.  Coefficient  Atom+Function         Bfn.  Coefficient  Atom+Function  
  ----- ------------  ---------------      ----- ------------  ---------------
    35      1.663579   2 C  s                36     -1.193851   2 C  s         
   156     -0.958470  10 H  s               104     -0.808105   4 C  pz        
    71     -0.707476   3 C  px               67      0.676131   3 C  s         
    41     -0.665727   2 C  py              157      0.663433  10 H  s         
   126     -0.633208   5 H  s                97     -0.625401   4 C  s         
 
 Vector   81  Occ=0.000000D+00  E= 1.867854D+00
              MO Center=  5.3D-01,  1.7D-01, -4.5D-01, r^2= 4.0D+00
   Bfn.  Coefficient  Atom+Function         Bfn.  Coefficient  Atom+Function  
  ----- ------------  ---------------      ----- ------------  ---------------
    35      6.591688   2 C  s                66     -4.341603   3 C  s         
    72      3.472860   3 C  py               97     -3.303733   4 C  s         
    36      2.116469   2 C  s               104     -1.896291   4 C  pz        
    34     -1.634177   2 C  s                67     -1.567778   3 C  s         
    41      1.515749   2 C  py               45     -1.371037   2 C  pz        
 
 Vector   82  Occ=0.000000D+00  E= 1.921632D+00
              MO Center=  3.1D-01, -1.5D-01, -3.0D-01, r^2= 3.2D+00
   Bfn.  Coefficient  Atom+Function         Bfn.  Coefficient  Atom+Function  
  ----- ------------  ---------------      ----- ------------  ---------------
    36      1.501099   2 C  s                98     -1.447843   4 C  s         
    45     -1.272933   2 C  pz               97     -1.222817   4 C  s         
   103     -1.221550   4 C  py               35      1.041855   2 C  s         
    66     -0.877102   3 C  s                42     -0.817946   2 C  pz        
    41      0.759400   2 C  py              150     -0.743927   9 H  s         
 
 Vector   83  Occ=0.000000D+00  E= 1.991120D+00
              MO Center=  7.8D-01, -1.8D-01, -2.9D-01, r^2= 3.4D+00
   Bfn.  Coefficient  Atom+Function         Bfn.  Coefficient  Atom+Function  
  ----- ------------  ---------------      ----- ------------  ---------------
    35      3.195515   2 C  s                98      3.184506   4 C  s         
    66     -2.622909   3 C  s                40     -2.276149   2 C  px        
    72      1.897840   3 C  py               41      1.694014   2 C  py        
    43     -1.553599   2 C  px               67     -1.418144   3 C  s         
    71     -1.373405   3 C  px              126      1.215800   5 H  s         
 
 Vector   84  Occ=0.000000D+00  E= 1.993846D+00
              MO Center=  6.7D-01, -1.4D-01, -8.0D-01, r^2= 3.5D+00
   Bfn.  Coefficient  Atom+Function         Bfn.  Coefficient  Atom+Function  
  ----- ------------  ---------------      ----- ------------  ---------------
    36      4.555800   2 C  s                98     -4.172774   4 C  s         
    35     -2.247193   2 C  s                45     -2.081297   2 C  pz        
    67     -1.525326   3 C  s               156      1.158117  10 H  s         
   107     -1.095402   4 C  pz              104      1.007199   4 C  pz        
    34      0.879179   2 C  s                66      0.779625   3 C  s         
 
 Vector   85  Occ=0.000000D+00  E= 2.089270D+00
              MO Center= -3.7D-02,  1.7D-01, -1.8D-02, r^2= 3.5D+00
   Bfn.  Coefficient  Atom+Function         Bfn.  Coefficient  Atom+Function  
  ----- ------------  ---------------      ----- ------------  ---------------
    36      2.514374   2 C  s                98     -2.238807   4 C  s         
   138     -0.764490   7 H  s               156      0.756843  10 H  s         
    67     -0.668884   3 C  s                14     -0.608163   1 O  pz        
    40     -0.587355   2 C  px              144      0.565563   8 H  s         
    45     -0.559537   2 C  pz               35     -0.542820   2 C  s         
 
 Vector   86  Occ=0.000000D+00  E= 2.097305D+00
              MO Center= -3.6D-01,  6.1D-02,  4.9D-02, r^2= 3.0D+00
   Bfn.  Coefficient  Atom+Function         Bfn.  Coefficient  Atom+Function  
  ----- ------------  ---------------      ----- ------------  ---------------
    36      5.636422   2 C  s                67     -5.577450   3 C  s         
    35     -3.341682   2 C  s                66      3.341919   3 C  s         
    41     -3.095435   2 C  py               71      2.756982   3 C  px        
    13      1.855912   1 O  py               82     -1.470102   3 C  d -2      
    75      1.337338   3 C  py               43     -1.330616   2 C  px        
 
 Vector   87  Occ=0.000000D+00  E= 2.166840D+00
              MO Center=  5.1D-01, -5.1D-02, -4.9D-01, r^2= 3.2D+00
   Bfn.  Coefficient  Atom+Function         Bfn.  Coefficient  Atom+Function  
  ----- ------------  ---------------      ----- ------------  ---------------
    98      2.154378   4 C  s                67     -1.771996   3 C  s         
    35     -1.178683   2 C  s                73      1.043305   3 C  pz        
   156     -0.864552  10 H  s                40      0.830462   2 C  px        
    44      0.834023   2 C  py               43     -0.812960   2 C  px        
    36      0.806484   2 C  s                42     -0.790082   2 C  pz        
 
 Vector   88  Occ=0.000000D+00  E= 2.200488D+00
              MO Center=  4.3D-01,  2.1D-01, -2.9D-01, r^2= 3.7D+00
   Bfn.  Coefficient  Atom+Function         Bfn.  Coefficient  Atom+Function  
  ----- ------------  ---------------      ----- ------------  ---------------
    98      2.290118   4 C  s                36     -1.511915   2 C  s         
    45      1.122598   2 C  pz               76     -0.966895   3 C  pz        
   132      0.791602   6 H  s               117     -0.635678   4 C  d  2      
    42     -0.625668   2 C  pz              103     -0.627562   4 C  py        
    71      0.581322   3 C  px               97     -0.572401   4 C  s         
 
 Vector   89  Occ=0.000000D+00  E= 2.230447D+00
              MO Center=  6.5D-01,  2.0D-02, -8.1D-02, r^2= 3.5D+00
   Bfn.  Coefficient  Atom+Function         Bfn.  Coefficient  Atom+Function  
  ----- ------------  ---------------      ----- ------------  ---------------
    36      2.923392   2 C  s                67     -1.607726   3 C  s         
     5     -1.145921   1 O  s                42     -1.137240   2 C  pz        
    98     -0.978558   4 C  s                72     -0.908251   3 C  py        
   102      0.751971   4 C  px               43     -0.702077   2 C  px        
    66      0.705505   3 C  s                51      0.656802   2 C  d -2      
 
 Vector   90  Occ=0.000000D+00  E= 2.243101D+00
              MO Center=  7.6D-01, -2.5D-01, -7.8D-01, r^2= 3.6D+00
   Bfn.  Coefficient  Atom+Function         Bfn.  Coefficient  Atom+Function  
  ----- ------------  ---------------      ----- ------------  ---------------
   150      1.336343   9 H  s                36      1.258445   2 C  s         
    66     -0.895214   3 C  s               144     -0.884779   8 H  s         
    67     -0.846135   3 C  s                98     -0.822675   4 C  s         
   117      0.814469   4 C  d  2             72      0.760912   3 C  py        
    83      0.517836   3 C  d -1            138      0.504150   7 H  s         
 
 Vector   91  Occ=0.000000D+00  E= 2.266722D+00
              MO Center=  9.2D-01, -2.6D-01, -1.1D+00, r^2= 3.1D+00
   Bfn.  Coefficient  Atom+Function         Bfn.  Coefficient  Atom+Function  
  ----- ------------  ---------------      ----- ------------  ---------------
    66      2.334370   3 C  s                36      2.049106   2 C  s         
    41     -1.558091   2 C  py               67     -1.445338   3 C  s         
    35     -1.275010   2 C  s                98     -1.186546   4 C  s         
    72     -1.062793   3 C  py               71      0.902605   3 C  px        
   156      0.901782  10 H  s               126     -0.892412   5 H  s         
 
 Vector   92  Occ=0.000000D+00  E= 2.281607D+00
              MO Center=  5.3D-01,  8.5D-02, -2.5D-01, r^2= 3.6D+00
   Bfn.  Coefficient  Atom+Function         Bfn.  Coefficient  Atom+Function  
  ----- ------------  ---------------      ----- ------------  ---------------
    98      3.621034   4 C  s                36     -2.451095   2 C  s         
[...]
    21     -0.871926   1 O  d -1             42     -0.807643   2 C  pz        
    97     -0.720627   4 C  s                45     -0.701696   2 C  pz        
    98     -0.520685   4 C  s                 5     -0.514248   1 O  s         
    67     -0.507312   3 C  s                83     -0.491066   3 C  d -1      
 
 Vector  154  Occ=0.000000D+00  E= 6.676618D+00
              MO Center= -8.7D-01, -1.8D-01,  2.0D-01, r^2= 5.7D-01
   Bfn.  Coefficient  Atom+Function         Bfn.  Coefficient  Atom+Function  
  ----- ------------  ---------------      ----- ------------  ---------------
    18      1.062785   1 O  d  1             23     -1.037238   1 O  d  1      
    97     -0.862513   4 C  s                42     -0.780227   2 C  pz        
    35      0.765788   2 C  s               102      0.644097   4 C  px        
    54     -0.546218   2 C  d  1             14      0.405490   1 O  pz        
    16     -0.391042   1 O  d -1             11      0.389077   1 O  pz        
 
 Vector  155  Occ=0.000000D+00  E= 6.842171D+00
              MO Center= -8.8D-01, -1.9D-01,  2.0D-01, r^2= 5.9D-01
   Bfn.  Coefficient  Atom+Function         Bfn.  Coefficient  Atom+Function  
  ----- ------------  ---------------      ----- ------------  ---------------
     5      2.111205   1 O  s                40      1.771037   2 C  px        
     9      1.363543   1 O  px               97     -1.279208   4 C  s         
     4      1.206410   1 O  s                20      1.046679   1 O  d -2      
    42     -0.974499   2 C  pz               35     -0.854126   2 C  s         
    12      0.847548   1 O  px               15     -0.832148   1 O  d -2      
 
 Vector  156  Occ=0.000000D+00  E= 7.055573D+00
              MO Center= -8.9D-01, -1.8D-01,  2.0D-01, r^2= 6.4D-01
   Bfn.  Coefficient  Atom+Function         Bfn.  Coefficient  Atom+Function  
  ----- ------------  ---------------      ----- ------------  ---------------
    66     -3.174460   3 C  s                35      3.027481   2 C  s         
    40     -2.723615   2 C  px               72      2.689374   3 C  py        
    24     -1.575521   1 O  d  2             36      1.444910   2 C  s         
    10      1.284020   1 O  py               67     -1.288635   3 C  s         
    19      1.014750   1 O  d  2             13      0.866590   1 O  py        
 
 Vector  157  Occ=0.000000D+00  E= 2.194045D+01
              MO Center=  8.4D-02,  7.7D-01,  4.5D-02, r^2= 1.2D+00
   Bfn.  Coefficient  Atom+Function         Bfn.  Coefficient  Atom+Function  
  ----- ------------  ---------------      ----- ------------  ---------------
    64      1.578787   3 C  s                65     -1.343618   3 C  s         
    67     -1.270288   3 C  s                63     -1.244320   3 C  s         
    98      1.065068   4 C  s                95     -0.766157   4 C  s         
    96      0.628104   4 C  s                94      0.606071   4 C  s         
    35      0.478319   2 C  s                40     -0.479005   2 C  px        
 
 Vector  158  Occ=0.000000D+00  E= 2.198214D+01
              MO Center=  8.9D-01, -2.5D-01, -7.2D-01, r^2= 1.1D+00
   Bfn.  Coefficient  Atom+Function         Bfn.  Coefficient  Atom+Function  
  ----- ------------  ---------------      ----- ------------  ---------------
    95      1.427697   4 C  s                96     -1.319048   4 C  s         
    98     -1.147922   4 C  s                94     -1.123225   4 C  s         
    34     -0.953447   2 C  s                36     -0.898062   2 C  s         
    33      0.868380   2 C  s                32     -0.678427   2 C  s         
    65     -0.649435   3 C  s                64      0.599067   3 C  s         
 
 Vector  159  Occ=0.000000D+00  E= 2.210126D+01
              MO Center=  6.1D-01, -1.1D-01, -6.8D-02, r^2= 6.9D-01
   Bfn.  Coefficient  Atom+Function         Bfn.  Coefficient  Atom+Function  
  ----- ------------  ---------------      ----- ------------  ---------------
    36      2.188749   2 C  s                33     -1.544186   2 C  s         
    34      1.530094   2 C  s                35     -1.342736   2 C  s         
    98     -1.287271   4 C  s                32      1.209291   2 C  s         
    67     -1.159640   3 C  s                95      0.708899   4 C  s         
    97      0.694433   4 C  s                96     -0.639981   4 C  s         
 
 Vector  160  Occ=0.000000D+00  E= 4.341456D+01
              MO Center= -8.8D-01, -1.8D-01,  2.0D-01, r^2= 1.2D-01
   Bfn.  Coefficient  Atom+Function         Bfn.  Coefficient  Atom+Function  
  ----- ------------  ---------------      ----- ------------  ---------------
     4      2.506650   1 O  s                 3     -1.874439   1 O  s         
     2      1.731539   1 O  s                 1     -1.395843   1 O  s         
     5     -0.881003   1 O  s                36      0.838730   2 C  s         
     9      0.561729   1 O  px               66     -0.516759   3 C  s         
    40      0.464218   2 C  px               72      0.457082   3 C  py        
 

 center of mass
 --------------
 x =   0.30619295 y =   0.09486566 z =  -0.27792462

 moments of inertia (a.u.)
 ------------------
         199.995777332926          45.632321359115          83.748900922668
          45.632321359115         248.018252096514         -52.657650623563
          83.748900922668         -52.657650623563         238.928163277317
 
     Multipole analysis of the density
     ---------------------------------
 
     L   x y z        total         alpha         beta         nuclear
     -   - - -        -----         -----         ----         -------
     0   0 0 0     -0.000000    -16.000000    -16.000000     32.000000
 
     1   1 0 0      0.691493     -6.225844     -6.225844     13.143182
     1   0 1 0      0.324983     -1.620081     -1.620081      3.565146
     1   0 0 1     -0.056667      5.321414      5.321414    -10.699494
 
     2   2 0 0    -20.031484    -54.361173    -54.361173     88.690861
     2   1 1 0     -1.106665     13.884860     13.884860    -28.876385
     2   1 0 1      0.152322     26.480935     26.480935    -52.809548
     2   0 2 0    -17.835409    -40.472529    -40.472529     63.109648
     2   0 1 1      0.248545    -15.404322    -15.404322     31.057189
     2   0 0 2    -18.196378    -45.742599    -45.742599     73.288821
 
 *** CALLING NEW AORESP DRIVER FOR CLOSED AND OPEN SHELLS ***
 Entering AOResponse driver routine


--------------------------------------------------------------------------------

          ****************
          *** RESPONSE ***
          ****************

 Response module for NWChem and dynamic CPKS solver
 developed by J. Autschbach and coworkers, SUNY Buffalo
 The methodology used in this program is described in 
 ChemPhysChem 12 (2011), 3224-3235 (main reference)
 J. Chem. Phys. 123 (2005), 114103
 J. Chem. Phys. 122 (2005), 224115
 J. Chem. Phys. 122 (2005), 074105
 Comp. Lett. 3 (2007), 131-150 (contact JA for a copy)
 Please cite this work in publications based on results
 obtained with this code. Thank you!

 For extension of response module to open shell
 calculations please acknowledge:
 F. Aquino, Northwestern University, Schatz Rsrch Group
 The update to the methodology is described in
 J. Phys. Chem. A 118 (2014) 517-525



          -----------------------------------------------
          Solving response equations for perturbing field
          -----------------------------------------------

 number of frequencies:     1
 frequency in a.u.:  0.9319600E-01
 Perturbing field: electric
 Using GIAO formalism for OptRot
 Adding quadrupole terms to OptRot
 to create an origin in dependent tensor.
 Using El. Dipole Length Gauge
 
 Applying DAMPING constant of  0.003700 a.u.
 
 Setting up CPKS
 with frequency omega =      0.09319600 a.u.
 and a damping of            0.00370000 a.u.

 
                            NWChem Dynamic CPHF Module
                            --------------------------
 
 
    scftype = RHF 
    nclosed =   16
      nopen =    0
  variables =     9216
  num. vecs =        3
  tolerance =   1.0D-07
  max. iter =  100

 SCF residual:   4.305533902431252E-006


Iterative solution of linear equations
  No. of variables     4608
  No. of equations        3
  Maximum subspace       99
       Convergence  1.0D-07
        Start time     86.4


   iter   nsub   residual    time 
   ----  ------  --------  --------- 
 dft_CPHF2_read: failed to open
 ./methyloxirane_blyp-def2-tzvp_488.9_01.inp.aoresp_fiao_f1
     1      3    3.75D+00     130.2
     2      6    2.71D+00     174.0
     3      9    2.46D-01     217.9
     4     12    5.29D-02     262.1
     5     15    1.04D-02     306.0
     6     18    1.29D-03     349.8
     7     21    1.45D-04     393.6
     8     24    1.38D-05     437.6
     9     27    1.27D-06     481.7
    10     30    4.90D-07     525.6
    11     33    1.28D-08     569.6

 Calculating some arrays needed for GIAO optical rotation

    0 giaofock schwarz done =      92.56%
    0 giaofock schwarz done =      93.67%
 aor_r1_tensor_giao: roadata output requested
 dip-quad polarizability Re:

              1        2        3        4        5        6      
    1   77.0948  -6.0961 -27.8416  -4.0896   1.1631   9.0764
    2  -11.6980  26.0193   3.3962  23.4673 -21.4529   4.0287
    3   -6.8643   1.0957  39.2643  -0.0006  13.9890 -40.8921
 traceless dip-quad polarizability:

              1        2        3      
    1   74.6014  -9.1442 -41.7624
    2   -9.1442 -47.1752   1.7446
    3  -41.7624   1.7446 -27.4262

              1        2        3      
    1  -25.4460  39.0290   5.0944
    2   39.0290  27.3019 -32.1794
    3    5.0944 -32.1794  -1.8560

              1        2        3      
    1   13.5821   1.6436  58.8964
    2    1.6436  23.8776  20.9835
    3   58.8964  20.9835 -37.4596

 roa begin

 alpha real:
 XX       0.4099471818751E+02
 XY      -0.5180111377912E+01
 XZ      -0.3035176727830E+01
 YX      -0.5180111386898E+01
 YY       0.4404293412460E+02
 YZ       0.3173612281356E+01
 ZX      -0.3035176736356E+01
 ZY       0.3173612280941E+01
 ZZ       0.4148601028267E+02

 alpha im:
 XX       0.1109109429638E+00
 XY      -0.2988034029570E-01
 XZ      -0.1120974740699E-01
 YX      -0.2988033685131E-01
 YY       0.1291478213858E+00
 YZ       0.1836790052916E-01
 ZX      -0.1120974336720E-01
 ZY       0.1836790044927E-01
 ZZ       0.1228381768911E+00

 beta real:
 XX      -0.1430149007999E+00
 XY       0.9404844587618E+00
 XZ       0.1966097143038E+00
 YX      -0.8858643944130E+00
 YY       0.1429059176186E+00
 YZ      -0.1545239157845E+01
 ZX      -0.4831973767532E+00
 ZY       0.1871136955391E+01
 ZZ      -0.1916199337574E-02

 G-prime = -omega beta(real):
 XX      -0.1430149007999E+00
 XY       0.9404844587618E+00
 XZ       0.1966097143038E+00
 YX      -0.8858643944130E+00
 YY       0.1429059176186E+00
 YZ      -0.1545239157845E+01
 ZX      -0.4831973767532E+00
 ZY       0.1871136955391E+01
 ZZ      -0.1916199337574E-02

 beta im:
 XX      -0.6179962249296E-02
 XY       0.1335957810280E-01
 XZ       0.2685690591948E-02
 YX      -0.7550051179217E-02
 YY       0.4682759566618E-02
 YZ      -0.2340497881819E-01
 ZX      -0.1361339833082E-01
 ZY       0.4028053678517E-01
 ZZ       0.7207519695737E-03

 G-prime = -omega beta(imag):
 XX      -0.6179962249296E-02
 XY       0.1335957810280E-01
 XZ       0.2685690591948E-02
 YX      -0.7550051179217E-02
 YY       0.4682759566618E-02
 YZ      -0.2340497881819E-01
 ZX      -0.1361339833082E-01
 ZY       0.4028053678517E-01
 ZZ       0.7207519695737E-03

 dipole-quadrupole real (Cartesian):
 XXX      0.7709480110946E+02
 XXY     -0.6096120435230E+01
 XXZ     -0.2784157355380E+02
 XYY     -0.4089644210261E+01
 XYZ      0.1163071443912E+01
 XZZ      0.9076408224767E+01
 YXX     -0.1169795793755E+02
 YXY      0.2601932772860E+02
 YXZ      0.3396241129599E+01
 YYY      0.2346731936919E+02
 YYZ     -0.2145292099108E+02
 YZZ      0.4028729788089E+01
 ZXX     -0.6864329410517E+01
 ZXY      0.1095701398006E+01
 ZXZ      0.3926426645739E+02
 ZYY     -0.6446460528355E-03
 ZYZ      0.1398901218672E+02
 ZZZ     -0.4089212849255E+02

 dipole-quadrupole imag (Cartesian):
 XXX      0.2694450784205E+00
 XXY     -0.3397954294937E-01
 XXZ     -0.7805651452875E-01
 XYY     -0.2732656721490E-01
 XYZ      0.1784710488642E-02
 XZZ      0.6055170778136E-01
 YXX     -0.5679822923324E-01
 YXY      0.6394183521905E-01
 YXZ      0.1977084003760E-01
 YYY      0.9321438788868E-01
 YYZ     -0.6016912776553E-01
 YZZ      0.9646954943167E-02
 ZXX     -0.3526240872102E-01
 ZXY     -0.7439974832624E-04
 ZXZ      0.1455503949315E+00
 ZYY      0.6006761987540E-02
 ZYZ      0.6677639082280E-01
 ZZZ     -0.9437834580977E-01

 dipole-quadrupole (traceless):
 XXX      0.7460141910221E+02
 XXY     -0.9144180652845E+01
 XXZ     -0.4176236033070E+02
 XYY     -0.4717524887738E+02
 XYZ      0.1744607165868E+01
 XZZ     -0.2742617022483E+02
 YXX     -0.2544598251619E+02
 YXY      0.3902899159290E+02
 YXZ      0.5094361694399E+01
 YYY      0.2730193344392E+02
 YYZ     -0.3217938148662E+02
 YZZ     -0.1855950927729E+01
 ZXX      0.1358205715879E+02
 ZXY      0.1643552097009E+01
 ZXZ      0.5889639968609E+02
 ZYY      0.2387758430548E+02
 ZYZ      0.2098351828007E+02
 ZZZ     -0.3745964146427E+02

 roa end


 Electric Dipole Response Matrix (nonzero elements):

              1        2        3      
    1   40.9947  -5.1801  -3.0352
    2   -5.1801  44.0429   3.1736
    3   -3.0352   3.1736  41.4860
 
 Imaginary part:

              1        2        3      
    1    0.1109  -0.0299  -0.0112
    2   -0.0299   0.1291   0.0184
    3   -0.0112   0.0184   0.1228

 ------------------------------------------
 average:        42.17455 + I       0.12097


 DFT Linear Response polarizability / au 
 Frequency  =       0.0931960 / au
 Wavelength =     488.8981609 / nm
              X              Y              Z
 -----------------------------------------------
 X      40.9947182     -5.1801114     -3.0351767
 Y      -5.1801114     44.0429341      3.1736123
 Z      -3.0351767      3.1736123     41.4860103
 -----------------------------------------------
 Eigenvalues =      37.0164703     50.1240495     39.3831428
 Isotropic   =      42.1745542
 Anisotropic =       9.8788806
 -----------------------------------------------
 *************************

 DFT Linear Response IMAG polarizability / au 
 Frequency  =       0.0931960 / au
 Wavelength =     488.8981609 / nm
              X              Y              Z
 -----------------------------------------------
 X       0.1109109     -0.0298803     -0.0112097
 Y      -0.0298803      0.1291478      0.0183679
 Z      -0.0112097      0.0183679      0.1228382
 -----------------------------------------------
 Eigenvalues =       0.0886514      0.1627838      0.1114617
 Isotropic   =       0.1209656
 Anisotropic =       0.0536963
 -----------------------------------------------
 *************************

 Magnetic Dipole Response Matrix (nonzero elements):
 Optical rotation tensor Beta
 (Buckingham-Dunn version including dipole-quadrupole terms)

              1        2        3      
    1    2.6848  -0.4118   0.4479
    2   -0.4118  -1.5671  -1.7287
    3    0.4479  -1.7287  -1.0960
 
 Imaginary part:

              1        2        3      
    1    0.0663  -0.1433  -0.0288
    2    0.0810  -0.0502   0.2511
    3    0.1461  -0.4322  -0.0077

 ------------------------------------------
 average:         0.00724 + I       0.00278

 Principal components and PAS (Real part)
                 -3.07630
                  2.83748
                  0.26054
 ------------------------
 average:         0.00724

              1        2        3      
    1    0.0028   0.9699  -0.2434
    2    0.7536  -0.1620  -0.6370
    3    0.6573   0.1816   0.7314

 Chiral response tensor (Real part):

              1        2        3      
    1   -1.3316   0.2059  -0.2240
    2    0.2059   0.7944   0.8644
    3   -0.2240   0.8644   0.5589
 
 Principal components and PAS (Real part)
                  1.54901
                 -1.40788
                 -0.11941
 ------------------------
 average:         0.00724

              1        2        3      
    1    0.0028   0.9699  -0.2434
    2    0.7536  -0.1620  -0.6370
    3    0.6573   0.1816   0.7314
 Exiting AOResponse driver routine

 Task  times  cpu:      555.5s     wall:      563.2s
 
 
                                NWChem Input Module
                                -------------------
 
 
 Summary of allocated global arrays
-----------------------------------
  No active global arrays



                         GA Statistics for process    0
                         ------------------------------

       create   destroy   get      put      acc     scatter   gather  read&inc
calls: 3294     3294     7.61e+06 3.14e+06 7.40e+05 2694        0     1052     
number of processes/call 1.01e+00 1.03e+00 1.43e+00 0.00e+00 0.00e+00
bytes total:             1.73e+09 1.26e+08 1.77e+09 1.84e+02 0.00e+00 8.42e+03
bytes remote:            7.38e+08 3.29e+07 1.02e+09 0.00e+00 0.00e+00 0.00e+00
Max memory consumed for GA by this process: 11242192 bytes
 
MA_summarize_allocated_blocks: starting scan ...
MA_summarize_allocated_blocks: scan completed: 0 heap blocks, 0 stack blocks
MA usage statistics:

	allocation statistics:
					      heap	     stack
					      ----	     -----
	current number of blocks	         0	         0
	maximum number of blocks	        24	        52
	current total bytes		         0	         0
	maximum total bytes		   7519840	  48969464
	maximum total K-bytes		      7520	     48970
	maximum total M-bytes		         8	        49
 
 
                                     CITATION
                                     --------
                Please cite the following reference when publishing
                           results obtained with NWChem:
 
                 M. Valiev, E.J. Bylaska, N. Govind, K. Kowalski,
              T.P. Straatsma, H.J.J. van Dam, D. Wang, J. Nieplocha,
                        E. Apra, T.L. Windus, W.A. de Jong
                 "NWChem: a comprehensive and scalable open-source
                  solution for large scale molecular simulations"
                      Comput. Phys. Commun. 181, 1477 (2010)
                           doi:10.1016/j.cpc.2010.04.018
 
                                      AUTHORS
                                      -------
          E. Apra, E. J. Bylaska, W. A. de Jong, N. Govind, K. Kowalski,
       T. P. Straatsma, M. Valiev, H. J. J. van Dam, D. Wang, T. L. Windus,
        J. Hammond, J. Autschbach, K. Bhaskaran-Nair, J. Brabec, K. Lopata,
    S. A. Fischer, S. Krishnamoorthy, M. Jacquelin, W. Ma, M. Klemm, O. Villa,
      Y. Chen, V. Anisimov, F. Aquino, S. Hirata, M. T. Hackler, V. Konjkov,
            D. Mejia-Rodriguez, T. Risthaus, M. Malagoli, A. Marenich,
   A. Otero-de-la-Roza, J. Mullin, P. Nichols, R. Peverati, J. Pittner, Y. Zhao,
        P.-D. Fan, A. Fonari, M. J. Williamson, R. J. Harrison, J. R. Rehr,
      M. Dupuis, D. Silverstein, D. M. A. Smith, J. Nieplocha, V. Tipparaju,
    M. Krishnan, B. E. Van Kuiken, A. Vazquez-Mayagoitia, L. Jensen, M. Swart,
      Q. Wu, T. Van Voorhis, A. A. Auer, M. Nooijen, L. D. Crosby, E. Brown,
      G. Cisneros, G. I. Fann, H. Fruchtl, J. Garza, K. Hirao, R. A. Kendall,
      J. A. Nichols, K. Tsemekhman, K. Wolinski, J. Anchell, D. E. Bernholdt,
      P. Borowski, T. Clark, D. Clerc, H. Dachsel, M. J. O. Deegan, K. Dyall,
    D. Elwood, E. Glendening, M. Gutowski, A. C. Hess, J. Jaffe, B. G. Johnson,
     J. Ju, R. Kobayashi, R. Kutteh, Z. Lin, R. Littlefield, X. Long, B. Meng,
      T. Nakajima, S. Niu, L. Pollack, M. Rosing, K. Glaesemann, G. Sandrone,
      M. Stave, H. Taylor, G. Thomas, J. H. van Lenthe, A. T. Wong, Z. Zhang.

 Total times  cpu:      623.2s     wall:      632.1s
