 argument  1 = methyloxirane_blyp-def2-tzvp_488.9_39.inp
 


============================== echo of input deck ==============================
echo
start methyloxirane_blyp-def2-tzvp_488.9_39.inp
title "methyloxirane roa calculations at 488.9 nm, input generated in va  with delta_type=2"
charge 0



geometry units angstrom nocenter noautoz noautosym nucleus point;symmetry c1
 O -0.879701 -0.181130  0.205562
 C  0.577715 -0.160942  0.119349
 C -0.185917  1.089913  0.340972
 C  1.182813 -0.518313 -1.209096
 H  1.044475 -0.594234  1.010597
 H -0.230546  1.545704  1.333991
 H -0.323180  1.787517 -0.490174
 H  2.242838 -0.226983 -1.252432
 H  1.153130 -1.604044 -1.378542
 H  0.657679 -0.031815 -2.040344
end

basis spherical
* library def2-TZVP
end

 set prop:newaoresp 1
 set aor:roadata T
 set cphf:maxsub 100
 set cphf:acc 1.0d-10
 set cphf:maxiter 100

property
    response 1   0.093196
    bdtensor
    convergence 1e-7
    damping 0.0037
    giao
end

dft
 direct
 mult 1
 xc becke88 lyp
 iterations 250
 tolerances tight
 grid xfine
 convergence nolevelshifting
 convergence energy 1e-8
 convergence gradient 1e-7


end

task dft gradient
task dft property
================================================================================


                                         
                                         
 
 
              Northwest Computational Chemistry Package (NWChem) 6.8
              ------------------------------------------------------
 
 
                    Environmental Molecular Sciences Laboratory
                       Pacific Northwest National Laboratory
                                Richland, WA 99352
 
                              Copyright (c) 1994-2017
                       Pacific Northwest National Laboratory
                            Battelle Memorial Institute
 
             NWChem is an open-source computational chemistry package
                        distributed under the terms of the
                      Educational Community License (ECL) 2.0
             A copy of the license is included with this distribution
                              in the LICENSE.TXT file
 
                                  ACKNOWLEDGMENT
                                  --------------

            This software and its documentation were developed at the
            EMSL at Pacific Northwest National Laboratory, a multiprogram
            national laboratory, operated for the U.S. Department of Energy
            by Battelle under Contract Number DE-AC05-76RL01830. Support
            for this work was provided by the Department of Energy Office
            of Biological and Environmental Research, Office of Basic
            Energy Sciences, and the Office of Advanced Scientific Computing.


           Job information
           ---------------

    hostname        = cpn-d12-05.cbls.ccr.buffalo.edu
    program         = /util/academic/nwchem/nwchem-6.8/bin/LINUX64/nwchem
    date            = Fri Mar  1 10:38:32 2019

    compiled        = Tue_Nov_06_14:59:08_2018
    source          = /util/academic/nwchem/nwchem-6.8
    nwchem branch   = 6.8
    nwchem revision = v6.8-47-gdf6c956
    ga revision     = ga-5.6.3
    use scalapack   = F
    input           = methyloxirane_blyp-def2-tzvp_488.9_39.inp
    prefix          = methyloxirane_blyp-def2-tzvp_488.9_39.inp.
    data base       = ./methyloxirane_blyp-def2-tzvp_488.9_39.inp.db
    status          = startup
    nproc           =        7
    time left       =     -1s



           Memory information
           ------------------

    heap     =   13107196 doubles =    100.0 Mbytes
    stack    =   13107201 doubles =    100.0 Mbytes
    global   =   26214400 doubles =    200.0 Mbytes (distinct from heap & stack)
    total    =   52428797 doubles =    400.0 Mbytes
    verify   = yes
    hardfail = no 


           Directory information
           ---------------------
 
  0 permanent = .
  0 scratch   = .
 
 
 
 
                                NWChem Input Module
                                -------------------
 
 
                    methyloxirane roa calculations at 488.9 nm, input generated in va  with delta_type=2
                    ------------------------------------------

 Scaling coordinates for geometry "geometry" by  1.889725989
 (inverse scale =  0.529177249)

 
 
                             Geometry "geometry" -> ""
                             -------------------------
 
 Output coordinates in angstroms (scale by  1.889725989 to convert to a.u.)
 
  No.       Tag          Charge          X              Y              Z
 ---- ---------------- ---------- -------------- -------------- --------------
    1 O                    8.0000    -0.87970100    -0.18113000     0.20556200
    2 C                    6.0000     0.57771500    -0.16094200     0.11934900
    3 C                    6.0000    -0.18591700     1.08991300     0.34097200
    4 C                    6.0000     1.18281300    -0.51831300    -1.20909600
    5 H                    1.0000     1.04447500    -0.59423400     1.01059700
    6 H                    1.0000    -0.23054600     1.54570400     1.33399100
    7 H                    1.0000    -0.32318000     1.78751700    -0.49017400
    8 H                    1.0000     2.24283800    -0.22698300    -1.25243200
    9 H                    1.0000     1.15313000    -1.60404400    -1.37854200
   10 H                    1.0000     0.65767900    -0.03181500    -2.04034400
 
      Atomic Mass 
      ----------- 
 
      O                 15.994910
      C                 12.000000
      H                  1.007825
 

 Effective nuclear repulsion energy (a.u.)     123.4492621362

            Nuclear Dipole moment (a.u.) 
            ----------------------------
        X                 Y               Z
 ---------------- ---------------- ----------------
    13.1420124602     3.5735719999   -10.7054073294
 
 
            XYZ format geometry
            -------------------
    10
 geometry
 O                    -0.87970100    -0.18113000     0.20556200
 C                     0.57771500    -0.16094200     0.11934900
 C                    -0.18591700     1.08991300     0.34097200
 C                     1.18281300    -0.51831300    -1.20909600
 H                     1.04447500    -0.59423400     1.01059700
 H                    -0.23054600     1.54570400     1.33399100
 H                    -0.32318000     1.78751700    -0.49017400
 H                     2.24283800    -0.22698300    -1.25243200
 H                     1.15313000    -1.60404400    -1.37854200
 H                     0.65767900    -0.03181500    -2.04034400
 
 ==============================================================================
                                internuclear distances
 ------------------------------------------------------------------------------
       center one      |      center two      | atomic units |  angstroms
 ------------------------------------------------------------------------------
    2 C                |   1 O                |     2.75920  |     1.46010
    3 C                |   1 O                |     2.74838  |     1.45438
    3 C                |   2 C                |     2.80093  |     1.48219
    4 C                |   2 C                |     2.84002  |     1.50287
    5 H                |   2 C                |     2.07003  |     1.09541
    6 H                |   3 C                |     2.06649  |     1.09354
    7 H                |   3 C                |     2.06689  |     1.09375
    8 H                |   4 C                |     2.07905  |     1.10018
    9 H                |   4 C                |     2.07733  |     1.09927
   10 H                |   4 C                |     2.07304  |     1.09700
 ------------------------------------------------------------------------------
                         number of included internuclear distances:         10
 ==============================================================================



 ==============================================================================
                                 internuclear angles
 ------------------------------------------------------------------------------
        center 1       |       center 2       |       center 3       |  degrees
 ------------------------------------------------------------------------------
    2 C                |   1 O                |   3 C                |    61.14
    2 C                |   1 O                |   3 C                |    61.14
    1 O                |   2 C                |   4 C                |   116.79
    1 O                |   2 C                |   5 H                |   111.83
    3 C                |   2 C                |   4 C                |   122.70
    3 C                |   2 C                |   5 H                |   115.57
    4 C                |   2 C                |   5 H                |   116.97
    3 C                |   1 O                |   2 C                |    61.14
    1 O                |   3 C                |   6 H                |   115.43
    1 O                |   3 C                |   7 H                |   115.26
    2 C                |   3 C                |   6 H                |   120.57
    2 C                |   3 C                |   7 H                |   119.29
    6 H                |   3 C                |   7 H                |   114.78
    2 C                |   4 C                |   8 H                |   111.09
    2 C                |   4 C                |   9 H                |   111.12
    2 C                |   4 C                |  10 H                |   111.81
    8 H                |   4 C                |   9 H                |   106.35
    8 H                |   4 C                |  10 H                |   108.30
    9 H                |   4 C                |  10 H                |   107.96
 ------------------------------------------------------------------------------
                            number of included internuclear angles:         19
 ==============================================================================



  warning:::::::::::::: from_environment
  NWCHEM_BASIS_LIBRARY set to: <
 /util/academic/nwchem/nwchem-6.8/src/basis/libraries>
  but file does not exist !
  using .nwchemrc or compiled library


 Summary of "ao basis" -> "" (spherical)
 ------------------------------------------------------------------------------
       Tag                 Description            Shells   Functions and Types
 ---------------- ------------------------------  ------  ---------------------
 *                         def2-TZVP                  on all atoms 


 
                                 NWChem DFT Module
                                 -----------------
 
 
                    methyloxirane roa calculations at 488.9 nm, input generated in va  with delta_type=2
 
 
                      Basis "ao basis" -> "ao basis" (spherical)
                      -----
  O (Oxygen)
  ----------
            Exponent  Coefficients 
       -------------- ---------------------------------------------------------
  1 S  2.70323826E+04  0.000217
  1 S  4.05238714E+03  0.001684
  1 S  9.22327227E+02  0.008740
  1 S  2.61240710E+02  0.035240
  1 S  8.53546414E+01  0.111535
  1 S  3.10350352E+01  0.255890
 
  2 S  1.22608607E+01  0.397687
  2 S  4.99870760E+00  0.246278
 
  3 S  1.17031082E+00  1.000000
 
  4 S  4.64747410E-01  1.000000
 
  5 S  1.85045364E-01  1.000000
 
  6 P  6.32749548E+01  0.006069
  6 P  1.46270494E+01  0.041913
  6 P  4.45012235E+00  0.161538
  6 P  1.52757996E+00  0.357070
 
  7 P  5.29351179E-01  1.000000
 
  8 P  1.74784213E-01  1.000000
 
  9 D  2.31400000E+00  1.000000
 
 10 D  6.45000000E-01  1.000000
 
 11 F  1.42800000E+00  1.000000
 
  C (Carbon)
  ----------
            Exponent  Coefficients 
       -------------- ---------------------------------------------------------
  1 S  1.35753497E+04  0.000222
  1 S  2.03523337E+03  0.001723
  1 S  4.63225624E+02  0.008926
  1 S  1.31200196E+02  0.035728
  1 S  4.28530159E+01  0.110763
  1 S  1.55841858E+01  0.242956
 
  2 S  6.20671385E+00  0.414403
  2 S  2.57648965E+00  0.237450
 
  3 S  5.76963394E-01  1.000000
 
  4 S  2.29728314E-01  1.000000
 
  5 S  9.51644400E-02  1.000000
 
  6 P  3.46972322E+01  0.005333
  6 P  7.95826228E+00  0.035864
  6 P  2.37808269E+00  0.142159
  6 P  8.14332082E-01  0.342705
 
  7 P  2.88875473E-01  1.000000
 
  8 P  1.00568237E-01  1.000000
 
  9 D  1.09700000E+00  1.000000
 
 10 D  3.18000000E-01  1.000000
 
 11 F  7.61000000E-01  1.000000
 
  H (Hydrogen)
  ------------
            Exponent  Coefficients 
       -------------- ---------------------------------------------------------
  1 S  3.40613410E+01  0.006025
  1 S  5.12357460E+00  0.045021
  1 S  1.16466260E+00  0.201897
 
  2 S  3.27230410E-01  1.000000
 
  3 S  1.03072410E-01  1.000000
 
  4 P  8.00000000E-01  1.000000
 


 Summary of "ao basis" -> "ao basis" (spherical)
 ------------------------------------------------------------------------------
       Tag                 Description            Shells   Functions and Types
 ---------------- ------------------------------  ------  ---------------------
 O                         def2-TZVP                11       31   5s3p2d1f
 C                         def2-TZVP                11       31   5s3p2d1f
 H                         def2-TZVP                 4        6   3s1p




 Summary of "ao basis" -> "ao basis" (spherical)
 ------------------------------------------------------------------------------
       Tag                 Description            Shells   Functions and Types
 ---------------- ------------------------------  ------  ---------------------
 O                         def2-TZVP                11       31   5s3p2d1f
 C                         def2-TZVP                11       31   5s3p2d1f
 H                         def2-TZVP                 4        6   3s1p


  Caching 1-el integrals 
  itol2e modified to match energy
  convergence criterion.
  tol_rho modified to match energy
  convergence criterion.
 
            General Information
            -------------------
          SCF calculation type: DFT
          Wavefunction type:  closed shell.
          No. of atoms     :    10
          No. of electrons :    32
           Alpha electrons :    16
            Beta electrons :    16
          Charge           :     0
          Spin multiplicity:     1
          Use of symmetry is: off; symmetry adaption is: off
          Maximum number of iterations: 250
          This is a Direct SCF calculation.
          AO basis - number of functions:   160
                     number of shells:    68
          Convergence on energy requested:  1.00D-08
          Convergence on density requested:  1.00D-05
          Convergence on gradient requested:  1.00D-07
 
              XC Information
              --------------
                    Becke 1988 Exchange Functional  1.000          
              Lee-Yang-Parr Correlation Functional  1.000          
 
             Grid Information
             ----------------
          Grid used for XC integration:  xfine     
          Radial quadrature: Mura-Knowles        
          Angular quadrature: Lebedev. 
          Tag              B.-S. Rad. Rad. Pts. Rad. Cut. Ang. Pts.
          ---              ---------- --------- --------- ---------
          O                   0.60      100          11.0      1454
          C                   0.70      100          11.0      1454
          H                   0.35      100          12.0      1202
          Grid pruning is: on 
          Number of quadrature shells:  1000
          Spatial weights used:  Erf1
 
          Convergence Information
          -----------------------
          Convergence aids based upon iterative change in 
          total energy or number of iterations. 
          Levelshifting, if invoked, occurs when the 
          HOMO/LUMO gap drops below (HL_TOL):  1.00D-02
          DIIS, if invoked, will attempt to extrapolate 
          using up to (NFOCK): 10 stored Fock matrices.

                    Damping( 0%)  Levelshifting(0.0)       DIIS
                  --------------- ------------------- ---------------
          dE  on:    start             N/A                start   
          dE off:    2 iters           N/A              250 iters 

 
      Screening Tolerance Information
      -------------------------------
          Density screening/tol_rho:  1.00D-11
          AO Gaussian exp screening on grid/accAOfunc:  18
          CD Gaussian exp screening on grid/accCDfunc:  20
          XC Gaussian exp screening on grid/accXCfunc:  20
          Schwarz screening/accCoul:  1.00D-09

 
      Superposition of Atomic Density Guess
      -------------------------------------
 
 Sum of atomic energies:        -190.79714706
 
      Non-variational initial energy
      ------------------------------

 Total energy =    -193.152934
 1-e energy   =    -501.867129
 2-e energy   =     185.264933
 HOMO         =      -0.349207
 LUMO         =       0.090081
 
   Time after variat. SCF:      0.9
   Time prior to 1st pass:      0.9

 Grid_pts file          = ./methyloxirane_blyp-def2-tzvp_488.9_39.inp.gridpts.0
 Record size in doubles =  12289        No. of grid_pts per rec  =   3070
 Max. records in memory =     76        Max. recs in file   =    317624


           Memory utilization after 1st SCF pass: 
           Heap Space remaining (MW):       12.17            12167540
          Stack Space remaining (MW):       13.11            13106124

   convergence    iter        energy       DeltaE   RMS-Dens  Diis-err    time
 ---------------- ----- ----------------- --------- --------- ---------  ------
 d= 0,ls=0.0,diis     1   -193.0194643574 -3.16D+02  9.24D-03  1.06D+00     7.2
 d= 0,ls=0.0,diis     2   -192.8522194590  1.67D-01  7.66D-03  2.61D+00    13.3
 d= 0,ls=0.0,diis     3   -193.0769650710 -2.25D-01  1.82D-03  3.86D-01    19.3
 d= 0,ls=0.0,diis     4   -193.1070783535 -3.01D-02  6.85D-04  1.83D-02    25.2
 d= 0,ls=0.0,diis     5   -193.1087620621 -1.68D-03  2.93D-04  2.70D-03    31.2
 d= 0,ls=0.0,diis     6   -193.1090992137 -3.37D-04  3.07D-05  3.43D-05    37.3
 d= 0,ls=0.0,diis     7   -193.1091034234 -4.21D-06  7.70D-06  3.16D-06    43.3
 d= 0,ls=0.0,diis     8   -193.1091037679 -3.44D-07  1.91D-06  2.84D-07    49.3
 d= 0,ls=0.0,diis     9   -193.1091037979 -3.00D-08  6.87D-07  1.93D-08    55.3
 d= 0,ls=0.0,diis    10   -193.1091038001 -2.22D-09  1.91D-07  2.21D-09    61.3


         Total DFT energy =     -193.109103800099
      One electron energy =     -505.521480404621
           Coulomb energy =      215.981406424883
    Exchange-Corr. energy =      -27.018291956607
 Nuclear repulsion energy =      123.449262136246

 Numeric. integr. density =       32.000000013269

     Total iterative time =     60.4s


 
                       DFT Final Molecular Orbital Analysis
                       ------------------------------------
 
 Vector    1  Occ=2.000000D+00  E=-1.877938D+01
              MO Center= -8.8D-01, -1.8D-01,  2.1D-01, r^2= 1.5D-02
   Bfn.  Coefficient  Atom+Function         Bfn.  Coefficient  Atom+Function  
  ----- ------------  ---------------      ----- ------------  ---------------
     2      0.638480   1 O  s                 1      0.435422   1 O  s         
     3      0.039852   1 O  s                 4     -0.033116   1 O  s         
 
 Vector    2  Occ=2.000000D+00  E=-9.963634D+00
              MO Center=  5.8D-01, -1.6D-01,  1.2D-01, r^2= 2.8D-02
   Bfn.  Coefficient  Atom+Function         Bfn.  Coefficient  Atom+Function  
  ----- ------------  ---------------      ----- ------------  ---------------
    33      0.606928   2 C  s                32      0.467269   2 C  s         
    34      0.042497   2 C  s                36      0.037556   2 C  s         
    35     -0.027357   2 C  s         
 
 Vector    3  Occ=2.000000D+00  E=-9.955674D+00
              MO Center= -1.9D-01,  1.1D+00,  3.4D-01, r^2= 2.8D-02
   Bfn.  Coefficient  Atom+Function         Bfn.  Coefficient  Atom+Function  
  ----- ------------  ---------------      ----- ------------  ---------------
    64      0.607044   3 C  s                63      0.467234   3 C  s         
    65      0.039819   3 C  s         
 
 Vector    4  Occ=2.000000D+00  E=-9.908316D+00
              MO Center=  1.2D+00, -5.2D-01, -1.2D+00, r^2= 2.8D-02
   Bfn.  Coefficient  Atom+Function         Bfn.  Coefficient  Atom+Function  
  ----- ------------  ---------------      ----- ------------  ---------------
    95      0.606951   4 C  s                94      0.467213   4 C  s         
    96      0.040556   4 C  s                98      0.035558   4 C  s         
 
 Vector    5  Occ=2.000000D+00  E=-9.600341D-01
              MO Center= -4.7D-01,  5.4D-02,  2.1D-01, r^2= 6.5D-01
   Bfn.  Coefficient  Atom+Function         Bfn.  Coefficient  Atom+Function  
  ----- ------------  ---------------      ----- ------------  ---------------
     4      0.375736   1 O  s                 3      0.277897   1 O  s         
     2     -0.193039   1 O  s                34      0.139426   2 C  s         
    65      0.138583   3 C  s                 5      0.123223   1 O  s         
    35      0.105526   2 C  s                66      0.093664   3 C  s         
     6      0.092718   1 O  px               69     -0.090739   3 C  py        
 
 Vector    6  Occ=2.000000D+00  E=-6.710714D-01
              MO Center=  9.4D-01, -3.9D-01, -7.8D-01, r^2= 1.5D+00
   Bfn.  Coefficient  Atom+Function         Bfn.  Coefficient  Atom+Function  
  ----- ------------  ---------------      ----- ------------  ---------------
    97      0.286181   4 C  s                96      0.277269   4 C  s         
    35      0.184087   2 C  s                34      0.174834   2 C  s         
    95     -0.174590   4 C  s                 4     -0.146948   1 O  s         
    33     -0.109146   2 C  s                 3     -0.102901   1 O  s         
    94     -0.083655   4 C  s                 5     -0.072651   1 O  s         
 
 Vector    7  Occ=2.000000D+00  E=-5.892989D-01
              MO Center= -1.3D-01,  7.3D-01,  2.2D-01, r^2= 2.0D+00
   Bfn.  Coefficient  Atom+Function         Bfn.  Coefficient  Atom+Function  
  ----- ------------  ---------------      ----- ------------  ---------------
    66      0.325844   3 C  s                65      0.278085   3 C  s         
     4     -0.237943   1 O  s                64     -0.171872   3 C  s         
     3     -0.168222   1 O  s                 5     -0.147740   1 O  s         
     2      0.111036   1 O  s                38      0.103074   2 C  py        
   132      0.102863   6 H  s                97     -0.098370   4 C  s         
 
 Vector    8  Occ=2.000000D+00  E=-5.304416D-01
              MO Center=  4.2D-01,  1.5D-02, -9.7D-02, r^2= 2.7D+00
   Bfn.  Coefficient  Atom+Function         Bfn.  Coefficient  Atom+Function  
  ----- ------------  ---------------      ----- ------------  ---------------
    35      0.302961   2 C  s                34      0.225485   2 C  s         
    97     -0.153870   4 C  s                66     -0.153011   3 C  s         
    33     -0.138576   2 C  s               126      0.133258   5 H  s         
    96     -0.127538   4 C  s                 6      0.105844   1 O  px        
   125      0.106303   5 H  s                65     -0.100357   3 C  s         
 
 Vector    9  Occ=2.000000D+00  E=-4.472602D-01
              MO Center=  1.4D-01,  2.7D-01,  2.3D-01, r^2= 2.5D+00
   Bfn.  Coefficient  Atom+Function         Bfn.  Coefficient  Atom+Function  
  ----- ------------  ---------------      ----- ------------  ---------------
    70      0.209308   3 C  pz               39      0.160206   2 C  pz        
   132      0.143030   6 H  s                73      0.132029   3 C  pz        
     8      0.127698   1 O  pz              126      0.116769   5 H  s         
     6     -0.106288   1 O  px               42      0.105614   2 C  pz        
   131      0.106035   6 H  s                38     -0.104388   2 C  py        
 
 Vector   10  Occ=2.000000D+00  E=-4.132042D-01
              MO Center=  5.5D-02,  2.6D-01, -2.5D-01, r^2= 2.6D+00
   Bfn.  Coefficient  Atom+Function         Bfn.  Coefficient  Atom+Function  
  ----- ------------  ---------------      ----- ------------  ---------------
    69      0.216857   3 C  py              101      0.160427   4 C  pz        
   138      0.149794   7 H  s                 6     -0.145836   1 O  px        
    38     -0.141637   2 C  py               37      0.129686   2 C  px        
     7     -0.123670   1 O  py               72      0.122374   3 C  py        
     9     -0.116330   1 O  px              137      0.108820   7 H  s         
 
 Vector   11  Occ=2.000000D+00  E=-3.759283D-01
              MO Center=  8.8D-01, -3.0D-01, -7.3D-01, r^2= 2.7D+00
   Bfn.  Coefficient  Atom+Function         Bfn.  Coefficient  Atom+Function  
  ----- ------------  ---------------      ----- ------------  ---------------
    99      0.211224   4 C  px              144      0.183471   8 H  s         
   100      0.158363   4 C  py              102      0.136286   4 C  px        
   150     -0.134583   9 H  s                37      0.130022   2 C  px        
   143      0.128595   8 H  s                 7      0.119413   1 O  py        
     6     -0.118763   1 O  px              103      0.105627   4 C  py        
 
 Vector   12  Occ=2.000000D+00  E=-3.558379D-01
              MO Center=  6.2D-01, -3.6D-01, -9.0D-01, r^2= 2.8D+00
   Bfn.  Coefficient  Atom+Function         Bfn.  Coefficient  Atom+Function  
  ----- ------------  ---------------      ----- ------------  ---------------
   100      0.260077   4 C  py              150     -0.188841   9 H  s         
   156      0.175867  10 H  s               103      0.169234   4 C  py        
     7     -0.159376   1 O  py              149     -0.131871   9 H  s         
    10     -0.127341   1 O  py              155      0.124672  10 H  s         
    70      0.116963   3 C  pz              106      0.105364   4 C  py        
 
 Vector   13  Occ=2.000000D+00  E=-3.315154D-01
              MO Center=  3.4D-01,  2.9D-01, -1.9D-01, r^2= 2.8D+00
   Bfn.  Coefficient  Atom+Function         Bfn.  Coefficient  Atom+Function  
  ----- ------------  ---------------      ----- ------------  ---------------
    39      0.224864   2 C  pz              101     -0.201076   4 C  pz        
    70     -0.182336   3 C  pz              138      0.165506   7 H  s         
     7     -0.152746   1 O  py               42      0.151393   2 C  pz        
   104     -0.139298   4 C  pz               10     -0.122949   1 O  py        
   132     -0.115479   6 H  s                99      0.114418   4 C  px        
 
 Vector   14  Occ=2.000000D+00  E=-3.206852D-01
              MO Center=  3.6D-01, -6.5D-02, -2.3D-01, r^2= 3.0D+00
   Bfn.  Coefficient  Atom+Function         Bfn.  Coefficient  Atom+Function  
  ----- ------------  ---------------      ----- ------------  ---------------
     7      0.219783   1 O  py               10      0.179933   1 O  py        
    99     -0.167673   4 C  px                6     -0.157412   1 O  px        
   126      0.153225   5 H  s               156      0.143580  10 H  s         
    37      0.141476   2 C  px              144     -0.140076   8 H  s         
     9     -0.129070   1 O  px               39      0.110387   2 C  pz        
 
 Vector   15  Occ=2.000000D+00  E=-2.619467D-01
              MO Center=  2.4D-02,  1.5D-01,  2.9D-02, r^2= 2.3D+00
   Bfn.  Coefficient  Atom+Function         Bfn.  Coefficient  Atom+Function  
  ----- ------------  ---------------      ----- ------------  ---------------
    68      0.264173   3 C  px               38      0.255990   2 C  py        
     6     -0.236270   1 O  px               41      0.199686   2 C  py        
    71      0.196941   3 C  px                9     -0.184761   1 O  px        
    12     -0.156959   1 O  px              150      0.116125   9 H  s         
   100     -0.111254   4 C  py               67      0.107781   3 C  s         
 
 Vector   16  Occ=2.000000D+00  E=-2.194360D-01
              MO Center= -5.9D-01, -2.2D-02,  2.1D-01, r^2= 1.6D+00
   Bfn.  Coefficient  Atom+Function         Bfn.  Coefficient  Atom+Function  
  ----- ------------  ---------------      ----- ------------  ---------------
     8      0.449676   1 O  pz               11      0.358068   1 O  pz        
    14      0.296761   1 O  pz              133     -0.132336   6 H  s         
   139      0.117839   7 H  s               132     -0.104561   6 H  s         
   138      0.104764   7 H  s               145     -0.102309   8 H  s         
   126     -0.095831   5 H  s                98      0.085012   4 C  s         
 
 Vector   17  Occ=0.000000D+00  E= 2.575500D-02
              MO Center=  1.2D+00, -1.0D-01, -6.3D-01, r^2= 7.3D+00
   Bfn.  Coefficient  Atom+Function         Bfn.  Coefficient  Atom+Function  
  ----- ------------  ---------------      ----- ------------  ---------------
    98      4.554934   4 C  s               145     -1.548340   8 H  s         
   151     -1.524273   9 H  s               157     -1.352676  10 H  s         
   127     -1.221172   5 H  s                45      1.147709   2 C  pz        
   139     -0.878455   7 H  s                67      0.675589   3 C  s         
   133     -0.605269   6 H  s                75      0.336274   3 C  py        
 
 Vector   18  Occ=0.000000D+00  E= 4.221340D-02
              MO Center= -1.2D-01,  6.6D-01,  1.1D-01, r^2= 4.5D+00
   Bfn.  Coefficient  Atom+Function         Bfn.  Coefficient  Atom+Function  
  ----- ------------  ---------------      ----- ------------  ---------------
    98     -2.089082   4 C  s                36      1.911730   2 C  s         
     5     -1.248330   1 O  s                74     -0.941196   3 C  px        
   151      0.815328   9 H  s                45     -0.497803   2 C  pz        
    13     -0.438857   1 O  py               44      0.422574   2 C  py        
    67     -0.392025   3 C  s               157      0.375231  10 H  s         
 
 Vector   19  Occ=0.000000D+00  E= 4.938164D-02
              MO Center=  3.4D-01,  5.9D-01, -1.1D-01, r^2= 6.2D+00
   Bfn.  Coefficient  Atom+Function         Bfn.  Coefficient  Atom+Function  
  ----- ------------  ---------------      ----- ------------  ---------------
    67      3.193609   3 C  s                36     -2.410869   2 C  s         
   139     -1.544257   7 H  s               127      1.399251   5 H  s         
   145      0.749404   8 H  s                44     -0.726445   2 C  py        
   133     -0.613360   6 H  s                45     -0.597581   2 C  pz        
   157     -0.568535  10 H  s                 5     -0.527204   1 O  s         
 
 Vector   20  Occ=0.000000D+00  E= 5.000836D-02
              MO Center=  6.7D-01,  3.3D-01,  4.1D-01, r^2= 7.7D+00
   Bfn.  Coefficient  Atom+Function         Bfn.  Coefficient  Atom+Function  
  ----- ------------  ---------------      ----- ------------  ---------------
    98      3.394794   4 C  s                67     -1.877447   3 C  s         
   133      1.704470   6 H  s                36     -1.592844   2 C  s         
   127      1.599123   5 H  s               157     -1.269613  10 H  s         
   145     -1.024445   8 H  s                44      0.911589   2 C  py        
    43     -0.704039   2 C  px              151     -0.667017   9 H  s         
 
 Vector   21  Occ=0.000000D+00  E= 6.390428D-02
              MO Center=  2.4D-01,  2.1D-01, -1.9D-01, r^2= 5.1D+00
   Bfn.  Coefficient  Atom+Function         Bfn.  Coefficient  Atom+Function  
  ----- ------------  ---------------      ----- ------------  ---------------
   139     -1.378792   7 H  s                67      1.326517   3 C  s         
    98     -1.193523   4 C  s               151      0.979040   9 H  s         
     5      0.856206   1 O  s                43      0.819144   2 C  px        
   133     -0.657242   6 H  s               127      0.526930   5 H  s         
    75      0.524178   3 C  py               12      0.478623   1 O  px        
 
 Vector   22  Occ=0.000000D+00  E= 8.613476D-02
              MO Center=  1.3D+00,  2.1D-01, -5.1D-01, r^2= 7.1D+00
   Bfn.  Coefficient  Atom+Function         Bfn.  Coefficient  Atom+Function  
  ----- ------------  ---------------      ----- ------------  ---------------
    36      2.915556   2 C  s               145      2.010583   8 H  s         
    67     -1.451150   3 C  s               157     -1.341693  10 H  s         
   127     -1.309997   5 H  s               133      1.136628   6 H  s         
   107     -1.116731   4 C  pz              105     -1.026890   4 C  px        
    98     -0.949368   4 C  s                75      0.813308   3 C  py        
 
 Vector   23  Occ=0.000000D+00  E= 9.161629D-02
              MO Center=  1.2D+00, -6.4D-01, -5.3D-01, r^2= 6.6D+00
   Bfn.  Coefficient  Atom+Function         Bfn.  Coefficient  Atom+Function  
  ----- ------------  ---------------      ----- ------------  ---------------
    36      2.549475   2 C  s               151      2.060869   9 H  s         
   145     -1.531718   8 H  s                98     -1.271510   4 C  s         
   106      1.147196   4 C  py              105      1.074517   4 C  px        
   133      0.940008   6 H  s                67     -0.927598   3 C  s         
   127     -0.840618   5 H  s               107     -0.705094   4 C  pz        
 
 Vector   24  Occ=0.000000D+00  E= 1.023601D-01
              MO Center=  4.0D-01,  5.0D-01, -1.0D+00, r^2= 6.9D+00
   Bfn.  Coefficient  Atom+Function         Bfn.  Coefficient  Atom+Function  
  ----- ------------  ---------------      ----- ------------  ---------------
   157      1.999402  10 H  s               133      1.667433   6 H  s         
   139     -1.536111   7 H  s               106     -1.450653   4 C  py        
    98     -1.417830   4 C  s               151     -1.391770   9 H  s         
    36      1.302562   2 C  s                76     -1.198087   3 C  pz        
   105      0.990141   4 C  px               45     -0.519573   2 C  pz        
 
 Vector   25  Occ=0.000000D+00  E= 1.399310D-01
              MO Center=  8.3D-01,  1.5D-01, -4.7D-01, r^2= 7.8D+00
   Bfn.  Coefficient  Atom+Function         Bfn.  Coefficient  Atom+Function  
  ----- ------------  ---------------      ----- ------------  ---------------
    36      4.774321   2 C  s                98     -3.746984   4 C  s         
    45     -3.511160   2 C  pz              127      2.768896   5 H  s         
    67     -2.723791   3 C  s                76      2.149294   3 C  pz        
   105      2.149770   4 C  px              133     -1.789392   6 H  s         
   139      1.655089   7 H  s               107     -1.644737   4 C  pz        
 
 Vector   26  Occ=0.000000D+00  E= 1.705678D-01
              MO Center=  4.5D-01,  5.2D-01, -1.1D-01, r^2= 7.3D+00
   Bfn.  Coefficient  Atom+Function         Bfn.  Coefficient  Atom+Function  
  ----- ------------  ---------------      ----- ------------  ---------------
    75      2.294906   3 C  py              107      1.606494   4 C  pz        
    67     -1.492095   3 C  s                36      1.455539   2 C  s         
   139     -1.118962   7 H  s               157      1.052188  10 H  s         
    74     -0.964115   3 C  px               44      0.696020   2 C  py        
    43     -0.584252   2 C  px              106     -0.574800   4 C  py        
 
 Vector   27  Occ=0.000000D+00  E= 1.974430D-01
              MO Center=  7.9D-01, -9.6D-02, -9.9D-01, r^2= 5.1D+00
   Bfn.  Coefficient  Atom+Function         Bfn.  Coefficient  Atom+Function  
  ----- ------------  ---------------      ----- ------------  ---------------
    67      2.998044   3 C  s                44     -2.574030   2 C  py        
   106      1.920295   4 C  py               36     -1.673449   2 C  s         
    43      0.974686   2 C  px              105      0.804359   4 C  px        
    45     -0.794207   2 C  pz               74      0.758250   3 C  px        
   157     -0.700090  10 H  s               150      0.624475   9 H  s         
 
 Vector   28  Occ=0.000000D+00  E= 2.029190D-01
              MO Center=  9.6D-01, -4.0D-01, -6.9D-01, r^2= 6.7D+00
   Bfn.  Coefficient  Atom+Function         Bfn.  Coefficient  Atom+Function  
  ----- ------------  ---------------      ----- ------------  ---------------
    36      2.573223   2 C  s                75      1.735358   3 C  py        
   105     -1.413973   4 C  px              133     -1.260228   6 H  s         
   106      0.954119   4 C  py              107     -0.872824   4 C  pz        
   139     -0.809719   7 H  s                45      0.795147   2 C  pz        
   156     -0.714973  10 H  s                76      0.677849   3 C  pz        
 
 Vector   29  Occ=0.000000D+00  E= 2.355272D-01
              MO Center= -2.2D-01,  3.1D-01, -1.2D-01, r^2= 5.5D+00
   Bfn.  Coefficient  Atom+Function         Bfn.  Coefficient  Atom+Function  
  ----- ------------  ---------------      ----- ------------  ---------------
    67      4.022629   3 C  s                36     -3.058671   2 C  s         
   139     -1.582109   7 H  s                66     -1.409940   3 C  s         
    98      1.399509   4 C  s               107      1.187291   4 C  pz        
   133     -1.190801   6 H  s                44      0.804971   2 C  py        
    74     -0.800326   3 C  px              106      0.733750   4 C  py        
 
 Vector   30  Occ=0.000000D+00  E= 2.467721D-01
              MO Center=  4.7D-01,  1.0D-01, -3.0D-02, r^2= 6.0D+00
   Bfn.  Coefficient  Atom+Function         Bfn.  Coefficient  Atom+Function  
  ----- ------------  ---------------      ----- ------------  ---------------
    67      6.243733   3 C  s                43      4.075932   2 C  px        
    75     -2.945314   3 C  py               44     -2.489729   2 C  py        
   107     -2.104711   4 C  pz               36     -1.874373   2 C  s         
   157     -1.834824  10 H  s                45     -1.460192   2 C  pz        
    98     -1.383631   4 C  s               105     -1.059527   4 C  px        
 
 Vector   31  Occ=0.000000D+00  E= 2.691611D-01
              MO Center=  2.3D-01, -2.3D-01,  2.5D-01, r^2= 5.6D+00
   Bfn.  Coefficient  Atom+Function         Bfn.  Coefficient  Atom+Function  
  ----- ------------  ---------------      ----- ------------  ---------------
    36      4.623612   2 C  s                 5     -2.393426   1 O  s         
    43     -2.015556   2 C  px               67      1.628889   3 C  s         
   105      1.617553   4 C  px               66     -1.159570   3 C  s         
    98     -1.061034   4 C  s               139     -0.953665   7 H  s         
   133     -0.878319   6 H  s               106     -0.769775   4 C  py        
 
 Vector   32  Occ=0.000000D+00  E= 2.771226D-01
              MO Center=  4.7D-01,  4.2D-01,  3.0D-01, r^2= 4.2D+00
   Bfn.  Coefficient  Atom+Function         Bfn.  Coefficient  Atom+Function  
  ----- ------------  ---------------      ----- ------------  ---------------
    36      1.945271   2 C  s                67     -1.580489   3 C  s         
     5     -1.488424   1 O  s                43     -0.954291   2 C  px        
    74     -0.721027   3 C  px               45     -0.645852   2 C  pz        
   145      0.619001   8 H  s                98     -0.609400   4 C  s         
   157     -0.503805  10 H  s                66      0.501265   3 C  s         
 
 Vector   33  Occ=0.000000D+00  E= 3.014095D-01
              MO Center=  4.3D-01,  3.7D-01, -3.8D-01, r^2= 5.0D+00
   Bfn.  Coefficient  Atom+Function         Bfn.  Coefficient  Atom+Function  
  ----- ------------  ---------------      ----- ------------  ---------------
   106      1.837042   4 C  py              151      1.784272   9 H  s         
    43      1.669762   2 C  px               98     -1.583519   4 C  s         
    76      1.460607   3 C  pz               36     -1.242554   2 C  s         
    66      1.057102   3 C  s                44     -1.025113   2 C  py        
   139      0.995499   7 H  s               107     -0.861535   4 C  pz        
 
 Vector   34  Occ=0.000000D+00  E= 3.375954D-01
              MO Center=  7.4D-02,  4.5D-01, -3.6D-01, r^2= 5.7D+00
   Bfn.  Coefficient  Atom+Function         Bfn.  Coefficient  Atom+Function  
  ----- ------------  ---------------      ----- ------------  ---------------
    67      4.161410   3 C  s                76     -4.022279   3 C  pz        
   139     -3.150987   7 H  s                36     -2.137329   2 C  s         
   133      2.088263   6 H  s               107     -1.713662   4 C  pz        
   157     -1.699423  10 H  s                98      1.460228   4 C  s         
    43      1.328799   2 C  px               44     -0.999922   2 C  py        
 
 Vector   35  Occ=0.000000D+00  E= 3.632227D-01
              MO Center=  7.9D-01,  5.3D-03, -3.3D-01, r^2= 6.7D+00
   Bfn.  Coefficient  Atom+Function         Bfn.  Coefficient  Atom+Function  
  ----- ------------  ---------------      ----- ------------  ---------------
    98      7.488989   4 C  s               145     -3.278386   8 H  s         
    76      3.127637   3 C  pz               97     -3.063952   4 C  s         
   133     -2.202677   6 H  s               151     -1.855554   9 H  s         
    36      1.724201   2 C  s                67     -1.706832   3 C  s         
    44      1.631434   2 C  py              139      1.603612   7 H  s         
 
 Vector   36  Occ=0.000000D+00  E= 3.714480D-01
              MO Center=  5.7D-01,  2.4D-01, -1.7D-01, r^2= 6.5D+00
   Bfn.  Coefficient  Atom+Function         Bfn.  Coefficient  Atom+Function  
  ----- ------------  ---------------      ----- ------------  ---------------
    36     12.494893   2 C  s                98     -9.289347   4 C  s         
    67     -8.312558   3 C  s               127     -2.973167   5 H  s         
    97      2.664105   4 C  s               157      2.422385  10 H  s         
    44      1.993675   2 C  py              151      1.875355   9 H  s         
    35     -1.854946   2 C  s                74     -1.554738   3 C  px        
 
 Vector   37  Occ=0.000000D+00  E= 3.839493D-01
              MO Center=  9.3D-01, -3.5D-01, -1.1D-01, r^2= 6.0D+00
   Bfn.  Coefficient  Atom+Function         Bfn.  Coefficient  Atom+Function  
  ----- ------------  ---------------      ----- ------------  ---------------
    36      6.656769   2 C  s               127     -4.200268   5 H  s         
    98      2.954094   4 C  s                45      2.593225   2 C  pz        
    67     -2.378268   3 C  s                35     -2.192038   2 C  s         
   151     -2.080100   9 H  s               145     -1.875186   8 H  s         
    76     -1.733862   3 C  pz               43      1.636647   2 C  px        
 
 Vector   38  Occ=0.000000D+00  E= 3.948794D-01
              MO Center=  2.9D-01,  2.1D-01, -6.0D-03, r^2= 6.7D+00
   Bfn.  Coefficient  Atom+Function         Bfn.  Coefficient  Atom+Function  
  ----- ------------  ---------------      ----- ------------  ---------------
    98     12.084938   4 C  s                67     -7.727511   3 C  s         
    45      5.174408   2 C  pz               76     -3.006890   3 C  pz        
   133      2.887484   6 H  s                44      2.824014   2 C  py        
   157     -2.525499  10 H  s                43     -2.206573   2 C  px        
    75      2.006579   3 C  py               97     -1.885427   4 C  s         
 
 Vector   39  Occ=0.000000D+00  E= 4.017195D-01
              MO Center= -3.2D-01,  1.0D-01,  1.4D-01, r^2= 6.3D+00
   Bfn.  Coefficient  Atom+Function         Bfn.  Coefficient  Atom+Function  
  ----- ------------  ---------------      ----- ------------  ---------------
    36     11.797570   2 C  s                67    -11.360397   3 C  s         
    98     -6.185732   4 C  s                45     -5.762499   2 C  pz        
    44      3.657093   2 C  py              127      3.078903   5 H  s         
    66      2.589773   3 C  s               139      2.532620   7 H  s         
   105      2.422207   4 C  px               43     -2.262639   2 C  px        
 
 Vector   40  Occ=0.000000D+00  E= 4.142004D-01
              MO Center=  8.3D-01, -3.4D-01, -8.2D-01, r^2= 5.9D+00
   Bfn.  Coefficient  Atom+Function         Bfn.  Coefficient  Atom+Function  
  ----- ------------  ---------------      ----- ------------  ---------------
    98      6.831673   4 C  s                36     -3.488275   2 C  s         
    45      2.906928   2 C  pz              105     -2.536762   4 C  px        
   151     -2.407308   9 H  s               157     -1.977550  10 H  s         
   145      1.832595   8 H  s                97     -1.102602   4 C  s         
   127     -1.014799   5 H  s               133     -0.982607   6 H  s         
 
 Vector   41  Occ=0.000000D+00  E= 4.268718D-01
              MO Center=  4.7D-01,  1.6D-01, -1.8D-01, r^2= 6.8D+00
   Bfn.  Coefficient  Atom+Function         Bfn.  Coefficient  Atom+Function  
  ----- ------------  ---------------      ----- ------------  ---------------
    36      8.872480   2 C  s                67     -4.519009   3 C  s         
    98     -3.733388   4 C  s                44      2.505976   2 C  py        
    75      2.458079   3 C  py              151      2.380718   9 H  s         
    43     -1.693531   2 C  px               74     -1.393153   3 C  px        
   132      1.311454   6 H  s                45     -1.295046   2 C  pz        
 
 Vector   42  Occ=0.000000D+00  E= 4.474792D-01
              MO Center=  4.9D-02, -1.3D-02, -1.7D-01, r^2= 6.1D+00
   Bfn.  Coefficient  Atom+Function         Bfn.  Coefficient  Atom+Function  
  ----- ------------  ---------------      ----- ------------  ---------------
    36      9.983899   2 C  s                98     -9.308719   4 C  s         
    45     -5.597287   2 C  pz               67     -2.957880   3 C  s         
   127      2.904626   5 H  s                76      2.519752   3 C  pz        
    44      2.374396   2 C  py              157      2.332867  10 H  s         
   133     -2.076053   6 H  s                75      2.017672   3 C  py        
 
 Vector   43  Occ=0.000000D+00  E= 4.599115D-01
              MO Center=  9.9D-02,  7.4D-01, -5.1D-01, r^2= 5.2D+00
   Bfn.  Coefficient  Atom+Function         Bfn.  Coefficient  Atom+Function  
  ----- ------------  ---------------      ----- ------------  ---------------
   139      3.168342   7 H  s               107     -2.338163   4 C  pz        
   157     -2.269513  10 H  s                75     -2.018640   3 C  py        
    45     -1.916223   2 C  pz               43      1.496598   2 C  px        
    44     -1.420037   2 C  py              138     -1.405203   7 H  s         
    76      1.176416   3 C  pz               98     -1.152349   4 C  s         
 
 Vector   44  Occ=0.000000D+00  E= 4.692851D-01
              MO Center=  4.7D-01,  1.8D-01, -3.2D-02, r^2= 5.7D+00
   Bfn.  Coefficient  Atom+Function         Bfn.  Coefficient  Atom+Function  
  ----- ------------  ---------------      ----- ------------  ---------------
    98     -5.319006   4 C  s                36      5.001079   2 C  s         
    45     -2.347051   2 C  pz              145      1.706188   8 H  s         
   107     -1.696663   4 C  pz               67     -1.533406   3 C  s         
   133      1.505672   6 H  s                35     -1.246088   2 C  s         
   132     -1.126275   6 H  s               126      1.063960   5 H  s         
 
 Vector   45  Occ=0.000000D+00  E= 5.095930D-01
              MO Center=  9.1D-01, -3.9D-01, -9.3D-01, r^2= 4.8D+00
   Bfn.  Coefficient  Atom+Function         Bfn.  Coefficient  Atom+Function  
  ----- ------------  ---------------      ----- ------------  ---------------
    98     11.508735   4 C  s                36     -7.598438   2 C  s         
    45      4.619238   2 C  pz              107      3.089257   4 C  pz        
   144     -1.361942   8 H  s               106      1.303513   4 C  py        
   156     -1.205024  10 H  s               127     -1.144202   5 H  s         
   150     -1.100366   9 H  s                14     -1.055468   1 O  pz        
 
 Vector   46  Occ=0.000000D+00  E= 5.378086D-01
              MO Center=  9.3D-02, -4.1D-01, -4.9D-01, r^2= 4.4D+00
   Bfn.  Coefficient  Atom+Function         Bfn.  Coefficient  Atom+Function  
  ----- ------------  ---------------      ----- ------------  ---------------
    98     -7.406654   4 C  s                36      6.971509   2 C  s         
    45     -3.728934   2 C  pz               76      3.216046   3 C  pz        
   133     -1.776593   6 H  s               105      1.514508   4 C  px        
   107     -1.489950   4 C  pz              139      1.456101   7 H  s         
     5     -1.169285   1 O  s                14     -1.150622   1 O  pz        
 
 Vector   47  Occ=0.000000D+00  E= 6.577209D-01
              MO Center= -3.7D-01,  3.2D-02, -2.7D-02, r^2= 4.3D+00
   Bfn.  Coefficient  Atom+Function         Bfn.  Coefficient  Atom+Function  
  ----- ------------  ---------------      ----- ------------  ---------------
    36     11.487074   2 C  s                67     -8.907021   3 C  s         
    98     -4.021559   4 C  s                43     -2.623897   2 C  px        
    75      2.404856   3 C  py               13      2.223047   1 O  py        
    76      2.020041   3 C  pz              105      1.596859   4 C  px        
   139      1.502569   7 H  s                44      1.488494   2 C  py        
 
 Vector   48  Occ=0.000000D+00  E= 6.733933D-01
              MO Center= -2.5D-01,  3.4D-01,  1.0D-01, r^2= 3.9D+00
   Bfn.  Coefficient  Atom+Function         Bfn.  Coefficient  Atom+Function  
  ----- ------------  ---------------      ----- ------------  ---------------
    36      8.007953   2 C  s                67     -7.553801   3 C  s         
     5      2.978745   1 O  s                75      2.487234   3 C  py        
    98     -2.363652   4 C  s                13      2.074556   1 O  py        
    45     -1.259450   2 C  pz               43     -1.157239   2 C  px        
     4     -1.109395   1 O  s                44      0.863583   2 C  py        
 
 Vector   49  Occ=0.000000D+00  E= 7.058512D-01
              MO Center=  1.6D-01, -3.2D-01, -2.6D-01, r^2= 4.5D+00
   Bfn.  Coefficient  Atom+Function         Bfn.  Coefficient  Atom+Function  
  ----- ------------  ---------------      ----- ------------  ---------------
    67      9.479180   3 C  s                36     -7.329014   2 C  s         
    43      3.657797   2 C  px               44     -3.477447   2 C  py        
    75     -2.741874   3 C  py               98     -2.521480   4 C  s         
     5      2.160926   1 O  s               106      1.682436   4 C  py        
    12      1.672153   1 O  px               13     -1.353647   1 O  py        
 
 Vector   50  Occ=0.000000D+00  E= 7.587013D-01
              MO Center=  6.3D-01, -3.4D-02, -3.4D-01, r^2= 4.1D+00
   Bfn.  Coefficient  Atom+Function         Bfn.  Coefficient  Atom+Function  
  ----- ------------  ---------------      ----- ------------  ---------------
    45      2.563669   2 C  pz              127     -1.757117   5 H  s         
    36      1.691009   2 C  s               105     -1.654420   4 C  px        
     5     -1.584098   1 O  s               126     -1.343200   5 H  s         
    43      1.284598   2 C  px              144      1.259340   8 H  s         
    66      1.011936   3 C  s                76     -0.900536   3 C  pz        
 
 Vector   51  Occ=0.000000D+00  E= 7.933389D-01
              MO Center=  2.8D-01,  6.1D-02, -1.8D-01, r^2= 4.4D+00
   Bfn.  Coefficient  Atom+Function         Bfn.  Coefficient  Atom+Function  
  ----- ------------  ---------------      ----- ------------  ---------------
     5      4.162514   1 O  s                36     -2.920820   2 C  s         
    76     -2.479900   3 C  pz                4     -1.593888   1 O  s         
    45      1.576217   2 C  pz               43      1.371827   2 C  px        
    12      1.349486   1 O  px              133      1.311230   6 H  s         
    35     -1.035571   2 C  s                66     -0.947308   3 C  s         
 
 Vector   52  Occ=0.000000D+00  E= 8.324394D-01
              MO Center=  3.4D-01,  1.7D-01, -2.3D-02, r^2= 4.5D+00
   Bfn.  Coefficient  Atom+Function         Bfn.  Coefficient  Atom+Function  
  ----- ------------  ---------------      ----- ------------  ---------------
    36      6.412998   2 C  s                98     -4.117501   4 C  s         
     5     -3.763940   1 O  s                43     -2.449530   2 C  px        
   105      1.933222   4 C  px               35     -1.838967   2 C  s         
    45     -1.677059   2 C  pz               44      1.425788   2 C  py        
    66     -1.241067   3 C  s                97      1.109634   4 C  s         
 
 Vector   53  Occ=0.000000D+00  E= 8.546711D-01
              MO Center=  5.6D-01,  1.6D-01, -3.7D-01, r^2= 4.2D+00
   Bfn.  Coefficient  Atom+Function         Bfn.  Coefficient  Atom+Function  
  ----- ------------  ---------------      ----- ------------  ---------------
    98     -4.936929   4 C  s                36      4.854430   2 C  s         
    45     -4.747161   2 C  pz               76      2.016992   3 C  pz        
   127      1.841814   5 H  s               106     -1.555293   4 C  py        
   105      1.447127   4 C  px               44      1.375935   2 C  py        
     5     -1.298232   1 O  s               150     -1.154860   9 H  s         
 
 Vector   54  Occ=0.000000D+00  E= 8.716735D-01
              MO Center=  1.9D-01, -6.7D-02, -1.2D-01, r^2= 4.2D+00
   Bfn.  Coefficient  Atom+Function         Bfn.  Coefficient  Atom+Function  
  ----- ------------  ---------------      ----- ------------  ---------------
     5      4.630139   1 O  s                36     -1.797405   2 C  s         
     4     -1.560927   1 O  s                76      1.373674   3 C  pz        
   138      1.367698   7 H  s                12      1.208238   1 O  px        
    66     -1.157552   3 C  s                98     -1.146679   4 C  s         
    67     -1.107464   3 C  s                43      0.937226   2 C  px        
 
 Vector   55  Occ=0.000000D+00  E= 9.192847D-01
              MO Center=  4.9D-01,  3.2D-01, -4.6D-01, r^2= 4.6D+00
   Bfn.  Coefficient  Atom+Function         Bfn.  Coefficient  Atom+Function  
  ----- ------------  ---------------      ----- ------------  ---------------
    35      5.036841   2 C  s                36     -1.981139   2 C  s         
    67      1.549469   3 C  s               132     -1.268447   6 H  s         
    72      1.255032   3 C  py               66     -1.182575   3 C  s         
    84      1.160038   3 C  d  0            156     -1.147348  10 H  s         
    41      1.120596   2 C  py              116     -1.085141   4 C  d  1      
 
 Vector   56  Occ=0.000000D+00  E= 9.619762D-01
              MO Center=  4.3D-01,  3.2D-01, -5.1D-01, r^2= 4.7D+00
   Bfn.  Coefficient  Atom+Function         Bfn.  Coefficient  Atom+Function  
  ----- ------------  ---------------      ----- ------------  ---------------
    35      4.164976   2 C  s                67      2.575135   3 C  s         
   138     -2.369439   7 H  s                42     -1.807348   2 C  pz        
    76     -1.783253   3 C  pz               83     -1.653004   3 C  d -1      
    36     -1.579391   2 C  s               115     -1.485410   4 C  d  0      
   132      1.394290   6 H  s               107     -1.282060   4 C  pz        
 
 Vector   57  Occ=0.000000D+00  E= 9.924179D-01
              MO Center=  3.1D-01,  5.4D-01, -9.5D-02, r^2= 4.0D+00
   Bfn.  Coefficient  Atom+Function         Bfn.  Coefficient  Atom+Function  
  ----- ------------  ---------------      ----- ------------  ---------------
    36      7.113367   2 C  s                98     -5.066472   4 C  s         
    45     -3.849325   2 C  pz               67     -3.448358   3 C  s         
    43     -2.077117   2 C  px               44      1.909623   2 C  py        
   127      1.548960   5 H  s                66     -1.522017   3 C  s         
   126      1.335979   5 H  s                35     -1.326456   2 C  s         
 
 Vector   58  Occ=0.000000D+00  E= 1.012694D+00
              MO Center=  3.9D-01,  5.0D-01, -7.6D-02, r^2= 4.3D+00
   Bfn.  Coefficient  Atom+Function         Bfn.  Coefficient  Atom+Function  
  ----- ------------  ---------------      ----- ------------  ---------------
    36      5.900386   2 C  s                67     -4.601615   3 C  s         
    45     -2.476249   2 C  pz               98     -2.097039   4 C  s         
    44      1.926625   2 C  py              156     -1.542005  10 H  s         
    76      1.406010   3 C  pz               43     -1.343335   2 C  px        
    74     -1.342454   3 C  px               82      1.328945   3 C  d -2      
 
 Vector   59  Occ=0.000000D+00  E= 1.043179D+00
              MO Center=  7.2D-01, -1.6D-01, -4.8D-01, r^2= 4.2D+00
   Bfn.  Coefficient  Atom+Function         Bfn.  Coefficient  Atom+Function  
  ----- ------------  ---------------      ----- ------------  ---------------
    35      2.587613   2 C  s                36      2.508499   2 C  s         
    66     -2.372704   3 C  s               144     -1.973354   8 H  s         
   150      1.937920   9 H  s                 5     -1.860092   1 O  s         
   117      1.744579   4 C  d  2             41      1.534528   2 C  py        
    44      1.349192   2 C  py               72      1.214616   3 C  py        
 
 Vector   60  Occ=0.000000D+00  E= 1.078465D+00
              MO Center=  6.9D-01, -1.6D-02, -8.8D-02, r^2= 4.1D+00
   Bfn.  Coefficient  Atom+Function         Bfn.  Coefficient  Atom+Function  
  ----- ------------  ---------------      ----- ------------  ---------------
    98      3.910318   4 C  s                97      3.857060   4 C  s         
    66     -3.790014   3 C  s                45      3.643399   2 C  pz        
    36     -2.799537   2 C  s               104      2.592314   4 C  pz        
    41      2.426529   2 C  py               42      2.420264   2 C  pz        
    53     -2.200162   2 C  d  0             72      2.187627   3 C  py        
 
 Vector   61  Occ=0.000000D+00  E= 1.105742D+00
              MO Center=  3.7D-01,  6.5D-02,  6.8D-02, r^2= 3.8D+00
   Bfn.  Coefficient  Atom+Function         Bfn.  Coefficient  Atom+Function  
  ----- ------------  ---------------      ----- ------------  ---------------
    36      7.795098   2 C  s                67     -5.315793   3 C  s         
    98     -3.185829   4 C  s                66      2.218112   3 C  s         
    45     -2.123308   2 C  pz              126     -2.021434   5 H  s         
   132      1.698563   6 H  s                72     -1.645011   3 C  py        
    97     -1.644292   4 C  s                53      1.573539   2 C  d  0      
 
 Vector   62  Occ=0.000000D+00  E= 1.147464D+00
              MO Center=  6.3D-01,  6.7D-03, -3.8D-02, r^2= 3.5D+00
   Bfn.  Coefficient  Atom+Function         Bfn.  Coefficient  Atom+Function  
  ----- ------------  ---------------      ----- ------------  ---------------
    67      5.074810   3 C  s                36     -3.852054   2 C  s         
    44     -2.343017   2 C  py              126      1.801510   5 H  s         
    97     -1.775456   4 C  s                54      1.556767   2 C  d  1      
    43      1.518535   2 C  px               55      1.499994   2 C  d  2      
    42     -1.433235   2 C  pz               75     -1.387025   3 C  py        
 
 Vector   63  Occ=0.000000D+00  E= 1.215527D+00
              MO Center=  5.6D-01,  2.0D-01, -1.5D-01, r^2= 3.8D+00
   Bfn.  Coefficient  Atom+Function         Bfn.  Coefficient  Atom+Function  
  ----- ------------  ---------------      ----- ------------  ---------------
    36      6.737730   2 C  s                66     -4.879851   3 C  s         
    97     -3.524660   4 C  s                67     -3.292241   3 C  s         
    35      3.157100   2 C  s                72      1.863479   3 C  py        
    51     -1.758701   2 C  d -2             52      1.701773   2 C  d -1      
   138      1.672168   7 H  s               104     -1.547019   4 C  pz        
 
 Vector   64  Occ=0.000000D+00  E= 1.349650D+00
              MO Center=  3.5D-01,  5.5D-01,  2.2D-01, r^2= 3.6D+00
   Bfn.  Coefficient  Atom+Function         Bfn.  Coefficient  Atom+Function  
  ----- ------------  ---------------      ----- ------------  ---------------
    66      4.658158   3 C  s                35      3.959981   2 C  s         
    67     -3.005530   3 C  s                36     -2.817611   2 C  s         
    65     -2.392077   3 C  s               132     -2.091800   6 H  s         
    34     -1.460568   2 C  s               133      1.426707   6 H  s         
    72      1.386865   3 C  py              139      1.070488   7 H  s         
 
 Vector   65  Occ=0.000000D+00  E= 1.415859D+00
              MO Center=  1.4D-01,  5.3D-01, -7.2D-02, r^2= 3.4D+00
   Bfn.  Coefficient  Atom+Function         Bfn.  Coefficient  Atom+Function  
  ----- ------------  ---------------      ----- ------------  ---------------
    36      3.946337   2 C  s                66      3.677459   3 C  s         
    67     -3.646483   3 C  s                35     -3.469115   2 C  s         
    73     -2.334315   3 C  pz              138     -2.245174   7 H  s         
   139      2.214721   7 H  s                76      1.727565   3 C  pz        
   126      1.701763   5 H  s                65     -1.514559   3 C  s         
 
 Vector   66  Occ=0.000000D+00  E= 1.433542D+00
              MO Center=  1.1D+00, -4.8D-01, -1.1D+00, r^2= 3.5D+00
   Bfn.  Coefficient  Atom+Function         Bfn.  Coefficient  Atom+Function  
  ----- ------------  ---------------      ----- ------------  ---------------
    98     10.137921   4 C  s                97     -7.615350   4 C  s         
    96      3.091258   4 C  s               145     -2.449957   8 H  s         
    36     -2.423128   2 C  s               151     -2.377580   9 H  s         
   157     -2.049362  10 H  s               144      1.725193   8 H  s         
   150      1.709851   9 H  s               104      1.459092   4 C  pz        
 
 Vector   67  Occ=0.000000D+00  E= 1.442807D+00
              MO Center=  3.3D-01, -1.9D-02,  8.3D-02, r^2= 4.1D+00
   Bfn.  Coefficient  Atom+Function         Bfn.  Coefficient  Atom+Function  
  ----- ------------  ---------------      ----- ------------  ---------------
    66      4.282919   3 C  s                98      4.049891   4 C  s         
    35     -3.494428   2 C  s                67     -2.824987   3 C  s         
    45      2.412833   2 C  pz              133      2.072784   6 H  s         
   127     -2.019836   5 H  s                76     -1.904544   3 C  pz        
    97     -1.845610   4 C  s                65     -1.603333   3 C  s         
 
 Vector   68  Occ=0.000000D+00  E= 1.446259D+00
              MO Center=  2.7D-01,  6.4D-02, -2.2D-01, r^2= 3.1D+00
   Bfn.  Coefficient  Atom+Function         Bfn.  Coefficient  Atom+Function  
  ----- ------------  ---------------      ----- ------------  ---------------
    98      3.691037   4 C  s                36     -3.213666   2 C  s         
     5      2.222931   1 O  s                97     -2.088742   4 C  s         
    67      1.775555   3 C  s                66     -1.745607   3 C  s         
    45      1.316861   2 C  pz               44     -1.102982   2 C  py        
    40      0.989880   2 C  px               12      0.883270   1 O  px        
 
 Vector   69  Occ=0.000000D+00  E= 1.474692D+00
              MO Center=  1.1D+00, -3.1D-01, -1.1D+00, r^2= 3.0D+00
   Bfn.  Coefficient  Atom+Function         Bfn.  Coefficient  Atom+Function  
  ----- ------------  ---------------      ----- ------------  ---------------
    36      2.311867   2 C  s               156     -1.677184  10 H  s         
   103      1.593896   4 C  py               98     -1.421659   4 C  s         
   157      1.275504  10 H  s               126      1.156595   5 H  s         
    97      1.073511   4 C  s               150      1.066766   9 H  s         
   106     -0.961636   4 C  py               35     -0.939395   2 C  s         
 
 Vector   70  Occ=0.000000D+00  E= 1.476708D+00
              MO Center=  9.3D-01, -4.0D-01, -9.9D-01, r^2= 3.5D+00
   Bfn.  Coefficient  Atom+Function         Bfn.  Coefficient  Atom+Function  
  ----- ------------  ---------------      ----- ------------  ---------------
    66      2.264511   3 C  s               156      2.246188  10 H  s         
   102      1.988499   4 C  px               36     -1.907654   2 C  s         
   157     -1.746154  10 H  s               104      1.616286   4 C  pz        
   126     -1.445696   5 H  s               144     -1.398431   8 H  s         
    35      1.191278   2 C  s               105     -1.154748   4 C  px        
 
 Vector   71  Occ=0.000000D+00  E= 1.510309D+00
              MO Center=  3.3D-01,  1.4D-01, -3.4D-01, r^2= 4.0D+00
   Bfn.  Coefficient  Atom+Function         Bfn.  Coefficient  Atom+Function  
  ----- ------------  ---------------      ----- ------------  ---------------
    98      2.696203   4 C  s               144      1.815056   8 H  s         
   102     -1.550479   4 C  px              145     -1.421226   8 H  s         
    45      1.287793   2 C  pz              103     -1.290565   4 C  py        
    97     -1.194895   4 C  s                66      0.975383   3 C  s         
   150     -0.890333   9 H  s               106      0.742481   4 C  py        
 
 Vector   72  Occ=0.000000D+00  E= 1.539720D+00
              MO Center=  3.3D-01,  5.0D-01, -1.7D-01, r^2= 4.6D+00
   Bfn.  Coefficient  Atom+Function         Bfn.  Coefficient  Atom+Function  
  ----- ------------  ---------------      ----- ------------  ---------------
    36      4.053898   2 C  s                98     -3.520012   4 C  s         
    35     -3.466857   2 C  s                97      3.105860   4 C  s         
    67     -2.313656   3 C  s                73      2.175916   3 C  pz        
   132     -1.782114   6 H  s               133      1.511867   6 H  s         
   138      1.361276   7 H  s               102     -1.343113   4 C  px        
 
 Vector   73  Occ=0.000000D+00  E= 1.577685D+00
              MO Center=  4.9D-01, -3.9D-02, -9.8D-02, r^2= 3.2D+00
   Bfn.  Coefficient  Atom+Function         Bfn.  Coefficient  Atom+Function  
  ----- ------------  ---------------      ----- ------------  ---------------
    35      3.623767   2 C  s                36     -3.003076   2 C  s         
    97     -2.346208   4 C  s                40     -1.948121   2 C  px        
    67      1.832925   3 C  s               126      1.726746   5 H  s         
    98      1.711849   4 C  s                42     -1.549220   2 C  pz        
    72      1.553246   3 C  py               34     -1.514354   2 C  s         
 
 Vector   74  Occ=0.000000D+00  E= 1.600934D+00
              MO Center=  3.6D-01,  3.5D-01, -1.7D-01, r^2= 3.4D+00
   Bfn.  Coefficient  Atom+Function         Bfn.  Coefficient  Atom+Function  
  ----- ------------  ---------------      ----- ------------  ---------------
    36     -5.333808   2 C  s                66     -5.219711   3 C  s         
    35      4.943857   2 C  s                67      4.004553   3 C  s         
    41      3.668089   2 C  py               71     -2.487279   3 C  px        
    72      2.323396   3 C  py               40     -2.027768   2 C  px        
    98      1.896273   4 C  s                82      1.638393   3 C  d -2      
 
 Vector   75  Occ=0.000000D+00  E= 1.642766D+00
              MO Center=  4.3D-01,  2.2D-01, -1.9D-03, r^2= 3.7D+00
   Bfn.  Coefficient  Atom+Function         Bfn.  Coefficient  Atom+Function  
  ----- ------------  ---------------      ----- ------------  ---------------
    66      2.559630   3 C  s                35      2.257570   2 C  s         
    98      1.993954   4 C  s                 5     -1.681652   1 O  s         
    97     -1.554190   4 C  s                67     -1.312480   3 C  s         
   104     -1.128178   4 C  pz              144      1.047619   8 H  s         
   150     -1.018938   9 H  s               103     -0.993050   4 C  py        
 
 Vector   76  Occ=0.000000D+00  E= 1.695983D+00
              MO Center=  6.0D-01,  4.2D-02, -4.3D-01, r^2= 3.6D+00
   Bfn.  Coefficient  Atom+Function         Bfn.  Coefficient  Atom+Function  
  ----- ------------  ---------------      ----- ------------  ---------------
    97     -5.535535   4 C  s                35      5.190952   2 C  s         
   104     -2.891300   4 C  pz               42     -2.781417   2 C  pz        
   102      1.937904   4 C  px               40      1.744739   2 C  px        
    66     -1.594329   3 C  s                96      1.509388   4 C  s         
    34     -1.440326   2 C  s               115     -1.124520   4 C  d  0      
 
 Vector   77  Occ=0.000000D+00  E= 1.702960D+00
              MO Center= -7.0D-02,  3.6D-01, -7.1D-02, r^2= 3.7D+00
   Bfn.  Coefficient  Atom+Function         Bfn.  Coefficient  Atom+Function  
  ----- ------------  ---------------      ----- ------------  ---------------
     5      3.916407   1 O  s                72      3.303284   3 C  py        
    97      2.656050   4 C  s                36     -2.316997   2 C  s         
   138     -2.012548   7 H  s                42      1.929177   2 C  pz        
    35     -1.813385   2 C  s               104      1.739175   4 C  pz        
    66     -1.689963   3 C  s                12      1.502168   1 O  px        
 
 Vector   78  Occ=0.000000D+00  E= 1.789495D+00
              MO Center=  3.9D-01,  2.6D-01,  2.1D-02, r^2= 3.5D+00
   Bfn.  Coefficient  Atom+Function         Bfn.  Coefficient  Atom+Function  
  ----- ------------  ---------------      ----- ------------  ---------------
    35      3.055485   2 C  s                97     -2.885745   4 C  s         
    36      1.673803   2 C  s               104     -1.275151   4 C  pz        
    45     -1.242618   2 C  pz               42     -1.144725   2 C  pz        
    67     -1.080124   3 C  s               102      0.966731   4 C  px        
   103     -0.932382   4 C  py               96      0.912638   4 C  s         
 
 Vector   79  Occ=0.000000D+00  E= 1.816948D+00
              MO Center= -6.5D-01,  1.6D-01,  2.0D-01, r^2= 2.5D+00
   Bfn.  Coefficient  Atom+Function         Bfn.  Coefficient  Atom+Function  
  ----- ------------  ---------------      ----- ------------  ---------------
    35      3.878886   2 C  s                 5     -3.329331   1 O  s         
    40     -2.371003   2 C  px               41      1.989562   2 C  py        
    72      1.844064   3 C  py               71     -1.595074   3 C  px        
    66     -1.560392   3 C  s                12     -1.399890   1 O  px        
   132     -1.046650   6 H  s               138     -1.009886   7 H  s         
 
 Vector   80  Occ=0.000000D+00  E= 1.841383D+00
              MO Center=  6.9D-02,  2.9D-01, -6.8D-02, r^2= 3.7D+00
   Bfn.  Coefficient  Atom+Function         Bfn.  Coefficient  Atom+Function  
  ----- ------------  ---------------      ----- ------------  ---------------
    35      1.574793   2 C  s                36     -1.127393   2 C  s         
   156     -0.929012  10 H  s               104     -0.780703   4 C  pz        
    41     -0.698596   2 C  py               66      0.665907   3 C  s         
    71     -0.665989   3 C  px              126     -0.642038   5 H  s         
   157      0.639698  10 H  s                97     -0.611269   4 C  s         
 
 Vector   81  Occ=0.000000D+00  E= 1.867231D+00
              MO Center=  5.3D-01,  1.9D-01, -4.5D-01, r^2= 4.0D+00
   Bfn.  Coefficient  Atom+Function         Bfn.  Coefficient  Atom+Function  
  ----- ------------  ---------------      ----- ------------  ---------------
    35      6.757799   2 C  s                66     -4.268230   3 C  s         
    72      3.477255   3 C  py               97     -3.493364   4 C  s         
    36      2.045394   2 C  s               104     -1.983647   4 C  pz        
    34     -1.668250   2 C  s                41      1.477117   2 C  py        
    67     -1.479723   3 C  s                45     -1.368695   2 C  pz        
 
 Vector   82  Occ=0.000000D+00  E= 1.918530D+00
              MO Center=  3.2D-01, -1.5D-01, -3.1D-01, r^2= 3.2D+00
   Bfn.  Coefficient  Atom+Function         Bfn.  Coefficient  Atom+Function  
  ----- ------------  ---------------      ----- ------------  ---------------
    97     -1.381377   4 C  s                36      1.363622   2 C  s         
    35      1.334364   2 C  s                98     -1.319788   4 C  s         
    45     -1.241865   2 C  pz              103     -1.237080   4 C  py        
    66     -0.989085   3 C  s                42     -0.866221   2 C  pz        
    41      0.793499   2 C  py              104     -0.795817   4 C  pz        
 
 Vector   83  Occ=0.000000D+00  E= 1.990578D+00
              MO Center=  7.8D-01, -1.9D-01, -2.9D-01, r^2= 3.4D+00
   Bfn.  Coefficient  Atom+Function         Bfn.  Coefficient  Atom+Function  
  ----- ------------  ---------------      ----- ------------  ---------------
    35      3.154668   2 C  s                98      3.164280   4 C  s         
    66     -2.527843   3 C  s                40     -2.214789   2 C  px        
    72      1.842127   3 C  py               41      1.617689   2 C  py        
    43     -1.506571   2 C  px               71     -1.365951   3 C  px        
    67     -1.335668   3 C  s                36     -1.205829   2 C  s         
 
 Vector   84  Occ=0.000000D+00  E= 2.000321D+00
              MO Center=  7.0D-01, -1.6D-01, -8.4D-01, r^2= 3.4D+00
   Bfn.  Coefficient  Atom+Function         Bfn.  Coefficient  Atom+Function  
  ----- ------------  ---------------      ----- ------------  ---------------
    36      4.626568   2 C  s                98     -4.421398   4 C  s         
    45     -2.207042   2 C  pz               35     -2.191898   2 C  s         
    67     -1.403844   3 C  s               107     -1.155708   4 C  pz        
   156      1.156966  10 H  s               104      0.928861   4 C  pz        
    34      0.891380   2 C  s                66      0.785940   3 C  s         
 
 Vector   85  Occ=0.000000D+00  E= 2.087408D+00
              MO Center= -3.2D-02,  1.6D-01, -3.4D-02, r^2= 3.5D+00
   Bfn.  Coefficient  Atom+Function         Bfn.  Coefficient  Atom+Function  
  ----- ------------  ---------------      ----- ------------  ---------------
    98      2.002047   4 C  s                36     -1.209006   2 C  s         
    41     -0.892539   2 C  py              156     -0.766635  10 H  s         
   138      0.709541   7 H  s                14      0.694547   1 O  pz        
    66      0.695057   3 C  s                73     -0.554639   3 C  pz        
    83      0.542204   3 C  d -1            150     -0.536852   9 H  s         
 
 Vector   86  Occ=0.000000D+00  E= 2.096573D+00
              MO Center= -3.9D-01,  7.7D-02,  8.3D-02, r^2= 2.9D+00
   Bfn.  Coefficient  Atom+Function         Bfn.  Coefficient  Atom+Function  
  ----- ------------  ---------------      ----- ------------  ---------------
    36      6.023386   2 C  s                67     -5.493287   3 C  s         
    35     -3.280575   2 C  s                66      3.146140   3 C  s         
    41     -2.903679   2 C  py               71      2.695089   3 C  px        
    13      1.885178   1 O  py               82     -1.441456   3 C  d -2      
    55      1.326680   2 C  d  2             43     -1.304268   2 C  px        
 
 Vector   87  Occ=0.000000D+00  E= 2.166444D+00
              MO Center=  5.3D-01, -1.7D-02, -5.0D-01, r^2= 3.2D+00
   Bfn.  Coefficient  Atom+Function         Bfn.  Coefficient  Atom+Function  
  ----- ------------  ---------------      ----- ------------  ---------------
    98     -1.997893   4 C  s                67      1.960741   3 C  s         
    35      1.251133   2 C  s                36     -1.109875   2 C  s         
    73     -1.034402   3 C  pz              156      0.963025  10 H  s         
    42      0.901533   2 C  pz               44     -0.891748   2 C  py        
    43      0.862539   2 C  px               40     -0.857531   2 C  px        
 
 Vector   88  Occ=0.000000D+00  E= 2.195862D+00
              MO Center=  3.6D-01,  2.4D-01, -2.1D-01, r^2= 3.6D+00
   Bfn.  Coefficient  Atom+Function         Bfn.  Coefficient  Atom+Function  
  ----- ------------  ---------------      ----- ------------  ---------------
    98      2.305882   4 C  s                36     -1.632406   2 C  s         
    45      1.097410   2 C  pz               76     -0.926313   3 C  pz        
   132      0.814317   6 H  s                42     -0.718641   2 C  pz        
   117     -0.716132   4 C  d  2             97     -0.681775   4 C  s         
   103     -0.647012   4 C  py              138     -0.618789   7 H  s         
 
 Vector   89  Occ=0.000000D+00  E= 2.227268D+00
              MO Center=  5.9D-01,  7.8D-02,  2.2D-03, r^2= 3.5D+00
   Bfn.  Coefficient  Atom+Function         Bfn.  Coefficient  Atom+Function  
  ----- ------------  ---------------      ----- ------------  ---------------
    36      2.976216   2 C  s                67     -1.579539   3 C  s         
    42     -1.183659   2 C  pz                5     -1.170328   1 O  s         
    98     -1.132172   4 C  s                72     -0.945259   3 C  py        
    66      0.811078   3 C  s               102      0.775248   4 C  px        
    97     -0.708789   4 C  s                51      0.675852   2 C  d -2      
 
 Vector   90  Occ=0.000000D+00  E= 2.243143D+00
              MO Center=  8.2D-01, -3.2D-01, -8.9D-01, r^2= 3.4D+00
   Bfn.  Coefficient  Atom+Function         Bfn.  Coefficient  Atom+Function  
  ----- ------------  ---------------      ----- ------------  ---------------
   150      1.300141   9 H  s                36      0.963937   2 C  s         
   144     -0.965727   8 H  s                67     -0.783536   3 C  s         
   117      0.747408   4 C  d  2            149     -0.542137   9 H  s         
    83      0.524748   3 C  d -1             72      0.497373   3 C  py        
    66     -0.485875   3 C  s               147      0.468683   8 H  py        
 
 Vector   91  Occ=0.000000D+00  E= 2.271469D+00
              MO Center=  7.0D-01, -3.0D-02, -8.5D-01, r^2= 3.4D+00
   Bfn.  Coefficient  Atom+Function         Bfn.  Coefficient  Atom+Function  
  ----- ------------  ---------------      ----- ------------  ---------------
    36      2.519842   2 C  s                98     -2.167863   4 C  s         
    67     -1.355129   3 C  s                66      1.338631   3 C  s         
    76      1.099277   3 C  pz               41     -1.070766   2 C  py        
    35     -0.793572   2 C  s               156      0.736418  10 H  s         
    45     -0.673297   2 C  pz               71      0.653997   3 C  px        
 
 Vector   92  Occ=0.000000D+00  E= 2.284491D+00
              MO Center=  7.9D-01, -1.8D-01, -4.8D-01, r^2= 3.7D+00
   Bfn.  Coefficient  Atom+Function         Bfn.  Coefficient  Atom+Function  
  ----- ------------  ---------------      ----- ------------  ---------------
    98      3.356663   4 C  s                66      2.858408   3 C  s         
[...]
    21     -0.876149   1 O  d -1             42     -0.799500   2 C  pz        
    45     -0.714492   2 C  pz               97     -0.702494   4 C  s         
    98     -0.547008   4 C  s                 5     -0.529718   1 O  s         
    83     -0.492172   3 C  d -1            102      0.490151   4 C  px        
 
 Vector  154  Occ=0.000000D+00  E= 6.675672D+00
              MO Center= -8.7D-01, -1.8D-01,  2.0D-01, r^2= 5.7D-01
   Bfn.  Coefficient  Atom+Function         Bfn.  Coefficient  Atom+Function  
  ----- ------------  ---------------      ----- ------------  ---------------
    18      1.066911   1 O  d  1             23     -1.036712   1 O  d  1      
    97     -0.883417   4 C  s                42     -0.801006   2 C  pz        
    35      0.771681   2 C  s               102      0.654899   4 C  px        
    54     -0.549032   2 C  d  1             45     -0.419263   2 C  pz        
    14      0.406693   1 O  pz               11      0.383758   1 O  pz        
 
 Vector  155  Occ=0.000000D+00  E= 6.841587D+00
              MO Center= -8.8D-01, -1.9D-01,  2.0D-01, r^2= 5.9D-01
   Bfn.  Coefficient  Atom+Function         Bfn.  Coefficient  Atom+Function  
  ----- ------------  ---------------      ----- ------------  ---------------
     5      2.120132   1 O  s                40      1.772758   2 C  px        
     9      1.360713   1 O  px               97     -1.332375   4 C  s         
     4      1.201089   1 O  s                20      1.044418   1 O  d -2      
    42     -1.001143   2 C  pz               12      0.849799   1 O  px        
   104     -0.849891   4 C  pz               15     -0.832600   1 O  d -2      
 
 Vector  156  Occ=0.000000D+00  E= 7.057048D+00
              MO Center= -8.9D-01, -1.9D-01,  2.0D-01, r^2= 6.4D-01
   Bfn.  Coefficient  Atom+Function         Bfn.  Coefficient  Atom+Function  
  ----- ------------  ---------------      ----- ------------  ---------------
    66     -3.190253   3 C  s                35      3.039366   2 C  s         
    40     -2.727649   2 C  px               72      2.709133   3 C  py        
    24     -1.578317   1 O  d  2             36      1.423936   2 C  s         
    10      1.284673   1 O  py               67     -1.263428   3 C  s         
    19      1.017194   1 O  d  2             13      0.863532   1 O  py        
 
 Vector  157  Occ=0.000000D+00  E= 2.193618D+01
              MO Center=  1.9D-02,  8.5D-01,  1.1D-01, r^2= 1.0D+00
   Bfn.  Coefficient  Atom+Function         Bfn.  Coefficient  Atom+Function  
  ----- ------------  ---------------      ----- ------------  ---------------
    64      1.625302   3 C  s                65     -1.399390   3 C  s         
    67     -1.311458   3 C  s                63     -1.281291   3 C  s         
    98      0.964828   4 C  s                95     -0.673970   4 C  s         
    94      0.533354   4 C  s                96      0.535283   4 C  s         
    40     -0.458318   2 C  px               53     -0.369645   2 C  d  0      
 
 Vector  158  Occ=0.000000D+00  E= 2.198139D+01
              MO Center=  9.0D-01, -2.8D-01, -7.0D-01, r^2= 1.1D+00
   Bfn.  Coefficient  Atom+Function         Bfn.  Coefficient  Atom+Function  
  ----- ------------  ---------------      ----- ------------  ---------------
    95      1.407491   4 C  s                96     -1.301900   4 C  s         
    94     -1.107074   4 C  s                98     -1.082189   4 C  s         
    34     -1.042834   2 C  s                36     -1.046544   2 C  s         
    33      0.951919   2 C  s                32     -0.744231   2 C  s         
    67      0.679503   3 C  s                65     -0.574745   3 C  s         
 
 Vector  159  Occ=0.000000D+00  E= 2.210092D+01
              MO Center=  6.6D-01, -1.6D-01, -1.6D-01, r^2= 7.5D-01
   Bfn.  Coefficient  Atom+Function         Bfn.  Coefficient  Atom+Function  
  ----- ------------  ---------------      ----- ------------  ---------------
    36      2.131269   2 C  s                33     -1.499506   2 C  s         
    34      1.485919   2 C  s                98     -1.413888   4 C  s         
    35     -1.339512   2 C  s                32      1.174470   2 C  s         
    67     -1.043302   3 C  s                95      0.834039   4 C  s         
    96     -0.735492   4 C  s                94     -0.656352   4 C  s         
 
 Vector  160  Occ=0.000000D+00  E= 4.341170D+01
              MO Center= -8.8D-01, -1.8D-01,  2.1D-01, r^2= 1.2D-01
   Bfn.  Coefficient  Atom+Function         Bfn.  Coefficient  Atom+Function  
  ----- ------------  ---------------      ----- ------------  ---------------
     4      2.495479   1 O  s                 3     -1.871641   1 O  s         
     2      1.731333   1 O  s                 1     -1.395809   1 O  s         
     5     -0.881657   1 O  s                36      0.835850   2 C  s         
     9      0.555751   1 O  px               66     -0.509325   3 C  s         
    40      0.458810   2 C  px               72      0.454634   3 C  py        
 

 center of mass
 --------------
 x =   0.30619318 y =   0.09486546 z =  -0.27792474

 moments of inertia (a.u.)
 ------------------
         200.279949098908          45.683945855926          83.834814773223
          45.683945855926         248.020018539859         -52.682497013289
          83.834814773223         -52.682497013289         239.135199210932
 
     Multipole analysis of the density
     ---------------------------------
 
     L   x y z        total         alpha         beta         nuclear
     -   - - -        -----         -----         ----         -------
     0   0 0 0     -0.000000    -16.000000    -16.000000     32.000000
 
     1   1 0 0      0.698868     -6.221572     -6.221572     13.142012
     1   0 1 0      0.323064     -1.625254     -1.625254      3.573572
     1   0 0 1     -0.064157      5.320625      5.320625    -10.705407
 
     2   2 0 0    -20.028254    -54.360115    -54.360115     88.691976
     2   1 1 0     -1.136857     13.915351     13.915351    -28.967558
     2   1 0 1      0.106889     26.529759     26.529759    -52.952629
     2   0 2 0    -17.850792    -40.565478    -40.565478     63.280165
     2   0 1 1      0.273232    -15.437633    -15.437633     31.148497
     2   0 0 2    -18.126156    -45.783686    -45.783686     73.441215
 
 *** CALLING NEW AORESP DRIVER FOR CLOSED AND OPEN SHELLS ***
 Entering AOResponse driver routine


--------------------------------------------------------------------------------

          ****************
          *** RESPONSE ***
          ****************

 Response module for NWChem and dynamic CPKS solver
 developed by J. Autschbach and coworkers, SUNY Buffalo
 The methodology used in this program is described in 
 ChemPhysChem 12 (2011), 3224-3235 (main reference)
 J. Chem. Phys. 123 (2005), 114103
 J. Chem. Phys. 122 (2005), 224115
 J. Chem. Phys. 122 (2005), 074105
 Comp. Lett. 3 (2007), 131-150 (contact JA for a copy)
 Please cite this work in publications based on results
 obtained with this code. Thank you!

 For extension of response module to open shell
 calculations please acknowledge:
 F. Aquino, Northwestern University, Schatz Rsrch Group
 The update to the methodology is described in
 J. Phys. Chem. A 118 (2014) 517-525



          -----------------------------------------------
          Solving response equations for perturbing field
          -----------------------------------------------

 number of frequencies:     1
 frequency in a.u.:  0.9319600E-01
 Perturbing field: electric
 Using GIAO formalism for OptRot
 Adding quadrupole terms to OptRot
 to create an origin in dependent tensor.
 Using El. Dipole Length Gauge
 
 Applying DAMPING constant of  0.003700 a.u.
 
 Setting up CPKS
 with frequency omega =      0.09319600 a.u.
 and a damping of            0.00370000 a.u.

 
                            NWChem Dynamic CPHF Module
                            --------------------------
 
 
    scftype = RHF 
    nclosed =   16
      nopen =    0
  variables =     9216
  num. vecs =        3
  tolerance =   1.0D-07
  max. iter =  100

 SCF residual:   4.751733085233449E-006


Iterative solution of linear equations
  No. of variables     4608
  No. of equations        3
  Maximum subspace       99
       Convergence  1.0D-07
        Start time     94.3


   iter   nsub   residual    time 
   ----  ------  --------  --------- 
 dft_CPHF2_read: failed to open
 ./methyloxirane_blyp-def2-tzvp_488.9_39.inp.aoresp_fiao_f1
     1      3    3.81D+00     143.3
     2      6    2.69D+00     192.6
     3      9    2.42D-01     241.9
     4     12    5.40D-02     291.2
     5     15    1.04D-02     340.4
     6     18    1.26D-03     389.7
     7     21    1.44D-04     439.0
     8     24    1.38D-05     488.2
     9     27    1.28D-06     537.5
    10     30    4.86D-07     586.9
    11     33    1.24D-08     637.5

 Calculating some arrays needed for GIAO optical rotation

    0 giaofock schwarz done =      92.88%
    0 giaofock schwarz done =      94.12%
 aor_r1_tensor_giao: roadata output requested
 dip-quad polarizability Re:

              1        2        3        4        5        6      
    1   77.2747  -6.2545 -27.8441  -4.5685   1.3139   9.2017
    2  -11.9390  25.5109   3.6084  24.1347 -21.6093   3.9761
    3   -6.9641   1.2332  39.1987  -0.1872  14.1727 -40.6263
 traceless dip-quad polarizability:

              1        2        3      
    1   74.9581  -9.3817 -41.7662
    2   -9.3817 -47.8067   1.9708
    3  -41.7662   1.9708 -27.1514

              1        2        3      
    1  -25.9945  38.2664   5.4126
    2   38.2664  28.1162 -32.4140
    3    5.4126 -32.4140  -2.1218

              1        2        3      
    1   13.4427   1.8498  58.7981
    2    1.8498  23.6080  21.2591
    3   58.7981  21.2591 -37.0507

 roa begin

 alpha real:
 XX       0.4104754365239E+02
 XY      -0.5242025423422E+01
 XZ      -0.3122539724627E+01
 YX      -0.5242025432233E+01
 YY       0.4420057419432E+02
 YZ       0.3262834677526E+01
 ZX      -0.3122539730062E+01
 ZY       0.3262834679002E+01
 ZZ       0.4151479763143E+02

 alpha im:
 XX       0.1116836818569E+00
 XY      -0.3056249822482E-01
 XZ      -0.1193934590013E-01
 YX      -0.3056249432942E-01
 YY       0.1308553236096E+00
 YZ       0.1921481818041E-01
 ZX      -0.1193934153427E-01
 ZY       0.1921481688603E-01
 ZZ       0.1229600413100E+00

 beta real:
 XX      -0.1423817115685E+00
 XY       0.9375954870629E+00
 XZ       0.2071941044923E+00
 YX      -0.8786306351163E+00
 YY       0.1477189254777E+00
 YZ      -0.1546815946268E+01
 ZX      -0.4867869746121E+00
 ZY       0.1870947275018E+01
 ZZ      -0.1052750239727E-01

 G-prime = -omega beta(real):
 XX      -0.1423817115685E+00
 XY       0.9375954870629E+00
 XZ       0.2071941044923E+00
 YX      -0.8786306351163E+00
 YY       0.1477189254777E+00
 YZ      -0.1546815946268E+01
 ZX      -0.4867869746121E+00
 ZY       0.1870947275018E+01
 ZZ      -0.1052750239727E-01

 beta im:
 XX      -0.6088874355373E-02
 XY       0.1335599354909E-01
 XZ       0.3046653983238E-02
 YX      -0.7320647732391E-02
 YY       0.4882714769218E-02
 YZ      -0.2362178618772E-01
 ZX      -0.1355028139204E-01
 ZY       0.4036862480730E-01
 ZZ       0.3416614954462E-03

 G-prime = -omega beta(imag):
 XX      -0.6088874355373E-02
 XY       0.1335599354909E-01
 XZ       0.3046653983238E-02
 YX      -0.7320647732391E-02
 YY       0.4882714769218E-02
 YZ      -0.2362178618772E-01
 ZX      -0.1355028139204E-01
 ZY       0.4036862480730E-01
 ZZ       0.3416614954462E-03

 dipole-quadrupole real (Cartesian):
 XXX      0.7727472012417E+02
 XXY     -0.6254454768675E+01
 XXZ     -0.2784410880937E+02
 XYY     -0.4568486967614E+01
 XYZ      0.1313852010868E+01
 XZZ      0.9201748581781E+01
 YXX     -0.1193904589061E+02
 YXY      0.2551090769787E+02
 YXZ      0.3608425456415E+01
 YYY      0.2413474668683E+02
 YYZ     -0.2160931480808E+02
 YZZ      0.3976100075354E+01
 ZXX     -0.6964096205166E+01
 ZXY      0.1233199602572E+01
 ZXZ      0.3919871869597E+02
 ZYY     -0.1871850216890E+00
 ZYZ      0.1417274708298E+02
 ZZZ     -0.4062633456729E+02

 dipole-quadrupole imag (Cartesian):
 XXX      0.2713631583236E+00
 XXY     -0.3456602812763E-01
 XXZ     -0.7901919820353E-01
 XYY     -0.3075125030213E-01
 XYZ      0.2795797995298E-02
 XZZ      0.6134007317824E-01
 YXX     -0.5729591271580E-01
 YXY      0.6205818570353E-01
 YXZ      0.2119728676609E-01
 YYY      0.9600011322200E-01
 YYZ     -0.6202496470130E-01
 YZZ      0.8741209728059E-02
 ZXX     -0.3624278943441E-01
 ZXY      0.9932556574036E-03
 ZXZ      0.1445330452304E+00
 ZYY      0.5022677875119E-02
 ZYZ      0.6840818688363E-01
 ZZZ     -0.9242911145223E-01

 dipole-quadrupole (traceless):
 XXX      0.7495808931708E+02
 XXY     -0.9381682153013E+01
 XXZ     -0.4176616321405E+02
 XYY     -0.4780672132059E+02
 XYZ      0.1970778016301E+01
 XZZ     -0.2715136799649E+02
 YXX     -0.2599446927171E+02
 YXY      0.3826636154680E+02
 YXZ      0.5412638184622E+01
 YYY      0.2811621959446E+02
 YYZ     -0.3241397221212E+02
 YZZ     -0.2121750322753E+01
 ZXX      0.1344266358932E+02
 ZXY      0.1849799403858E+01
 ZXZ      0.5879807804395E+02
 ZYY      0.2360803036454E+02
 ZYZ      0.2125912062446E+02
 ZZZ     -0.3705069395387E+02

 roa end


 Electric Dipole Response Matrix (nonzero elements):

              1        2        3      
    1   41.0475  -5.2420  -3.1225
    2   -5.2420  44.2006   3.2628
    3   -3.1225   3.2628  41.5148
 
 Imaginary part:

              1        2        3      
    1    0.1117  -0.0306  -0.0119
    2   -0.0306   0.1309   0.0192
    3   -0.0119   0.0192   0.1230

 ------------------------------------------
 average:        42.25431 + I       0.12183


 DFT Linear Response polarizability / au 
 Frequency  =       0.0931960 / au
 Wavelength =     488.8981609 / nm
              X              Y              Z
 -----------------------------------------------
 X      41.0475437     -5.2420254     -3.1225397
 Y      -5.2420254     44.2005742      3.2628347
 Z      -3.1225397      3.2628347     41.5147976
 -----------------------------------------------
 Eigenvalues =      37.0329104     50.3716809     39.3583242
 Isotropic   =      42.2543052
 Anisotropic =      10.0767781
 -----------------------------------------------
 *************************

 DFT Linear Response IMAG polarizability / au 
 Frequency  =       0.0931960 / au
 Wavelength =     488.8981609 / nm
              X              Y              Z
 -----------------------------------------------
 X       0.1116837     -0.0305625     -0.0119393
 Y      -0.0305625      0.1308553      0.0192148
 Z      -0.0119393      0.0192148      0.1229600
 -----------------------------------------------
 Eigenvalues =       0.0891207      0.1653202      0.1110581
 Isotropic   =       0.1218330
 Anisotropic =       0.0554737
 -----------------------------------------------
 *************************

 Magnetic Dipole Response Matrix (nonzero elements):
 Optical rotation tensor Beta
 (Buckingham-Dunn version including dipole-quadrupole terms)

              1        2        3      
    1    2.7154  -0.4519   0.3720
    2   -0.4519  -1.6254  -1.7596
    3    0.3720  -1.7596  -1.0343
 
 Imaginary part:

              1        2        3      
    1    0.0653  -0.1433  -0.0327
    2    0.0786  -0.0524   0.2535
    3    0.1454  -0.4332  -0.0037

 ------------------------------------------
 average:         0.01856 + I       0.00309

 Principal components and PAS (Real part)
                 -3.11598
                  2.85534
                  0.31633
 ------------------------
 average:         0.01856

              1        2        3      
    1    0.0182   0.9723  -0.2331
    2    0.7652  -0.1636  -0.6227
    3    0.6435   0.1670   0.7470

 Chiral response tensor (Real part):

              1        2        3      
    1   -1.3298   0.2259  -0.1860
    2    0.2259   0.8405   0.8798
    3   -0.1860   0.8798   0.5450
 
 Principal components and PAS (Real part)
                  1.58584
                 -1.39982
                 -0.13032
 ------------------------
 average:         0.01856

              1        2        3      
    1    0.0182   0.9723  -0.2331
    2    0.7652  -0.1636  -0.6227
    3    0.6435   0.1670   0.7470
 Exiting AOResponse driver routine

 Task  times  cpu:      615.5s     wall:      632.6s
 
 
                                NWChem Input Module
                                -------------------
 
 
 Summary of allocated global arrays
-----------------------------------
  No active global arrays



                         GA Statistics for process    0
                         ------------------------------

       create   destroy   get      put      acc     scatter   gather  read&inc
calls: 3294     3294     7.68e+06 3.14e+06 7.51e+05 2694        0      997     
number of processes/call 1.01e+00 1.03e+00 1.43e+00 0.00e+00 0.00e+00
bytes total:             1.70e+09 1.26e+08 1.78e+09 1.84e+02 0.00e+00 7.98e+03
bytes remote:            7.26e+08 3.29e+07 1.04e+09 0.00e+00 0.00e+00 0.00e+00
Max memory consumed for GA by this process: 11242192 bytes
 
MA_summarize_allocated_blocks: starting scan ...
MA_summarize_allocated_blocks: scan completed: 0 heap blocks, 0 stack blocks
MA usage statistics:

	allocation statistics:
					      heap	     stack
					      ----	     -----
	current number of blocks	         0	         0
	maximum number of blocks	        24	        52
	current total bytes		         0	         0
	maximum total bytes		   7519856	  47883176
	maximum total K-bytes		      7520	     47884
	maximum total M-bytes		         8	        48
 
 
                                     CITATION
                                     --------
                Please cite the following reference when publishing
                           results obtained with NWChem:
 
                 M. Valiev, E.J. Bylaska, N. Govind, K. Kowalski,
              T.P. Straatsma, H.J.J. van Dam, D. Wang, J. Nieplocha,
                        E. Apra, T.L. Windus, W.A. de Jong
                 "NWChem: a comprehensive and scalable open-source
                  solution for large scale molecular simulations"
                      Comput. Phys. Commun. 181, 1477 (2010)
                           doi:10.1016/j.cpc.2010.04.018
 
                                      AUTHORS
                                      -------
          E. Apra, E. J. Bylaska, W. A. de Jong, N. Govind, K. Kowalski,
       T. P. Straatsma, M. Valiev, H. J. J. van Dam, D. Wang, T. L. Windus,
        J. Hammond, J. Autschbach, K. Bhaskaran-Nair, J. Brabec, K. Lopata,
    S. A. Fischer, S. Krishnamoorthy, M. Jacquelin, W. Ma, M. Klemm, O. Villa,
      Y. Chen, V. Anisimov, F. Aquino, S. Hirata, M. T. Hackler, V. Konjkov,
            D. Mejia-Rodriguez, T. Risthaus, M. Malagoli, A. Marenich,
   A. Otero-de-la-Roza, J. Mullin, P. Nichols, R. Peverati, J. Pittner, Y. Zhao,
        P.-D. Fan, A. Fonari, M. J. Williamson, R. J. Harrison, J. R. Rehr,
      M. Dupuis, D. Silverstein, D. M. A. Smith, J. Nieplocha, V. Tipparaju,
    M. Krishnan, B. E. Van Kuiken, A. Vazquez-Mayagoitia, L. Jensen, M. Swart,
      Q. Wu, T. Van Voorhis, A. A. Auer, M. Nooijen, L. D. Crosby, E. Brown,
      G. Cisneros, G. I. Fann, H. Fruchtl, J. Garza, K. Hirao, R. A. Kendall,
      J. A. Nichols, K. Tsemekhman, K. Wolinski, J. Anchell, D. E. Bernholdt,
      P. Borowski, T. Clark, D. Clerc, H. Dachsel, M. J. O. Deegan, K. Dyall,
    D. Elwood, E. Glendening, M. Gutowski, A. C. Hess, J. Jaffe, B. G. Johnson,
     J. Ju, R. Kobayashi, R. Kutteh, Z. Lin, R. Littlefield, X. Long, B. Meng,
      T. Nakajima, S. Niu, L. Pollack, M. Rosing, K. Glaesemann, G. Sandrone,
      M. Stave, H. Taylor, G. Thomas, J. H. van Lenthe, A. T. Wong, Z. Zhang.

 Total times  cpu:      688.8s     wall:      707.7s
