 argument  1 = methyloxirane_blyp-def2-tzvp_488.9_48.inp
 


============================== echo of input deck ==============================
echo
start methyloxirane_blyp-def2-tzvp_488.9_48.inp
title "methyloxirane roa calculations at 488.9 nm, input generated in va  with delta_type=2"
charge 0



geometry units angstrom nocenter noautoz noautosym nucleus point;symmetry c1
 O -0.879109 -0.180289  0.205216
 C  0.574310 -0.157765  0.122819
 C -0.185371  1.088006  0.343076
 C  1.185495 -0.520484 -1.211353
 H  1.057300 -0.602421  0.995729
 H -0.226918  1.529489  1.316235
 H -0.328259  1.795226 -0.508602
 H  2.241283 -0.216209 -1.245689
 H  1.142500 -1.605807 -1.374253
 H  0.651222 -0.026742 -2.034303
end

basis spherical
* library def2-TZVP
end

 set prop:newaoresp 1
 set aor:roadata T
 set cphf:maxsub 100
 set cphf:acc 1.0d-10
 set cphf:maxiter 100

property
    response 1   0.093196
    bdtensor
    convergence 1e-7
    damping 0.0037
    giao
end

dft
 direct
 mult 1
 xc becke88 lyp
 iterations 250
 tolerances tight
 grid xfine
 convergence nolevelshifting
 convergence energy 1e-8
 convergence gradient 1e-7


end

task dft gradient
task dft property
================================================================================


                                         
                                         
 
 
              Northwest Computational Chemistry Package (NWChem) 6.8
              ------------------------------------------------------
 
 
                    Environmental Molecular Sciences Laboratory
                       Pacific Northwest National Laboratory
                                Richland, WA 99352
 
                              Copyright (c) 1994-2017
                       Pacific Northwest National Laboratory
                            Battelle Memorial Institute
 
             NWChem is an open-source computational chemistry package
                        distributed under the terms of the
                      Educational Community License (ECL) 2.0
             A copy of the license is included with this distribution
                              in the LICENSE.TXT file
 
                                  ACKNOWLEDGMENT
                                  --------------

            This software and its documentation were developed at the
            EMSL at Pacific Northwest National Laboratory, a multiprogram
            national laboratory, operated for the U.S. Department of Energy
            by Battelle under Contract Number DE-AC05-76RL01830. Support
            for this work was provided by the Department of Energy Office
            of Biological and Environmental Research, Office of Basic
            Energy Sciences, and the Office of Advanced Scientific Computing.


           Job information
           ---------------

    hostname        = cpn-d12-05.cbls.ccr.buffalo.edu
    program         = /util/academic/nwchem/nwchem-6.8/bin/LINUX64/nwchem
    date            = Fri Mar  1 10:50:32 2019

    compiled        = Tue_Nov_06_14:59:08_2018
    source          = /util/academic/nwchem/nwchem-6.8
    nwchem branch   = 6.8
    nwchem revision = v6.8-47-gdf6c956
    ga revision     = ga-5.6.3
    use scalapack   = F
    input           = methyloxirane_blyp-def2-tzvp_488.9_48.inp
    prefix          = methyloxirane_blyp-def2-tzvp_488.9_48.inp.
    data base       = ./methyloxirane_blyp-def2-tzvp_488.9_48.inp.db
    status          = startup
    nproc           =        7
    time left       =     -1s



           Memory information
           ------------------

    heap     =   13107196 doubles =    100.0 Mbytes
    stack    =   13107201 doubles =    100.0 Mbytes
    global   =   26214400 doubles =    200.0 Mbytes (distinct from heap & stack)
    total    =   52428797 doubles =    400.0 Mbytes
    verify   = yes
    hardfail = no 


           Directory information
           ---------------------
 
  0 permanent = .
  0 scratch   = .
 
 
 
 
                                NWChem Input Module
                                -------------------
 
 
                    methyloxirane roa calculations at 488.9 nm, input generated in va  with delta_type=2
                    ------------------------------------------

 Scaling coordinates for geometry "geometry" by  1.889725989
 (inverse scale =  0.529177249)

 
 
                             Geometry "geometry" -> ""
                             -------------------------
 
 Output coordinates in angstroms (scale by  1.889725989 to convert to a.u.)
 
  No.       Tag          Charge          X              Y              Z
 ---- ---------------- ---------- -------------- -------------- --------------
    1 O                    8.0000    -0.87910900    -0.18028900     0.20521600
    2 C                    6.0000     0.57431000    -0.15776500     0.12281900
    3 C                    6.0000    -0.18537100     1.08800600     0.34307600
    4 C                    6.0000     1.18549500    -0.52048400    -1.21135300
    5 H                    1.0000     1.05730000    -0.60242100     0.99572900
    6 H                    1.0000    -0.22691800     1.52948900     1.31623500
    7 H                    1.0000    -0.32825900     1.79522600    -0.50860200
    8 H                    1.0000     2.24128300    -0.21620900    -1.24568900
    9 H                    1.0000     1.14250000    -1.60580700    -1.37425300
   10 H                    1.0000     0.65122200    -0.02674200    -2.03430300
 
      Atomic Mass 
      ----------- 
 
      O                 15.994910
      C                 12.000000
      H                  1.007825
 

 Effective nuclear repulsion energy (a.u.)     123.5463980066

            Nuclear Dipole moment (a.u.) 
            ----------------------------
        X                 Y               Z
 ---------------- ---------------- ----------------
    13.1352207850     3.5711399225   -10.7372397637
 
 
            XYZ format geometry
            -------------------
    10
 geometry
 O                    -0.87910900    -0.18028900     0.20521600
 C                     0.57431000    -0.15776500     0.12281900
 C                    -0.18537100     1.08800600     0.34307600
 C                     1.18549500    -0.52048400    -1.21135300
 H                     1.05730000    -0.60242100     0.99572900
 H                    -0.22691800     1.52948900     1.31623500
 H                    -0.32825900     1.79522600    -0.50860200
 H                     2.24128300    -0.21620900    -1.24568900
 H                     1.14250000    -1.60580700    -1.37425300
 H                     0.65122200    -0.02674200    -2.03430300
 
 ==============================================================================
                                internuclear distances
 ------------------------------------------------------------------------------
       center one      |      center two      | atomic units |  angstroms
 ------------------------------------------------------------------------------
    2 C                |   1 O                |     2.75130  |     1.45593
    3 C                |   1 O                |     2.74424  |     1.45219
    3 C                |   2 C                |     2.78859  |     1.47566
    4 C                |   2 C                |     2.85663  |     1.51166
    5 H                |   2 C                |     2.06402  |     1.09223
    6 H                |   3 C                |     2.02092  |     1.06943
    7 H                |   3 C                |     2.10934  |     1.11621
    8 H                |   4 C                |     2.07737  |     1.09930
    9 H                |   4 C                |     2.07553  |     1.09832
   10 H                |   4 C                |     2.07567  |     1.09840
 ------------------------------------------------------------------------------
                         number of included internuclear distances:         10
 ==============================================================================



 ==============================================================================
                                 internuclear angles
 ------------------------------------------------------------------------------
        center 1       |       center 2       |       center 3       |  degrees
 ------------------------------------------------------------------------------
    2 C                |   1 O                |   3 C                |    60.99
    2 C                |   1 O                |   3 C                |    60.99
    1 O                |   2 C                |   4 C                |   116.73
    1 O                |   2 C                |   5 H                |   112.95
    3 C                |   2 C                |   4 C                |   122.85
    3 C                |   2 C                |   5 H                |   116.88
    4 C                |   2 C                |   5 H                |   115.40
    3 C                |   1 O                |   2 C                |    60.99
    1 O                |   3 C                |   6 H                |   115.36
    1 O                |   3 C                |   7 H                |   114.82
    2 C                |   3 C                |   6 H                |   120.29
    2 C                |   3 C                |   7 H                |   119.14
    6 H                |   3 C                |   7 H                |   115.33
    2 C                |   4 C                |   8 H                |   110.45
    2 C                |   4 C                |   9 H                |   110.62
    2 C                |   4 C                |  10 H                |   110.90
    8 H                |   4 C                |   9 H                |   107.85
    8 H                |   4 C                |  10 H                |   108.62
    9 H                |   4 C                |  10 H                |   108.30
 ------------------------------------------------------------------------------
                            number of included internuclear angles:         19
 ==============================================================================



  warning:::::::::::::: from_environment
  NWCHEM_BASIS_LIBRARY set to: <
 /util/academic/nwchem/nwchem-6.8/src/basis/libraries>
  but file does not exist !
  using .nwchemrc or compiled library


 Summary of "ao basis" -> "" (spherical)
 ------------------------------------------------------------------------------
       Tag                 Description            Shells   Functions and Types
 ---------------- ------------------------------  ------  ---------------------
 *                         def2-TZVP                  on all atoms 


 
                                 NWChem DFT Module
                                 -----------------
 
 
                    methyloxirane roa calculations at 488.9 nm, input generated in va  with delta_type=2
 
 
                      Basis "ao basis" -> "ao basis" (spherical)
                      -----
  O (Oxygen)
  ----------
            Exponent  Coefficients 
       -------------- ---------------------------------------------------------
  1 S  2.70323826E+04  0.000217
  1 S  4.05238714E+03  0.001684
  1 S  9.22327227E+02  0.008740
  1 S  2.61240710E+02  0.035240
  1 S  8.53546414E+01  0.111535
  1 S  3.10350352E+01  0.255890
 
  2 S  1.22608607E+01  0.397687
  2 S  4.99870760E+00  0.246278
 
  3 S  1.17031082E+00  1.000000
 
  4 S  4.64747410E-01  1.000000
 
  5 S  1.85045364E-01  1.000000
 
  6 P  6.32749548E+01  0.006069
  6 P  1.46270494E+01  0.041913
  6 P  4.45012235E+00  0.161538
  6 P  1.52757996E+00  0.357070
 
  7 P  5.29351179E-01  1.000000
 
  8 P  1.74784213E-01  1.000000
 
  9 D  2.31400000E+00  1.000000
 
 10 D  6.45000000E-01  1.000000
 
 11 F  1.42800000E+00  1.000000
 
  C (Carbon)
  ----------
            Exponent  Coefficients 
       -------------- ---------------------------------------------------------
  1 S  1.35753497E+04  0.000222
  1 S  2.03523337E+03  0.001723
  1 S  4.63225624E+02  0.008926
  1 S  1.31200196E+02  0.035728
  1 S  4.28530159E+01  0.110763
  1 S  1.55841858E+01  0.242956
 
  2 S  6.20671385E+00  0.414403
  2 S  2.57648965E+00  0.237450
 
  3 S  5.76963394E-01  1.000000
 
  4 S  2.29728314E-01  1.000000
 
  5 S  9.51644400E-02  1.000000
 
  6 P  3.46972322E+01  0.005333
  6 P  7.95826228E+00  0.035864
  6 P  2.37808269E+00  0.142159
  6 P  8.14332082E-01  0.342705
 
  7 P  2.88875473E-01  1.000000
 
  8 P  1.00568237E-01  1.000000
 
  9 D  1.09700000E+00  1.000000
 
 10 D  3.18000000E-01  1.000000
 
 11 F  7.61000000E-01  1.000000
 
  H (Hydrogen)
  ------------
            Exponent  Coefficients 
       -------------- ---------------------------------------------------------
  1 S  3.40613410E+01  0.006025
  1 S  5.12357460E+00  0.045021
  1 S  1.16466260E+00  0.201897
 
  2 S  3.27230410E-01  1.000000
 
  3 S  1.03072410E-01  1.000000
 
  4 P  8.00000000E-01  1.000000
 


 Summary of "ao basis" -> "ao basis" (spherical)
 ------------------------------------------------------------------------------
       Tag                 Description            Shells   Functions and Types
 ---------------- ------------------------------  ------  ---------------------
 O                         def2-TZVP                11       31   5s3p2d1f
 C                         def2-TZVP                11       31   5s3p2d1f
 H                         def2-TZVP                 4        6   3s1p




 Summary of "ao basis" -> "ao basis" (spherical)
 ------------------------------------------------------------------------------
       Tag                 Description            Shells   Functions and Types
 ---------------- ------------------------------  ------  ---------------------
 O                         def2-TZVP                11       31   5s3p2d1f
 C                         def2-TZVP                11       31   5s3p2d1f
 H                         def2-TZVP                 4        6   3s1p


  Caching 1-el integrals 
  itol2e modified to match energy
  convergence criterion.
  tol_rho modified to match energy
  convergence criterion.
 
            General Information
            -------------------
          SCF calculation type: DFT
          Wavefunction type:  closed shell.
          No. of atoms     :    10
          No. of electrons :    32
           Alpha electrons :    16
            Beta electrons :    16
          Charge           :     0
          Spin multiplicity:     1
          Use of symmetry is: off; symmetry adaption is: off
          Maximum number of iterations: 250
          This is a Direct SCF calculation.
          AO basis - number of functions:   160
                     number of shells:    68
          Convergence on energy requested:  1.00D-08
          Convergence on density requested:  1.00D-05
          Convergence on gradient requested:  1.00D-07
 
              XC Information
              --------------
                    Becke 1988 Exchange Functional  1.000          
              Lee-Yang-Parr Correlation Functional  1.000          
 
             Grid Information
             ----------------
          Grid used for XC integration:  xfine     
          Radial quadrature: Mura-Knowles        
          Angular quadrature: Lebedev. 
          Tag              B.-S. Rad. Rad. Pts. Rad. Cut. Ang. Pts.
          ---              ---------- --------- --------- ---------
          O                   0.60      100          11.0      1454
          C                   0.70      100          11.0      1454
          H                   0.35      100          12.0      1202
          Grid pruning is: on 
          Number of quadrature shells:  1000
          Spatial weights used:  Erf1
 
          Convergence Information
          -----------------------
          Convergence aids based upon iterative change in 
          total energy or number of iterations. 
          Levelshifting, if invoked, occurs when the 
          HOMO/LUMO gap drops below (HL_TOL):  1.00D-02
          DIIS, if invoked, will attempt to extrapolate 
          using up to (NFOCK): 10 stored Fock matrices.

                    Damping( 0%)  Levelshifting(0.0)       DIIS
                  --------------- ------------------- ---------------
          dE  on:    start             N/A                start   
          dE off:    2 iters           N/A              250 iters 

 
      Screening Tolerance Information
      -------------------------------
          Density screening/tol_rho:  1.00D-11
          AO Gaussian exp screening on grid/accAOfunc:  18
          CD Gaussian exp screening on grid/accCDfunc:  20
          XC Gaussian exp screening on grid/accXCfunc:  20
          Schwarz screening/accCoul:  1.00D-09

 
      Superposition of Atomic Density Guess
      -------------------------------------
 
 Sum of atomic energies:        -190.79714706
 
      Non-variational initial energy
      ------------------------------

 Total energy =    -193.163851
 1-e energy   =    -502.048486
 2-e energy   =     185.338236
 HOMO         =      -0.351875
 LUMO         =       0.090529
 
   Time after variat. SCF:      0.6
   Time prior to 1st pass:      0.6

 Grid_pts file          = ./methyloxirane_blyp-def2-tzvp_488.9_48.inp.gridpts.0
 Record size in doubles =  12289        No. of grid_pts per rec  =   3070
 Max. records in memory =     76        Max. recs in file   =    317624


           Memory utilization after 1st SCF pass: 
           Heap Space remaining (MW):       12.17            12167540
          Stack Space remaining (MW):       13.11            13106124

   convergence    iter        energy       DeltaE   RMS-Dens  Diis-err    time
 ---------------- ----- ----------------- --------- --------- ---------  ------
 d= 0,ls=0.0,diis     1   -193.0196883678 -3.17D+02  9.16D-03  1.06D+00     6.9
 d= 0,ls=0.0,diis     2   -192.8585563705  1.61D-01  7.57D-03  2.55D+00    13.0
 d= 0,ls=0.0,diis     3   -193.0764319129 -2.18D-01  1.82D-03  3.88D-01    19.0
 d= 0,ls=0.0,diis     4   -193.1066809186 -3.02D-02  6.81D-04  1.81D-02    25.0
 d= 0,ls=0.0,diis     5   -193.1083418595 -1.66D-03  2.93D-04  2.70D-03    31.1
 d= 0,ls=0.0,diis     6   -193.1086787014 -3.37D-04  3.01D-05  3.48D-05    37.1
 d= 0,ls=0.0,diis     7   -193.1086828203 -4.12D-06  8.49D-06  4.12D-06    43.0
 d= 0,ls=0.0,diis     8   -193.1086832837 -4.63D-07  1.92D-06  2.72D-07    49.0
 d= 0,ls=0.0,diis     9   -193.1086833138 -3.00D-08  6.06D-07  1.24D-08    55.0
 d= 0,ls=0.0,diis    10   -193.1086833152 -1.49D-09  1.55D-07  1.07D-09    61.1


         Total DFT energy =     -193.108683315245
      One electron energy =     -505.707701877007
           Coulomb energy =      216.074836334125
    Exchange-Corr. energy =      -27.022215778957
 Nuclear repulsion energy =      123.546398006594

 Numeric. integr. density =       31.999999949371

     Total iterative time =     60.5s


 
                       DFT Final Molecular Orbital Analysis
                       ------------------------------------
 
 Vector    1  Occ=2.000000D+00  E=-1.877967D+01
              MO Center= -8.8D-01, -1.8D-01,  2.1D-01, r^2= 1.5D-02
   Bfn.  Coefficient  Atom+Function         Bfn.  Coefficient  Atom+Function  
  ----- ------------  ---------------      ----- ------------  ---------------
     2      0.638477   1 O  s                 1      0.435422   1 O  s         
     3      0.039883   1 O  s                 4     -0.033227   1 O  s         
 
 Vector    2  Occ=2.000000D+00  E=-9.962972D+00
              MO Center=  5.7D-01, -1.6D-01,  1.2D-01, r^2= 2.8D-02
   Bfn.  Coefficient  Atom+Function         Bfn.  Coefficient  Atom+Function  
  ----- ------------  ---------------      ----- ------------  ---------------
    33      0.606908   2 C  s                32      0.467261   2 C  s         
    34      0.042528   2 C  s                36      0.037364   2 C  s         
    35     -0.027246   2 C  s         
 
 Vector    3  Occ=2.000000D+00  E=-9.955446D+00
              MO Center= -1.9D-01,  1.1D+00,  3.4D-01, r^2= 2.8D-02
   Bfn.  Coefficient  Atom+Function         Bfn.  Coefficient  Atom+Function  
  ----- ------------  ---------------      ----- ------------  ---------------
    64      0.607022   3 C  s                63      0.467221   3 C  s         
    65      0.039761   3 C  s         
 
 Vector    4  Occ=2.000000D+00  E=-9.907927D+00
              MO Center=  1.2D+00, -5.2D-01, -1.2D+00, r^2= 2.8D-02
   Bfn.  Coefficient  Atom+Function         Bfn.  Coefficient  Atom+Function  
  ----- ------------  ---------------      ----- ------------  ---------------
    95      0.606962   4 C  s                94      0.467215   4 C  s         
    96      0.040596   4 C  s                98      0.035704   4 C  s         
 
 Vector    5  Occ=2.000000D+00  E=-9.623735D-01
              MO Center= -4.7D-01,  5.6D-02,  2.1D-01, r^2= 6.5D-01
   Bfn.  Coefficient  Atom+Function         Bfn.  Coefficient  Atom+Function  
  ----- ------------  ---------------      ----- ------------  ---------------
     4      0.375214   1 O  s                 3      0.277440   1 O  s         
     2     -0.192788   1 O  s                34      0.139793   2 C  s         
    65      0.139147   3 C  s                 5      0.122734   1 O  s         
    35      0.105106   2 C  s                 6      0.093278   1 O  px        
    66      0.093495   3 C  s                69     -0.091406   3 C  py        
 
 Vector    6  Occ=2.000000D+00  E=-6.696851D-01
              MO Center=  9.4D-01, -3.9D-01, -7.7D-01, r^2= 1.5D+00
   Bfn.  Coefficient  Atom+Function         Bfn.  Coefficient  Atom+Function  
  ----- ------------  ---------------      ----- ------------  ---------------
    97      0.285054   4 C  s                96      0.276178   4 C  s         
    35      0.185665   2 C  s                34      0.174837   2 C  s         
    95     -0.173896   4 C  s                 4     -0.147301   1 O  s         
    33     -0.109249   2 C  s                 3     -0.103009   1 O  s         
    94     -0.083322   4 C  s                 5     -0.073004   1 O  s         
 
 Vector    7  Occ=2.000000D+00  E=-5.902465D-01
              MO Center= -1.3D-01,  7.2D-01,  2.4D-01, r^2= 2.0D+00
   Bfn.  Coefficient  Atom+Function         Bfn.  Coefficient  Atom+Function  
  ----- ------------  ---------------      ----- ------------  ---------------
    66      0.325049   3 C  s                65      0.277623   3 C  s         
     4     -0.238473   1 O  s                64     -0.171657   3 C  s         
     3     -0.168378   1 O  s                 5     -0.147847   1 O  s         
     2      0.111189   1 O  s               132      0.109195   6 H  s         
    38      0.103686   2 C  py               97     -0.098688   4 C  s         
 
 Vector    8  Occ=2.000000D+00  E=-5.297838D-01
              MO Center=  4.2D-01,  1.2D-02, -9.3D-02, r^2= 2.7D+00
   Bfn.  Coefficient  Atom+Function         Bfn.  Coefficient  Atom+Function  
  ----- ------------  ---------------      ----- ------------  ---------------
    35      0.303261   2 C  s                34      0.224683   2 C  s         
    66     -0.155782   3 C  s                97     -0.156239   4 C  s         
    33     -0.138287   2 C  s               126      0.133293   5 H  s         
    96     -0.129558   4 C  s                 6      0.106393   1 O  px        
   125      0.106649   5 H  s                65     -0.101354   3 C  s         
 
 Vector    9  Occ=2.000000D+00  E=-4.493612D-01
              MO Center=  1.1D-01,  2.8D-01,  2.5D-01, r^2= 2.4D+00
   Bfn.  Coefficient  Atom+Function         Bfn.  Coefficient  Atom+Function  
  ----- ------------  ---------------      ----- ------------  ---------------
    70      0.212269   3 C  pz               39      0.152692   2 C  pz        
   132      0.145579   6 H  s                73      0.131848   3 C  pz        
     8      0.124248   1 O  pz              126      0.116204   5 H  s         
    38     -0.112809   2 C  py                6     -0.110360   1 O  px        
   131      0.108918   6 H  s                37      0.104308   2 C  px        
 
 Vector   10  Occ=2.000000D+00  E=-4.119029D-01
              MO Center=  5.2D-02,  2.9D-01, -2.5D-01, r^2= 2.6D+00
   Bfn.  Coefficient  Atom+Function         Bfn.  Coefficient  Atom+Function  
  ----- ------------  ---------------      ----- ------------  ---------------
    69      0.213791   3 C  py              101      0.156336   4 C  pz        
   138      0.152618   7 H  s                 6     -0.144810   1 O  px        
    38     -0.135654   2 C  py               37      0.128903   2 C  px        
    72      0.122576   3 C  py                7     -0.118536   1 O  py        
     9     -0.115725   1 O  px               70     -0.114554   3 C  pz        
 
 Vector   11  Occ=2.000000D+00  E=-3.772798D-01
              MO Center=  8.9D-01, -3.1D-01, -7.3D-01, r^2= 2.7D+00
   Bfn.  Coefficient  Atom+Function         Bfn.  Coefficient  Atom+Function  
  ----- ------------  ---------------      ----- ------------  ---------------
    99      0.212932   4 C  px              144      0.186029   8 H  s         
   100      0.159234   4 C  py              102      0.136591   4 C  px        
   150     -0.135913   9 H  s               143      0.130310   8 H  s         
    37      0.129180   2 C  px                6     -0.118952   1 O  px        
     7      0.118547   1 O  py              103      0.105176   4 C  py        
 
 Vector   12  Occ=2.000000D+00  E=-3.561199D-01
              MO Center=  6.1D-01, -3.6D-01, -8.9D-01, r^2= 2.8D+00
   Bfn.  Coefficient  Atom+Function         Bfn.  Coefficient  Atom+Function  
  ----- ------------  ---------------      ----- ------------  ---------------
   100      0.260001   4 C  py              150     -0.189626   9 H  s         
   156      0.173784  10 H  s               103      0.168544   4 C  py        
     7     -0.166984   1 O  py               10     -0.133650   1 O  py        
   149     -0.132152   9 H  s               155      0.122998  10 H  s         
    70      0.117398   3 C  pz              106      0.104582   4 C  py        
 
 Vector   13  Occ=2.000000D+00  E=-3.284373D-01
              MO Center=  3.3D-01,  2.8D-01, -2.2D-01, r^2= 2.7D+00
   Bfn.  Coefficient  Atom+Function         Bfn.  Coefficient  Atom+Function  
  ----- ------------  ---------------      ----- ------------  ---------------
    39      0.222624   2 C  pz              101     -0.200135   4 C  pz        
    70     -0.175172   3 C  pz              138      0.166737   7 H  s         
     7     -0.160072   1 O  py               42      0.151120   2 C  pz        
   104     -0.139797   4 C  pz               10     -0.128917   1 O  py        
    99      0.118267   4 C  px              137      0.111743   7 H  s         
 
 Vector   14  Occ=2.000000D+00  E=-3.217233D-01
              MO Center=  4.0D-01, -7.9D-02, -2.7D-01, r^2= 3.0D+00
   Bfn.  Coefficient  Atom+Function         Bfn.  Coefficient  Atom+Function  
  ----- ------------  ---------------      ----- ------------  ---------------
     7      0.209718   1 O  py               10      0.171902   1 O  py        
    99     -0.167780   4 C  px              126      0.155694   5 H  s         
     6     -0.153892   1 O  px              156      0.152929  10 H  s         
   144     -0.138704   8 H  s                37      0.137608   2 C  px        
     9     -0.126032   1 O  px               39      0.118885   2 C  pz        
 
 Vector   15  Occ=2.000000D+00  E=-2.634011D-01
              MO Center=  1.5D-02,  1.5D-01,  3.7D-02, r^2= 2.3D+00
   Bfn.  Coefficient  Atom+Function         Bfn.  Coefficient  Atom+Function  
  ----- ------------  ---------------      ----- ------------  ---------------
    68      0.264400   3 C  px               38      0.256573   2 C  py        
     6     -0.237130   1 O  px               41      0.199970   2 C  py        
    71      0.196515   3 C  px                9     -0.185444   1 O  px        
    12     -0.156993   1 O  px              150      0.114488   9 H  s         
   100     -0.110400   4 C  py               67      0.106712   3 C  s         
 
 Vector   16  Occ=2.000000D+00  E=-2.196238D-01
              MO Center= -5.8D-01, -2.5D-02,  1.9D-01, r^2= 1.6D+00
   Bfn.  Coefficient  Atom+Function         Bfn.  Coefficient  Atom+Function  
  ----- ------------  ---------------      ----- ------------  ---------------
     8      0.448881   1 O  pz               11      0.357502   1 O  pz        
    14      0.296248   1 O  pz              133     -0.129848   6 H  s         
   139      0.118491   7 H  s               138      0.105510   7 H  s         
   132     -0.102055   6 H  s               145     -0.102067   8 H  s         
   126     -0.096935   5 H  s                98      0.088585   4 C  s         
 
 Vector   17  Occ=0.000000D+00  E= 2.599743D-02
              MO Center=  1.2D+00, -7.8D-02, -6.8D-01, r^2= 7.2D+00
   Bfn.  Coefficient  Atom+Function         Bfn.  Coefficient  Atom+Function  
  ----- ------------  ---------------      ----- ------------  ---------------
    98      4.528021   4 C  s               145     -1.545351   8 H  s         
   151     -1.505356   9 H  s               157     -1.372405  10 H  s         
   127     -1.208477   5 H  s                45      1.132241   2 C  pz        
   139     -0.905105   7 H  s                67      0.676082   3 C  s         
   133     -0.558693   6 H  s                75      0.328099   3 C  py        
 
 Vector   18  Occ=0.000000D+00  E= 4.281517D-02
              MO Center= -1.2D-01,  6.5D-01,  9.8D-02, r^2= 4.5D+00
   Bfn.  Coefficient  Atom+Function         Bfn.  Coefficient  Atom+Function  
  ----- ------------  ---------------      ----- ------------  ---------------
    98      2.184746   4 C  s                36     -1.943681   2 C  s         
     5      1.273708   1 O  s                74      0.931555   3 C  px        
   151     -0.832112   9 H  s                45      0.509606   2 C  pz        
    13      0.437869   1 O  py              157     -0.432940  10 H  s         
    44     -0.392425   2 C  py              145     -0.379919   8 H  s         
 
 Vector   19  Occ=0.000000D+00  E= 4.902589D-02
              MO Center=  3.2D-01,  6.6D-01, -1.8D-01, r^2= 6.5D+00
   Bfn.  Coefficient  Atom+Function         Bfn.  Coefficient  Atom+Function  
  ----- ------------  ---------------      ----- ------------  ---------------
    67      3.035653   3 C  s                36     -2.498570   2 C  s         
   139     -1.704720   7 H  s               127      1.607706   5 H  s         
   157     -0.658476  10 H  s               145      0.639701   8 H  s         
    45     -0.611939   2 C  pz               44     -0.580933   2 C  py        
    76     -0.479223   3 C  pz               74      0.458326   3 C  px        
 
 Vector   20  Occ=0.000000D+00  E= 5.217552D-02
              MO Center=  6.4D-01,  4.1D-01,  4.6D-01, r^2= 7.5D+00
   Bfn.  Coefficient  Atom+Function         Bfn.  Coefficient  Atom+Function  
  ----- ------------  ---------------      ----- ------------  ---------------
    98      3.310241   4 C  s                67     -2.320252   3 C  s         
   133      1.807938   6 H  s               127      1.507264   5 H  s         
    36     -1.301365   2 C  s               157     -1.176781  10 H  s         
   145     -1.049232   8 H  s                44      1.038913   2 C  py        
    43     -0.700286   2 C  px              151     -0.634561   9 H  s         
 
 Vector   21  Occ=0.000000D+00  E= 6.398659D-02
              MO Center=  2.7D-01,  6.8D-02, -1.6D-01, r^2= 4.6D+00
   Bfn.  Coefficient  Atom+Function         Bfn.  Coefficient  Atom+Function  
  ----- ------------  ---------------      ----- ------------  ---------------
    98      1.343119   4 C  s               139      1.159502   7 H  s         
   151     -0.958290   9 H  s                 5     -0.914399   1 O  s         
    43     -0.867655   2 C  px               67     -0.755112   3 C  s         
    75     -0.607701   3 C  py              133      0.511822   6 H  s         
    12     -0.488198   1 O  px               36     -0.431650   2 C  s         
 
 Vector   22  Occ=0.000000D+00  E= 8.613623D-02
              MO Center=  1.3D+00,  2.0D-01, -5.1D-01, r^2= 7.1D+00
   Bfn.  Coefficient  Atom+Function         Bfn.  Coefficient  Atom+Function  
  ----- ------------  ---------------      ----- ------------  ---------------
    36      2.854372   2 C  s               145      2.056427   8 H  s         
    67     -1.537551   3 C  s               157     -1.315052  10 H  s         
   127     -1.284064   5 H  s               133      1.198420   6 H  s         
   107     -1.084212   4 C  pz              105     -1.048557   4 C  px        
    98     -0.915570   4 C  s                75      0.755980   3 C  py        
 
 Vector   23  Occ=0.000000D+00  E= 9.179766D-02
              MO Center=  1.1D+00, -6.1D-01, -5.0D-01, r^2= 6.7D+00
   Bfn.  Coefficient  Atom+Function         Bfn.  Coefficient  Atom+Function  
  ----- ------------  ---------------      ----- ------------  ---------------
    36      2.651467   2 C  s               151      2.068447   9 H  s         
   145     -1.514833   8 H  s                98     -1.277926   4 C  s         
    67     -1.159078   3 C  s               106      1.154648   4 C  py        
   105      1.068458   4 C  px              133      1.032826   6 H  s         
   127     -0.850775   5 H  s               107     -0.711079   4 C  pz        
 
 Vector   24  Occ=0.000000D+00  E= 1.025029D-01
              MO Center=  4.3D-01,  4.2D-01, -1.0D+00, r^2= 7.0D+00
   Bfn.  Coefficient  Atom+Function         Bfn.  Coefficient  Atom+Function  
  ----- ------------  ---------------      ----- ------------  ---------------
   157      2.039550  10 H  s               133      1.771106   6 H  s         
    36      1.487002   2 C  s               106     -1.461533   4 C  py        
    98     -1.450127   4 C  s               151     -1.400545   9 H  s         
   139     -1.376683   7 H  s                76     -1.169251   3 C  pz        
   105      1.022555   4 C  px               67     -0.632952   3 C  s         
 
 Vector   25  Occ=0.000000D+00  E= 1.393826D-01
              MO Center=  8.1D-01,  1.7D-01, -4.4D-01, r^2= 7.9D+00
   Bfn.  Coefficient  Atom+Function         Bfn.  Coefficient  Atom+Function  
  ----- ------------  ---------------      ----- ------------  ---------------
    36      4.567453   2 C  s                98     -3.548293   4 C  s         
    45     -3.441191   2 C  pz              127      2.763816   5 H  s         
    67     -2.560759   3 C  s                76      2.206247   3 C  pz        
   105      2.087657   4 C  px              133     -1.924961   6 H  s         
   139      1.649808   7 H  s               107     -1.583643   4 C  pz        
 
 Vector   26  Occ=0.000000D+00  E= 1.702724D-01
              MO Center=  4.3D-01,  5.6D-01, -1.2D-01, r^2= 7.3D+00
   Bfn.  Coefficient  Atom+Function         Bfn.  Coefficient  Atom+Function  
  ----- ------------  ---------------      ----- ------------  ---------------
    75      2.325391   3 C  py               67     -1.641873   3 C  s         
   107      1.610229   4 C  pz               36      1.574672   2 C  s         
   157      1.068021  10 H  s               139     -1.049003   7 H  s         
    74     -0.982423   3 C  px               44      0.748279   2 C  py        
    43     -0.629739   2 C  px              106     -0.567653   4 C  py        
 
 Vector   27  Occ=0.000000D+00  E= 1.974958D-01
              MO Center=  8.7D-01, -5.0D-02, -9.9D-01, r^2= 5.1D+00
   Bfn.  Coefficient  Atom+Function         Bfn.  Coefficient  Atom+Function  
  ----- ------------  ---------------      ----- ------------  ---------------
    67      3.021482   3 C  s                44     -2.569432   2 C  py        
   106      2.060739   4 C  py               36     -1.492537   2 C  s         
    43      0.960894   2 C  px               74      0.697638   3 C  px        
   150      0.659949   9 H  s               157     -0.661053  10 H  s         
    45     -0.632779   2 C  pz              105      0.613287   4 C  px        
 
 Vector   28  Occ=0.000000D+00  E= 2.020039D-01
              MO Center=  9.1D-01, -4.6D-01, -6.9D-01, r^2= 6.6D+00
   Bfn.  Coefficient  Atom+Function         Bfn.  Coefficient  Atom+Function  
  ----- ------------  ---------------      ----- ------------  ---------------
    36      2.735406   2 C  s                75      1.711861   3 C  py        
   105     -1.463076   4 C  px              133     -1.367870   6 H  s         
   107     -0.862178   4 C  pz               76      0.775678   3 C  pz        
    45      0.766336   2 C  pz              156     -0.715425  10 H  s         
   106      0.670564   4 C  py              139     -0.645949   7 H  s         
 
 Vector   29  Occ=0.000000D+00  E= 2.361637D-01
              MO Center= -2.8D-01,  3.6D-01, -5.9D-02, r^2= 5.4D+00
   Bfn.  Coefficient  Atom+Function         Bfn.  Coefficient  Atom+Function  
  ----- ------------  ---------------      ----- ------------  ---------------
    67      4.297318   3 C  s                36     -3.038134   2 C  s         
    66     -1.446502   3 C  s               139     -1.420467   7 H  s         
   133     -1.311237   6 H  s                98      1.282572   4 C  s         
   107      1.049191   4 C  pz               74     -0.801179   3 C  px        
     5     -0.756187   1 O  s               106      0.737495   4 C  py        
 
 Vector   30  Occ=0.000000D+00  E= 2.474185D-01
              MO Center=  5.3D-01,  2.9D-02, -6.0D-02, r^2= 5.9D+00
   Bfn.  Coefficient  Atom+Function         Bfn.  Coefficient  Atom+Function  
  ----- ------------  ---------------      ----- ------------  ---------------
    67      6.209988   3 C  s                43      4.198222   2 C  px        
    75     -2.992167   3 C  py               44     -2.635994   2 C  py        
    36     -2.195333   2 C  s               107     -2.033875   4 C  pz        
   157     -1.815723  10 H  s                45     -1.459169   2 C  pz        
    98     -1.336856   4 C  s               105     -1.170502   4 C  px        
 
 Vector   31  Occ=0.000000D+00  E= 2.688984D-01
              MO Center=  2.7D-01, -1.8D-01,  2.4D-01, r^2= 5.6D+00
   Bfn.  Coefficient  Atom+Function         Bfn.  Coefficient  Atom+Function  
  ----- ------------  ---------------      ----- ------------  ---------------
    36      4.445315   2 C  s                 5     -2.285508   1 O  s         
    67      2.172042   3 C  s                43     -1.660040   2 C  px        
   105      1.544731   4 C  px               66     -1.176268   3 C  s         
    98     -1.163967   4 C  s               133     -1.063239   6 H  s         
   139     -0.865008   7 H  s               127     -0.833510   5 H  s         
 
 Vector   32  Occ=0.000000D+00  E= 2.779324D-01
              MO Center=  4.3D-01,  3.5D-01,  3.0D-01, r^2= 4.2D+00
   Bfn.  Coefficient  Atom+Function         Bfn.  Coefficient  Atom+Function  
  ----- ------------  ---------------      ----- ------------  ---------------
    36      2.324154   2 C  s                67     -1.723372   3 C  s         
     5     -1.644569   1 O  s                43     -1.165394   2 C  px        
    74     -0.729283   3 C  px               98     -0.640207   4 C  s         
    45     -0.617029   2 C  pz              145      0.589658   8 H  s         
     4      0.486114   1 O  s                66      0.439270   3 C  s         
 
 Vector   33  Occ=0.000000D+00  E= 3.012542D-01
              MO Center=  4.5D-01,  3.5D-01, -4.2D-01, r^2= 4.9D+00
   Bfn.  Coefficient  Atom+Function         Bfn.  Coefficient  Atom+Function  
  ----- ------------  ---------------      ----- ------------  ---------------
    43      1.864179   2 C  px              106      1.764577   4 C  py        
   151      1.681031   9 H  s                98     -1.601624   4 C  s         
    36     -1.380033   2 C  s                76      1.287856   3 C  pz        
    44     -1.253617   2 C  py               66      1.010833   3 C  s         
   107     -1.014554   4 C  pz                5      0.827694   1 O  s         
 
 Vector   34  Occ=0.000000D+00  E= 3.375855D-01
              MO Center=  1.0D-01,  4.5D-01, -4.2D-01, r^2= 5.9D+00
   Bfn.  Coefficient  Atom+Function         Bfn.  Coefficient  Atom+Function  
  ----- ------------  ---------------      ----- ------------  ---------------
    67      4.479065   3 C  s                76     -4.014419   3 C  pz        
   139     -3.135269   7 H  s                36     -2.357116   2 C  s         
   133      2.077674   6 H  s               107     -1.763922   4 C  pz        
   157     -1.750945  10 H  s                98      1.639359   4 C  s         
    43      1.364306   2 C  px               44     -1.147481   2 C  py        
 
 Vector   35  Occ=0.000000D+00  E= 3.625621D-01
              MO Center=  7.5D-01,  1.3D-02, -3.3D-01, r^2= 6.7D+00
   Bfn.  Coefficient  Atom+Function         Bfn.  Coefficient  Atom+Function  
  ----- ------------  ---------------      ----- ------------  ---------------
    98      7.470073   4 C  s                76      3.283592   3 C  pz        
   145     -3.190056   8 H  s                97     -3.044562   4 C  s         
   133     -2.355028   6 H  s               151     -1.829885   9 H  s         
   139      1.688689   7 H  s                44      1.622620   2 C  py        
    45     -1.573571   2 C  pz               67     -1.489577   3 C  s         
 
 Vector   36  Occ=0.000000D+00  E= 3.704610D-01
              MO Center=  5.0D-01,  3.3D-01, -1.8D-01, r^2= 6.4D+00
   Bfn.  Coefficient  Atom+Function         Bfn.  Coefficient  Atom+Function  
  ----- ------------  ---------------      ----- ------------  ---------------
    36     12.182790   2 C  s                98     -9.140202   4 C  s         
    67     -8.238565   3 C  s               127     -2.788812   5 H  s         
    97      2.585911   4 C  s               157      2.200352  10 H  s         
    44      1.924233   2 C  py              151      1.795797   9 H  s         
    35     -1.648457   2 C  s                74     -1.523151   3 C  px        
 
 Vector   37  Occ=0.000000D+00  E= 3.841227D-01
              MO Center=  9.3D-01, -3.5D-01, -4.3D-02, r^2= 6.1D+00
   Bfn.  Coefficient  Atom+Function         Bfn.  Coefficient  Atom+Function  
  ----- ------------  ---------------      ----- ------------  ---------------
    36      7.155520   2 C  s               127     -4.378383   5 H  s         
    98      3.867857   4 C  s                67     -3.430679   3 C  s         
    45      3.083234   2 C  pz               35     -2.417083   2 C  s         
   151     -2.125757   9 H  s               145     -2.064257   8 H  s         
    76     -2.011827   3 C  pz              133      1.768084   6 H  s         
 
 Vector   38  Occ=0.000000D+00  E= 3.954915D-01
              MO Center=  1.0D-01,  5.6D-02, -2.6D-01, r^2= 6.3D+00
   Bfn.  Coefficient  Atom+Function         Bfn.  Coefficient  Atom+Function  
  ----- ------------  ---------------      ----- ------------  ---------------
    98     12.823248   4 C  s                45      5.992041   2 C  pz        
    67     -4.519646   3 C  s                36     -3.496944   2 C  s         
    76     -3.196371   3 C  pz              157     -2.870703  10 H  s         
   133      2.227994   6 H  s                44      2.003089   2 C  py        
   107      1.817072   4 C  pz               75      1.769802   3 C  py        
 
 Vector   39  Occ=0.000000D+00  E= 4.026137D-01
              MO Center= -1.0D-01,  1.8D-01,  2.7D-01, r^2= 6.5D+00
   Bfn.  Coefficient  Atom+Function         Bfn.  Coefficient  Atom+Function  
  ----- ------------  ---------------      ----- ------------  ---------------
    67     12.975794   3 C  s                36    -11.393350   2 C  s         
    44     -4.296532   2 C  py               45      4.201140   2 C  pz        
   127     -2.901368   5 H  s                66     -2.805902   3 C  s         
    43      2.776351   2 C  px               98      2.669858   4 C  s         
   139     -2.128448   7 H  s               133     -2.104346   6 H  s         
 
 Vector   40  Occ=0.000000D+00  E= 4.163548D-01
              MO Center=  9.2D-01, -4.7D-01, -9.0D-01, r^2= 5.7D+00
   Bfn.  Coefficient  Atom+Function         Bfn.  Coefficient  Atom+Function  
  ----- ------------  ---------------      ----- ------------  ---------------
    98      7.077079   4 C  s                36     -4.938333   2 C  s         
    45      3.176899   2 C  pz              105     -2.751194   4 C  px        
   151     -2.569565   9 H  s               145      1.989755   8 H  s         
   157     -1.896897  10 H  s               127     -1.315402   5 H  s         
    67      1.220956   3 C  s                35      1.044885   2 C  s         
 
 Vector   41  Occ=0.000000D+00  E= 4.286831D-01
              MO Center=  3.3D-01,  3.1D-01, -1.7D-01, r^2= 6.6D+00
   Bfn.  Coefficient  Atom+Function         Bfn.  Coefficient  Atom+Function  
  ----- ------------  ---------------      ----- ------------  ---------------
    36      8.606078   2 C  s                98     -4.017561   4 C  s         
    67     -3.972299   3 C  s                75      2.578370   3 C  py        
    44      2.435029   2 C  py              151      2.352935   9 H  s         
    43     -1.613461   2 C  px              133     -1.415104   6 H  s         
    74     -1.385316   3 C  px              139     -1.294315   7 H  s         
 
 Vector   42  Occ=0.000000D+00  E= 4.475137D-01
              MO Center=  5.3D-02,  7.8D-02, -3.3D-01, r^2= 6.2D+00
   Bfn.  Coefficient  Atom+Function         Bfn.  Coefficient  Atom+Function  
  ----- ------------  ---------------      ----- ------------  ---------------
    36      9.982794   2 C  s                98     -9.228790   4 C  s         
    45     -5.357926   2 C  pz               67     -3.096476   3 C  s         
   127      2.733285   5 H  s                44      2.554197   2 C  py        
   157      2.542486  10 H  s                76      2.505392   3 C  pz        
    75      2.218193   3 C  py              133     -2.052225   6 H  s         
 
 Vector   43  Occ=0.000000D+00  E= 4.557083D-01
              MO Center=  2.1D-01,  4.9D-01, -4.3D-01, r^2= 5.5D+00
   Bfn.  Coefficient  Atom+Function         Bfn.  Coefficient  Atom+Function  
  ----- ------------  ---------------      ----- ------------  ---------------
   139     -2.764027   7 H  s                45      2.718091   2 C  pz        
    98      2.612579   4 C  s               107      2.586935   4 C  pz        
    36     -2.283633   2 C  s               157      2.153274  10 H  s         
    75      1.566363   3 C  py               76     -1.473006   3 C  pz        
    43     -1.313698   2 C  px               44      1.105803   2 C  py        
 
 Vector   44  Occ=0.000000D+00  E= 4.721983D-01
              MO Center=  4.1D-01,  3.1D-01,  2.1D-01, r^2= 5.6D+00
   Bfn.  Coefficient  Atom+Function         Bfn.  Coefficient  Atom+Function  
  ----- ------------  ---------------      ----- ------------  ---------------
    98      4.249214   4 C  s                36     -3.779505   2 C  s         
   133     -1.945206   6 H  s                45      1.763308   2 C  pz        
   145     -1.580711   8 H  s                67      1.463330   3 C  s         
   107      1.433927   4 C  pz              132      1.414822   6 H  s         
   126     -1.131806   5 H  s               127      1.110131   5 H  s         
 
 Vector   45  Occ=0.000000D+00  E= 5.080792D-01
              MO Center=  9.1D-01, -3.8D-01, -9.3D-01, r^2= 4.8D+00
   Bfn.  Coefficient  Atom+Function         Bfn.  Coefficient  Atom+Function  
  ----- ------------  ---------------      ----- ------------  ---------------
    98     11.458731   4 C  s                36     -7.485253   2 C  s         
    45      4.638274   2 C  pz              107      3.080124   4 C  pz        
   106      1.336147   4 C  py              144     -1.341549   8 H  s         
   156     -1.228665  10 H  s               127     -1.190436   5 H  s         
   150     -1.088636   9 H  s                14     -1.041465   1 O  pz        
 
 Vector   46  Occ=0.000000D+00  E= 5.371414D-01
              MO Center=  8.8D-02, -3.9D-01, -4.8D-01, r^2= 4.4D+00
   Bfn.  Coefficient  Atom+Function         Bfn.  Coefficient  Atom+Function  
  ----- ------------  ---------------      ----- ------------  ---------------
    98     -7.063949   4 C  s                36      6.705888   2 C  s         
    45     -3.601505   2 C  pz               76      3.288628   3 C  pz        
   133     -1.944901   6 H  s               105      1.499275   4 C  px        
   107     -1.432200   4 C  pz              139      1.403947   7 H  s         
    14     -1.170481   1 O  pz                5     -1.142652   1 O  s         
 
 Vector   47  Occ=0.000000D+00  E= 6.578518D-01
              MO Center= -3.7D-01,  3.2D-02, -2.0D-02, r^2= 4.3D+00
   Bfn.  Coefficient  Atom+Function         Bfn.  Coefficient  Atom+Function  
  ----- ------------  ---------------      ----- ------------  ---------------
    36     11.590409   2 C  s                67     -8.854394   3 C  s         
    98     -4.056067   4 C  s                43     -2.597870   2 C  px        
    75      2.439690   3 C  py               13      2.213170   1 O  py        
    76      2.080045   3 C  pz              105      1.590366   4 C  px        
    44      1.471963   2 C  py              139      1.455970   7 H  s         
 
 Vector   48  Occ=0.000000D+00  E= 6.745805D-01
              MO Center= -3.0D-01,  3.5D-01,  1.3D-01, r^2= 3.9D+00
   Bfn.  Coefficient  Atom+Function         Bfn.  Coefficient  Atom+Function  
  ----- ------------  ---------------      ----- ------------  ---------------
    36      8.206194   2 C  s                67     -7.989970   3 C  s         
     5      2.976453   1 O  s                75      2.609649   3 C  py        
    98     -2.163684   4 C  s                13      2.131639   1 O  py        
    43     -1.294409   2 C  px               45     -1.251624   2 C  pz        
     4     -1.103294   1 O  s                44      1.001190   2 C  py        
 
 Vector   49  Occ=0.000000D+00  E= 7.076210D-01
              MO Center=  1.7D-01, -3.2D-01, -2.7D-01, r^2= 4.5D+00
   Bfn.  Coefficient  Atom+Function         Bfn.  Coefficient  Atom+Function  
  ----- ------------  ---------------      ----- ------------  ---------------
    67      9.423573   3 C  s                36     -7.221565   2 C  s         
    43      3.639136   2 C  px               44     -3.462065   2 C  py        
    75     -2.703517   3 C  py               98     -2.584038   4 C  s         
     5      2.311775   1 O  s                12      1.693028   1 O  px        
   106      1.652808   4 C  py               13     -1.287717   1 O  py        
 
 Vector   50  Occ=0.000000D+00  E= 7.613876D-01
              MO Center=  6.3D-01,  2.6D-03, -3.4D-01, r^2= 4.1D+00
   Bfn.  Coefficient  Atom+Function         Bfn.  Coefficient  Atom+Function  
  ----- ------------  ---------------      ----- ------------  ---------------
    45      2.422562   2 C  pz              127     -1.711774   5 H  s         
   105     -1.627875   4 C  px               43      1.478178   2 C  px        
    36      1.454904   2 C  s                 5     -1.395833   1 O  s         
   126     -1.347143   5 H  s               144      1.262008   8 H  s         
    76     -1.062663   3 C  pz               66      0.965787   3 C  s         
 
 Vector   51  Occ=0.000000D+00  E= 7.944277D-01
              MO Center=  2.9D-01,  3.7D-02, -2.0D-01, r^2= 4.4D+00
   Bfn.  Coefficient  Atom+Function         Bfn.  Coefficient  Atom+Function  
  ----- ------------  ---------------      ----- ------------  ---------------
     5      4.092922   1 O  s                36     -2.711638   2 C  s         
    76     -2.508931   3 C  pz                4     -1.603819   1 O  s         
    45      1.477402   2 C  pz              133      1.389217   6 H  s         
    12      1.348428   1 O  px               43      1.188353   2 C  px        
    66     -1.122062   3 C  s                35     -1.046568   2 C  s         
 
 Vector   52  Occ=0.000000D+00  E= 8.324484D-01
              MO Center=  3.2D-01,  1.6D-01, -4.0D-03, r^2= 4.4D+00
   Bfn.  Coefficient  Atom+Function         Bfn.  Coefficient  Atom+Function  
  ----- ------------  ---------------      ----- ------------  ---------------
    36      6.582316   2 C  s                98     -4.026490   4 C  s         
     5     -3.960378   1 O  s                43     -2.580832   2 C  px        
   105      1.932646   4 C  px               35     -1.836911   2 C  s         
    45     -1.729221   2 C  pz               44      1.454757   2 C  py        
    66     -1.152235   3 C  s                97      1.070415   4 C  s         
 
 Vector   53  Occ=0.000000D+00  E= 8.549515D-01
              MO Center=  5.9D-01,  1.4D-01, -3.9D-01, r^2= 4.2D+00
   Bfn.  Coefficient  Atom+Function         Bfn.  Coefficient  Atom+Function  
  ----- ------------  ---------------      ----- ------------  ---------------
    36      4.785338   2 C  s                98     -4.751887   4 C  s         
    45     -4.623166   2 C  pz               76      2.051608   3 C  pz        
   127      1.818221   5 H  s               106     -1.574262   4 C  py        
    44      1.484567   2 C  py              105      1.396802   4 C  px        
   150     -1.212906   9 H  s                 5     -1.197931   1 O  s         
 
 Vector   54  Occ=0.000000D+00  E= 8.708477D-01
              MO Center=  1.9D-01, -4.5D-02, -1.1D-01, r^2= 4.2D+00
   Bfn.  Coefficient  Atom+Function         Bfn.  Coefficient  Atom+Function  
  ----- ------------  ---------------      ----- ------------  ---------------
     5      4.576171   1 O  s                36     -1.659957   2 C  s         
     4     -1.557648   1 O  s                76      1.368100   3 C  pz        
   138      1.339372   7 H  s                12      1.194998   1 O  px        
    67     -1.166781   3 C  s                66     -1.113691   3 C  s         
    98     -1.062530   4 C  s                97      0.851748   4 C  s         
 
 Vector   55  Occ=0.000000D+00  E= 9.198079D-01
              MO Center=  5.0D-01,  3.2D-01, -4.7D-01, r^2= 4.6D+00
   Bfn.  Coefficient  Atom+Function         Bfn.  Coefficient  Atom+Function  
  ----- ------------  ---------------      ----- ------------  ---------------
    35      4.934309   2 C  s                36     -1.696712   2 C  s         
    67      1.427806   3 C  s               132     -1.427036   6 H  s         
    72      1.316855   3 C  py               66     -1.200336   3 C  s         
    84      1.181342   3 C  d  0             41      1.159007   2 C  py        
   156     -1.156956  10 H  s               116     -1.072293   4 C  d  1      
 
 Vector   56  Occ=0.000000D+00  E= 9.610358D-01
              MO Center=  4.6D-01,  2.8D-01, -5.5D-01, r^2= 4.7D+00
   Bfn.  Coefficient  Atom+Function         Bfn.  Coefficient  Atom+Function  
  ----- ------------  ---------------      ----- ------------  ---------------
    35      4.206977   2 C  s                67      2.573427   3 C  s         
   138     -2.207719   7 H  s                76     -1.843541   3 C  pz        
    42     -1.761857   2 C  pz               36     -1.620338   2 C  s         
    83     -1.624910   3 C  d -1            115     -1.478895   4 C  d  0      
   132      1.443375   6 H  s                98     -1.346971   4 C  s         
 
 Vector   57  Occ=0.000000D+00  E= 9.922544D-01
              MO Center=  3.2D-01,  5.2D-01, -9.9D-02, r^2= 4.0D+00
   Bfn.  Coefficient  Atom+Function         Bfn.  Coefficient  Atom+Function  
  ----- ------------  ---------------      ----- ------------  ---------------
    36      7.267848   2 C  s                98     -4.824471   4 C  s         
    67     -3.744634   3 C  s                45     -3.701050   2 C  pz        
    43     -2.255939   2 C  px               44      2.067276   2 C  py        
    66     -1.654402   3 C  s               127      1.553742   5 H  s         
    75      1.417254   3 C  py              126      1.340039   5 H  s         
 
 Vector   58  Occ=0.000000D+00  E= 1.012329D+00
              MO Center=  3.9D-01,  5.2D-01, -6.6D-02, r^2= 4.3D+00
   Bfn.  Coefficient  Atom+Function         Bfn.  Coefficient  Atom+Function  
  ----- ------------  ---------------      ----- ------------  ---------------
    36      5.664010   2 C  s                67     -4.531395   3 C  s         
    45     -2.250666   2 C  pz               44      1.903927   2 C  py        
    98     -1.838754   4 C  s               156     -1.501978  10 H  s         
    43     -1.377266   2 C  px              144      1.379174   8 H  s         
    74     -1.325746   3 C  px               82      1.323525   3 C  d -2      
 
 Vector   59  Occ=0.000000D+00  E= 1.041454D+00
              MO Center=  7.0D-01, -1.6D-01, -4.7D-01, r^2= 4.2D+00
   Bfn.  Coefficient  Atom+Function         Bfn.  Coefficient  Atom+Function  
  ----- ------------  ---------------      ----- ------------  ---------------
    35      2.716230   2 C  s                36      2.691845   2 C  s         
    66     -2.363054   3 C  s               150      1.961837   9 H  s         
   144     -1.909738   8 H  s                 5     -1.883132   1 O  s         
   117      1.725518   4 C  d  2             41      1.552663   2 C  py        
    44      1.368906   2 C  py               67     -1.255669   3 C  s         
 
 Vector   60  Occ=0.000000D+00  E= 1.078827D+00
              MO Center=  6.7D-01,  1.5D-02, -7.3D-02, r^2= 4.1D+00
   Bfn.  Coefficient  Atom+Function         Bfn.  Coefficient  Atom+Function  
  ----- ------------  ---------------      ----- ------------  ---------------
    66     -4.074043   3 C  s                98      4.082699   4 C  s         
    45      3.752472   2 C  pz               97      3.711955   4 C  s         
    36     -3.374031   2 C  s                41      2.587393   2 C  py        
   104      2.511372   4 C  pz               72      2.368638   3 C  py        
    42      2.350111   2 C  pz               53     -2.250332   2 C  d  0      
 
 Vector   61  Occ=0.000000D+00  E= 1.105618D+00
              MO Center=  3.7D-01,  5.9D-02,  6.2D-02, r^2= 3.8D+00
   Bfn.  Coefficient  Atom+Function         Bfn.  Coefficient  Atom+Function  
  ----- ------------  ---------------      ----- ------------  ---------------
    36      7.514167   2 C  s                67     -5.252668   3 C  s         
    98     -2.898870   4 C  s                66      2.043959   3 C  s         
   126     -2.024877   5 H  s                45     -1.885996   2 C  pz        
   132      1.761608   6 H  s                72     -1.590813   3 C  py        
    41     -1.458793   2 C  py               53      1.433048   2 C  d  0      
 
 Vector   62  Occ=0.000000D+00  E= 1.147217D+00
              MO Center=  6.2D-01,  1.3D-02, -3.0D-02, r^2= 3.6D+00
   Bfn.  Coefficient  Atom+Function         Bfn.  Coefficient  Atom+Function  
  ----- ------------  ---------------      ----- ------------  ---------------
    67      5.165431   3 C  s                36     -3.890468   2 C  s         
    44     -2.395583   2 C  py              126      1.848696   5 H  s         
    97     -1.793322   4 C  s                54      1.583651   2 C  d  1      
    43      1.557801   2 C  px              132     -1.484786   6 H  s         
    55      1.473723   2 C  d  2             42     -1.452629   2 C  pz        
 
 Vector   63  Occ=0.000000D+00  E= 1.214873D+00
              MO Center=  5.6D-01,  2.0D-01, -1.5D-01, r^2= 3.8D+00
   Bfn.  Coefficient  Atom+Function         Bfn.  Coefficient  Atom+Function  
  ----- ------------  ---------------      ----- ------------  ---------------
    36      6.800704   2 C  s                66     -4.895796   3 C  s         
    67     -3.345507   3 C  s                97     -3.361644   4 C  s         
    35      3.136914   2 C  s                72      1.969545   3 C  py        
    51     -1.763408   2 C  d -2             52      1.694010   2 C  d -1      
   138      1.530443   7 H  s                41      1.495084   2 C  py        
 
 Vector   64  Occ=0.000000D+00  E= 1.347477D+00
              MO Center=  3.4D-01,  5.5D-01,  2.7D-01, r^2= 3.6D+00
   Bfn.  Coefficient  Atom+Function         Bfn.  Coefficient  Atom+Function  
  ----- ------------  ---------------      ----- ------------  ---------------
    66      4.757577   3 C  s                35      3.939795   2 C  s         
    67     -3.056988   3 C  s                36     -2.874069   2 C  s         
    65     -2.380928   3 C  s               132     -2.324062   6 H  s         
   133      1.615903   6 H  s                34     -1.455994   2 C  s         
    72      1.348972   3 C  py               73      1.080554   3 C  pz        
 
 Vector   65  Occ=0.000000D+00  E= 1.419480D+00
              MO Center=  1.7D-01,  5.0D-01, -5.7D-02, r^2= 3.4D+00
   Bfn.  Coefficient  Atom+Function         Bfn.  Coefficient  Atom+Function  
  ----- ------------  ---------------      ----- ------------  ---------------
    36      4.120059   2 C  s                66      3.764512   3 C  s         
    67     -3.693265   3 C  s                35     -3.623396   2 C  s         
    73     -2.233088   3 C  pz              139      2.107263   7 H  s         
   138     -2.053637   7 H  s               126      1.845188   5 H  s         
    76      1.642519   3 C  pz               65     -1.631010   3 C  s         
 
 Vector   66  Occ=0.000000D+00  E= 1.432613D+00
              MO Center=  1.0D+00, -4.3D-01, -1.1D+00, r^2= 3.6D+00
   Bfn.  Coefficient  Atom+Function         Bfn.  Coefficient  Atom+Function  
  ----- ------------  ---------------      ----- ------------  ---------------
    98      9.789608   4 C  s                97     -7.497596   4 C  s         
    96      3.025654   4 C  s               145     -2.429924   8 H  s         
    36     -2.261099   2 C  s               151     -2.224739   9 H  s         
   157     -2.036233  10 H  s               144      1.770182   8 H  s         
   150      1.562256   9 H  s               104      1.427458   4 C  pz        
 
 Vector   67  Occ=0.000000D+00  E= 1.440815D+00
              MO Center=  3.5D-01,  2.0D-03, -7.0D-02, r^2= 4.2D+00
   Bfn.  Coefficient  Atom+Function         Bfn.  Coefficient  Atom+Function  
  ----- ------------  ---------------      ----- ------------  ---------------
    66      4.412226   3 C  s                98      3.988438   4 C  s         
    35     -3.407670   2 C  s                67     -3.078135   3 C  s         
   133      2.136341   6 H  s                45      2.105127   2 C  pz        
    76     -1.900074   3 C  pz               97     -1.904951   4 C  s         
    36      1.708095   2 C  s               127     -1.710928   5 H  s         
 
 Vector   68  Occ=0.000000D+00  E= 1.446493D+00
              MO Center=  3.4D-01,  3.0D-03, -2.2D-01, r^2= 3.1D+00
   Bfn.  Coefficient  Atom+Function         Bfn.  Coefficient  Atom+Function  
  ----- ------------  ---------------      ----- ------------  ---------------
    98      4.847484   4 C  s                36     -2.988374   2 C  s         
    97     -2.722994   4 C  s                 5      2.079075   1 O  s         
    45      1.762405   2 C  pz               67      1.179679   3 C  s         
    96      1.145904   4 C  s               127     -1.071349   5 H  s         
    44     -1.051288   2 C  py               35     -0.984866   2 C  s         
 
 Vector   69  Occ=0.000000D+00  E= 1.473972D+00
              MO Center=  9.1D-01, -2.5D-01, -9.7D-01, r^2= 3.5D+00
   Bfn.  Coefficient  Atom+Function         Bfn.  Coefficient  Atom+Function  
  ----- ------------  ---------------      ----- ------------  ---------------
    66      2.216493   3 C  s                67     -1.421615   3 C  s         
    36      1.391188   2 C  s                 5     -1.208910   1 O  s         
    98     -1.049624   4 C  s                97      1.017176   4 C  s         
   133      0.951271   6 H  s                65     -0.929976   3 C  s         
    71     -0.932925   3 C  px              132     -0.881949   6 H  s         
 
 Vector   70  Occ=0.000000D+00  E= 1.478150D+00
              MO Center=  9.8D-01, -4.0D-01, -1.0D+00, r^2= 3.3D+00
   Bfn.  Coefficient  Atom+Function         Bfn.  Coefficient  Atom+Function  
  ----- ------------  ---------------      ----- ------------  ---------------
    36      2.955510   2 C  s               156     -2.771127  10 H  s         
   157      2.142161  10 H  s               102     -1.993713   4 C  px        
   104     -1.818892   4 C  pz              126      1.811076   5 H  s         
   103      1.771267   4 C  py               66     -1.558062   3 C  s         
    35     -1.418227   2 C  s               127     -1.419255   5 H  s         
 
 Vector   71  Occ=0.000000D+00  E= 1.512643D+00
              MO Center=  3.6D-01,  1.3D-01, -3.6D-01, r^2= 4.0D+00
   Bfn.  Coefficient  Atom+Function         Bfn.  Coefficient  Atom+Function  
  ----- ------------  ---------------      ----- ------------  ---------------
    98      2.638438   4 C  s               144      1.920515   8 H  s         
   102     -1.676708   4 C  px              145     -1.470947   8 H  s         
   103     -1.322770   4 C  py               45      1.267638   2 C  pz        
    97     -1.092255   4 C  s               150     -0.949355   9 H  s         
    36     -0.841702   2 C  s                66      0.769848   3 C  s         
 
 Vector   72  Occ=0.000000D+00  E= 1.542483D+00
              MO Center=  3.4D-01,  4.7D-01, -2.1D-01, r^2= 4.6D+00
   Bfn.  Coefficient  Atom+Function         Bfn.  Coefficient  Atom+Function  
  ----- ------------  ---------------      ----- ------------  ---------------
    36      4.045165   2 C  s                98     -3.628984   4 C  s         
    35     -3.370759   2 C  s                97      3.151095   4 C  s         
    67     -2.216697   3 C  s                73      2.200502   3 C  pz        
   132     -1.893739   6 H  s               133      1.483200   6 H  s         
   102     -1.380679   4 C  px              151      1.320999   9 H  s         
 
 Vector   73  Occ=0.000000D+00  E= 1.576027D+00
              MO Center=  5.0D-01, -3.1D-02, -9.6D-02, r^2= 3.2D+00
   Bfn.  Coefficient  Atom+Function         Bfn.  Coefficient  Atom+Function  
  ----- ------------  ---------------      ----- ------------  ---------------
    35      3.516287   2 C  s                36     -2.901482   2 C  s         
    40     -2.096119   2 C  px               97     -2.067408   4 C  s         
    67      1.837848   3 C  s               126      1.815018   5 H  s         
    72      1.642360   3 C  py               42     -1.522581   2 C  pz        
    98      1.480880   4 C  s                34     -1.469557   2 C  s         
 
 Vector   74  Occ=0.000000D+00  E= 1.596292D+00
              MO Center=  3.7D-01,  3.6D-01, -1.7D-01, r^2= 3.4D+00
   Bfn.  Coefficient  Atom+Function         Bfn.  Coefficient  Atom+Function  
  ----- ------------  ---------------      ----- ------------  ---------------
    66     -5.470629   3 C  s                35      5.283746   2 C  s         
    36     -5.287148   2 C  s                67      4.058543   3 C  s         
    41      3.741369   2 C  py               71     -2.544212   3 C  px        
    72      2.435460   3 C  py               40     -2.057365   2 C  px        
    98      1.707591   4 C  s                82      1.662855   3 C  d -2      
 
 Vector   75  Occ=0.000000D+00  E= 1.644370D+00
              MO Center=  4.3D-01,  2.0D-01, -1.5D-02, r^2= 3.6D+00
   Bfn.  Coefficient  Atom+Function         Bfn.  Coefficient  Atom+Function  
  ----- ------------  ---------------      ----- ------------  ---------------
    66      2.482034   3 C  s                35      2.364406   2 C  s         
    98      1.997478   4 C  s                 5     -1.781563   1 O  s         
    97     -1.617301   4 C  s                67     -1.198975   3 C  s         
   144      1.123050   8 H  s               104     -1.096848   4 C  pz        
   103     -1.011783   4 C  py              150     -1.001648   9 H  s         
 
 Vector   76  Occ=0.000000D+00  E= 1.694854D+00
              MO Center=  5.8D-01,  8.4D-02, -4.3D-01, r^2= 3.6D+00
   Bfn.  Coefficient  Atom+Function         Bfn.  Coefficient  Atom+Function  
  ----- ------------  ---------------      ----- ------------  ---------------
    97     -5.361876   4 C  s                35      5.091068   2 C  s         
   104     -2.748896   4 C  pz               42     -2.682897   2 C  pz        
   102      1.843913   4 C  px               66     -1.647828   3 C  s         
    40      1.605770   2 C  px               34     -1.476775   2 C  s         
    96      1.481067   4 C  s               132      1.104464   6 H  s         
 
 Vector   77  Occ=0.000000D+00  E= 1.702223D+00
              MO Center= -7.6D-02,  3.3D-01, -7.8D-02, r^2= 3.7D+00
   Bfn.  Coefficient  Atom+Function         Bfn.  Coefficient  Atom+Function  
  ----- ------------  ---------------      ----- ------------  ---------------
     5      3.963262   1 O  s                72      3.281173   3 C  py        
    36     -2.596498   2 C  s                97      2.243231   4 C  s         
    66     -1.951936   3 C  s               138     -1.864734   7 H  s         
    42      1.699182   2 C  pz               12      1.521799   1 O  px        
   104      1.495273   4 C  pz               41      1.483741   2 C  py        
 
 Vector   78  Occ=0.000000D+00  E= 1.786778D+00
              MO Center=  3.8D-01,  3.0D-01, -1.0D-02, r^2= 3.5D+00
   Bfn.  Coefficient  Atom+Function         Bfn.  Coefficient  Atom+Function  
  ----- ------------  ---------------      ----- ------------  ---------------
    35      3.230274   2 C  s                97     -2.873123   4 C  s         
    36      1.877440   2 C  s                45     -1.376736   2 C  pz        
   104     -1.207193   4 C  pz               67     -1.171140   3 C  s         
    72      1.136412   3 C  py               42     -1.085324   2 C  pz        
   102      1.021316   4 C  px               96      0.942823   4 C  s         
 
 Vector   79  Occ=0.000000D+00  E= 1.816371D+00
              MO Center= -6.4D-01,  1.9D-01,  1.9D-01, r^2= 2.5D+00
   Bfn.  Coefficient  Atom+Function         Bfn.  Coefficient  Atom+Function  
  ----- ------------  ---------------      ----- ------------  ---------------
    35      3.988766   2 C  s                 5     -3.290873   1 O  s         
    40     -2.405464   2 C  px               41      2.085192   2 C  py        
    72      1.910335   3 C  py               66     -1.698533   3 C  s         
    71     -1.703730   3 C  px               12     -1.380094   1 O  px        
   132     -1.056253   6 H  s                67      1.044989   3 C  s         
 
 Vector   80  Occ=0.000000D+00  E= 1.844689D+00
              MO Center=  1.4D-01,  2.0D-01, -1.0D-01, r^2= 3.8D+00
   Bfn.  Coefficient  Atom+Function         Bfn.  Coefficient  Atom+Function  
  ----- ------------  ---------------      ----- ------------  ---------------
    35      2.072005   2 C  s                97     -1.065078   4 C  s         
   104     -1.012278   4 C  pz              156     -0.934018  10 H  s         
    36     -0.851616   2 C  s                41     -0.735695   2 C  py        
   126     -0.677378   5 H  s                71     -0.670617   3 C  px        
   150      0.673011   9 H  s               157      0.660197  10 H  s         
 
 Vector   81  Occ=0.000000D+00  E= 1.869432D+00
              MO Center=  4.9D-01,  2.1D-01, -4.2D-01, r^2= 4.0D+00
   Bfn.  Coefficient  Atom+Function         Bfn.  Coefficient  Atom+Function  
  ----- ------------  ---------------      ----- ------------  ---------------
    35      6.560101   2 C  s                66     -4.419609   3 C  s         
    72      3.536825   3 C  py               97     -3.192675   4 C  s         
    36      2.134004   2 C  s               104     -1.793571   4 C  pz        
    41      1.663000   2 C  py               34     -1.619525   2 C  s         
    67     -1.573123   3 C  s                45     -1.374221   2 C  pz        
 
 Vector   82  Occ=0.000000D+00  E= 1.920634D+00
              MO Center=  3.2D-01, -1.5D-01, -3.0D-01, r^2= 3.2D+00
   Bfn.  Coefficient  Atom+Function         Bfn.  Coefficient  Atom+Function  
  ----- ------------  ---------------      ----- ------------  ---------------
    36      1.367457   2 C  s                98     -1.354316   4 C  s         
   103     -1.221488   4 C  py               45     -1.210237   2 C  pz        
    97     -1.118984   4 C  s                35      0.887261   2 C  s         
   150     -0.772467   9 H  s                42     -0.765901   2 C  pz        
    66     -0.732741   3 C  s                41      0.699827   2 C  py        
 
 Vector   83  Occ=0.000000D+00  E= 1.990800D+00
              MO Center=  8.7D-01, -2.4D-01, -4.1D-01, r^2= 3.4D+00
   Bfn.  Coefficient  Atom+Function         Bfn.  Coefficient  Atom+Function  
  ----- ------------  ---------------      ----- ------------  ---------------
    98      3.791773   4 C  s                35      3.410100   2 C  s         
    66     -2.703526   3 C  s                40     -2.216828   2 C  px        
    72      1.891181   3 C  py               36     -1.847367   2 C  s         
    41      1.719656   2 C  py               43     -1.494918   2 C  px        
    71     -1.334782   3 C  px              107      1.235802   4 C  pz        
 
 Vector   84  Occ=0.000000D+00  E= 1.993548D+00
              MO Center=  5.9D-01, -8.8D-02, -7.0D-01, r^2= 3.5D+00
   Bfn.  Coefficient  Atom+Function         Bfn.  Coefficient  Atom+Function  
  ----- ------------  ---------------      ----- ------------  ---------------
    36      4.244492   2 C  s                98     -3.608992   4 C  s         
    45     -2.042048   2 C  pz               35     -1.690124   2 C  s         
    67     -1.581883   3 C  s               156      1.075576  10 H  s         
   104      0.963897   4 C  pz              107     -0.915354   4 C  pz        
     5     -0.891542   1 O  s                34      0.712771   2 C  s         
 
 Vector   85  Occ=0.000000D+00  E= 2.088180D+00
              MO Center= -1.7D-01,  1.7D-01,  5.0D-02, r^2= 3.3D+00
   Bfn.  Coefficient  Atom+Function         Bfn.  Coefficient  Atom+Function  
  ----- ------------  ---------------      ----- ------------  ---------------
    36      4.340839   2 C  s                67     -2.543988   3 C  s         
    98     -2.349986   4 C  s                35     -1.664726   2 C  s         
    66      1.125196   3 C  s                71      1.103009   3 C  px        
    13      1.011058   1 O  py               41     -0.840379   2 C  py        
   138     -0.758607   7 H  s                12     -0.694445   1 O  px        
 
 Vector   86  Occ=0.000000D+00  E= 2.100023D+00
              MO Center= -2.3D-01,  5.6D-02, -3.9D-02, r^2= 3.2D+00
   Bfn.  Coefficient  Atom+Function         Bfn.  Coefficient  Atom+Function  
  ----- ------------  ---------------      ----- ------------  ---------------
    67      5.050322   3 C  s                36     -4.490520   2 C  s         
    66     -3.100536   3 C  s                41      2.974099   2 C  py        
    35      2.925587   2 C  s                71     -2.525019   3 C  px        
    13     -1.606886   1 O  py               82      1.322442   3 C  d -2      
    43      1.249118   2 C  px               75     -1.238700   3 C  py        
 
 Vector   87  Occ=0.000000D+00  E= 2.162782D+00
              MO Center=  5.0D-01, -4.4D-03, -4.9D-01, r^2= 3.2D+00
   Bfn.  Coefficient  Atom+Function         Bfn.  Coefficient  Atom+Function  
  ----- ------------  ---------------      ----- ------------  ---------------
    98      2.170772   4 C  s                67     -1.736572   3 C  s         
    35     -1.078704   2 C  s                73      1.057052   3 C  pz        
   156     -0.871402  10 H  s                40      0.819510   2 C  px        
    44      0.802972   2 C  py               43     -0.788696   2 C  px        
    42     -0.763898   2 C  pz              144     -0.745248   8 H  s         
 
 Vector   88  Occ=0.000000D+00  E= 2.200907D+00
              MO Center=  4.5D-01,  1.8D-01, -3.2D-01, r^2= 3.7D+00
   Bfn.  Coefficient  Atom+Function         Bfn.  Coefficient  Atom+Function  
  ----- ------------  ---------------      ----- ------------  ---------------
    98      2.187565   4 C  s                36     -1.533247   2 C  s         
    45      1.069597   2 C  pz               76     -0.959847   3 C  pz        
   132      0.752211   6 H  s                42     -0.674930   2 C  pz        
   103     -0.670685   4 C  py              117     -0.629368   4 C  d  2      
    97     -0.613557   4 C  s               138     -0.583789   7 H  s         
 
 Vector   89  Occ=0.000000D+00  E= 2.232102D+00
              MO Center=  6.9D-01, -4.6D-02, -1.4D-01, r^2= 3.5D+00
   Bfn.  Coefficient  Atom+Function         Bfn.  Coefficient  Atom+Function  
  ----- ------------  ---------------      ----- ------------  ---------------
    36      3.354349   2 C  s                67     -1.806957   3 C  s         
    98     -1.452896   4 C  s                 5     -1.129659   1 O  s         
    42     -1.051513   2 C  pz               45     -0.788657   2 C  pz        
    43     -0.756099   2 C  px              150      0.738443   9 H  s         
    72     -0.726273   3 C  py               66      0.720806   3 C  s         
 
 Vector   90  Occ=0.000000D+00  E= 2.245591D+00
              MO Center=  7.0D-01, -2.4D-01, -7.3D-01, r^2= 3.6D+00
   Bfn.  Coefficient  Atom+Function         Bfn.  Coefficient  Atom+Function  
  ----- ------------  ---------------      ----- ------------  ---------------
   150      1.273350   9 H  s                36      1.024840   2 C  s         
    66     -0.937146   3 C  s               144     -0.878697   8 H  s         
   117      0.779878   4 C  d  2             72      0.757440   3 C  py        
    67     -0.738385   3 C  s                98     -0.724161   4 C  s         
    83      0.578177   3 C  d -1            138      0.568542   7 H  s         
 
 Vector   91  Occ=0.000000D+00  E= 2.266464D+00
              MO Center=  9.3D-01, -2.5D-01, -1.1D+00, r^2= 3.0D+00
   Bfn.  Coefficient  Atom+Function         Bfn.  Coefficient  Atom+Function  
  ----- ------------  ---------------      ----- ------------  ---------------
    66      2.285310   3 C  s                36      1.960621   2 C  s         
    41     -1.465526   2 C  py               67     -1.355496   3 C  s         
    98     -1.255272   4 C  s                35     -1.146510   2 C  s         
   156      0.955911  10 H  s                72     -0.904955   3 C  py        
    71      0.858390   3 C  px              126     -0.832928   5 H  s         
 
 Vector   92  Occ=0.000000D+00  E= 2.283777D+00
              MO Center=  5.3D-01,  1.2D-01, -2.2D-01, r^2= 3.6D+00
   Bfn.  Coefficient  Atom+Function         Bfn.  Coefficient  Atom+Function  
  ----- ------------  ---------------      ----- ------------  ---------------
    98      3.543722   4 C  s                66      2.334505   3 C  s         
[...]
    21     -0.870743   1 O  d -1             42     -0.815143   2 C  pz        
    97     -0.730417   4 C  s                45     -0.703552   2 C  pz        
    98     -0.517961   4 C  s                 5     -0.508643   1 O  s         
    67     -0.507871   3 C  s               102      0.499479   4 C  px        
 
 Vector  154  Occ=0.000000D+00  E= 6.676220D+00
              MO Center= -8.7D-01, -1.8D-01,  2.0D-01, r^2= 5.7D-01
   Bfn.  Coefficient  Atom+Function         Bfn.  Coefficient  Atom+Function  
  ----- ------------  ---------------      ----- ------------  ---------------
    18      1.061722   1 O  d  1             23     -1.035725   1 O  d  1      
    97     -0.843550   4 C  s                42     -0.773378   2 C  pz        
    35      0.758287   2 C  s               102      0.638898   4 C  px        
    54     -0.545287   2 C  d  1             14      0.404622   1 O  pz        
    16     -0.392914   1 O  d -1             11      0.388403   1 O  pz        
 
 Vector  155  Occ=0.000000D+00  E= 6.842208D+00
              MO Center= -8.8D-01, -1.9D-01,  2.0D-01, r^2= 5.9D-01
   Bfn.  Coefficient  Atom+Function         Bfn.  Coefficient  Atom+Function  
  ----- ------------  ---------------      ----- ------------  ---------------
     5      2.111309   1 O  s                40      1.768311   2 C  px        
     9      1.361238   1 O  px               97     -1.281372   4 C  s         
     4      1.204200   1 O  s                20      1.048346   1 O  d -2      
    42     -0.973694   2 C  pz               35     -0.851431   2 C  s         
    12      0.846943   1 O  px               15     -0.833455   1 O  d -2      
 
 Vector  156  Occ=0.000000D+00  E= 7.055816D+00
              MO Center= -8.9D-01, -1.9D-01,  2.0D-01, r^2= 6.4D-01
   Bfn.  Coefficient  Atom+Function         Bfn.  Coefficient  Atom+Function  
  ----- ------------  ---------------      ----- ------------  ---------------
    66     -3.177068   3 C  s                35      3.029415   2 C  s         
    40     -2.726328   2 C  px               72      2.691411   3 C  py        
    24     -1.578274   1 O  d  2             36      1.440824   2 C  s         
    10      1.283160   1 O  py               67     -1.285057   3 C  s         
    19      1.016364   1 O  d  2             13      0.865963   1 O  py        
 
 Vector  157  Occ=0.000000D+00  E= 2.194272D+01
              MO Center=  1.2D-01,  7.3D-01,  2.4D-03, r^2= 1.4D+00
   Bfn.  Coefficient  Atom+Function         Bfn.  Coefficient  Atom+Function  
  ----- ------------  ---------------      ----- ------------  ---------------
    64      1.553318   3 C  s                65     -1.322376   3 C  s         
    67     -1.277653   3 C  s                63     -1.224139   3 C  s         
    98      1.118154   4 C  s                95     -0.821375   4 C  s         
    96      0.676943   4 C  s                94      0.649573   4 C  s         
    40     -0.488058   2 C  px               35      0.460553   2 C  s         
 
 Vector  158  Occ=0.000000D+00  E= 2.198378D+01
              MO Center=  8.6D-01, -2.1D-01, -6.9D-01, r^2= 1.2D+00
   Bfn.  Coefficient  Atom+Function         Bfn.  Coefficient  Atom+Function  
  ----- ------------  ---------------      ----- ------------  ---------------
    95      1.407535   4 C  s                96     -1.303641   4 C  s         
    98     -1.122367   4 C  s                94     -1.107244   4 C  s         
    34     -0.948150   2 C  s                36     -0.873594   2 C  s         
    33      0.856167   2 C  s                65     -0.701308   3 C  s         
    32     -0.668646   2 C  s                64      0.662178   3 C  s         
 
 Vector  159  Occ=0.000000D+00  E= 2.210517D+01
              MO Center=  6.0D-01, -1.1D-01, -5.5D-02, r^2= 6.8D-01
   Bfn.  Coefficient  Atom+Function         Bfn.  Coefficient  Atom+Function  
  ----- ------------  ---------------      ----- ------------  ---------------
    36      2.199722   2 C  s                33     -1.554075   2 C  s         
    34      1.542097   2 C  s                35     -1.346265   2 C  s         
    98     -1.267346   4 C  s                32      1.216754   2 C  s         
    67     -1.168887   3 C  s                97      0.692768   4 C  s         
    95      0.686952   4 C  s                96     -0.620982   4 C  s         
 
 Vector  160  Occ=0.000000D+00  E= 4.341402D+01
              MO Center= -8.8D-01, -1.8D-01,  2.0D-01, r^2= 1.2D-01
   Bfn.  Coefficient  Atom+Function         Bfn.  Coefficient  Atom+Function  
  ----- ------------  ---------------      ----- ------------  ---------------
     4      2.505483   1 O  s                 3     -1.874124   1 O  s         
     2      1.731505   1 O  s                 1     -1.395837   1 O  s         
     5     -0.878440   1 O  s                36      0.831183   2 C  s         
     9      0.561106   1 O  px               66     -0.513896   3 C  s         
    40      0.463833   2 C  px               72      0.455831   3 C  py        
 

 center of mass
 --------------
 x =   0.30619384 y =   0.09486580 z =  -0.27792393

 moments of inertia (a.u.)
 ------------------
         200.016681497295          45.671863323656          83.758796479667
          45.671863323656         247.937052723970         -52.508304413535
          83.758796479667         -52.508304413535         238.945941443276
 
     Multipole analysis of the density
     ---------------------------------
 
     L   x y z        total         alpha         beta         nuclear
     -   - - -        -----         -----         ----         -------
     0   0 0 0     -0.000000    -16.000000    -16.000000     32.000000
 
     1   1 0 0      0.691649     -6.221786     -6.221786     13.135221
     1   0 1 0      0.324011     -1.623564     -1.623564      3.571140
     1   0 0 1     -0.046133      5.345553      5.345553    -10.737240
 
     2   2 0 0    -20.023753    -54.346805    -54.346805     88.669858
     2   1 1 0     -1.109346     13.904432     13.904432    -28.918210
     2   1 0 1      0.153351     26.473420     26.473420    -52.793489
     2   0 2 0    -17.846586    -40.506674    -40.506674     63.166761
     2   0 1 1      0.280871    -15.288501    -15.288501     30.857873
     2   0 0 2    -18.179169    -45.691578    -45.691578     73.203987
 
 *** CALLING NEW AORESP DRIVER FOR CLOSED AND OPEN SHELLS ***
 Entering AOResponse driver routine


--------------------------------------------------------------------------------

          ****************
          *** RESPONSE ***
          ****************

 Response module for NWChem and dynamic CPKS solver
 developed by J. Autschbach and coworkers, SUNY Buffalo
 The methodology used in this program is described in 
 ChemPhysChem 12 (2011), 3224-3235 (main reference)
 J. Chem. Phys. 123 (2005), 114103
 J. Chem. Phys. 122 (2005), 224115
 J. Chem. Phys. 122 (2005), 074105
 Comp. Lett. 3 (2007), 131-150 (contact JA for a copy)
 Please cite this work in publications based on results
 obtained with this code. Thank you!

 For extension of response module to open shell
 calculations please acknowledge:
 F. Aquino, Northwestern University, Schatz Rsrch Group
 The update to the methodology is described in
 J. Phys. Chem. A 118 (2014) 517-525



          -----------------------------------------------
          Solving response equations for perturbing field
          -----------------------------------------------

 number of frequencies:     1
 frequency in a.u.:  0.9319600E-01
 Perturbing field: electric
 Using GIAO formalism for OptRot
 Adding quadrupole terms to OptRot
 to create an origin in dependent tensor.
 Using El. Dipole Length Gauge
 
 Applying DAMPING constant of  0.003700 a.u.
 
 Setting up CPKS
 with frequency omega =      0.09319600 a.u.
 and a damping of            0.00370000 a.u.

 
                            NWChem Dynamic CPHF Module
                            --------------------------
 
 
    scftype = RHF 
    nclosed =   16
      nopen =    0
  variables =     9216
  num. vecs =        3
  tolerance =   1.0D-07
  max. iter =  100

 SCF residual:   3.235841914687422E-006


Iterative solution of linear equations
  No. of variables     4608
  No. of equations        3
  Maximum subspace       99
       Convergence  1.0D-07
        Start time     94.1


   iter   nsub   residual    time 
   ----  ------  --------  --------- 
 dft_CPHF2_read: failed to open
 ./methyloxirane_blyp-def2-tzvp_488.9_48.inp.aoresp_fiao_f1
     1      3    3.93D+00     142.9
     2      6    2.70D+00     192.1
     3      9    2.48D-01     241.2
     4     12    5.12D-02     290.2
     5     15    1.08D-02     339.2
     6     18    1.26D-03     388.2
     7     21    1.35D-04     437.2
     8     24    1.33D-05     486.2
     9     27    1.37D-06     535.2
    10     30    4.45D-07     584.4
    11     33    1.78D-08     633.4

 Calculating some arrays needed for GIAO optical rotation

    0 giaofock schwarz done =      92.88%
    0 giaofock schwarz done =      92.88%
 aor_r1_tensor_giao: roadata output requested
 dip-quad polarizability Re:

              1        2        3        4        5        6      
    1   77.2072  -6.1655 -27.9206  -4.6457   1.5674   9.1444
    2  -11.7933  25.3314   3.7326  24.3966 -23.5696   3.3829
    3   -6.3485   1.3947  39.0799  -1.7718  13.5385 -42.6816
 traceless dip-quad polarizability:

              1        2        3      
    1   74.9578  -9.2483 -41.8808
    2   -9.2483 -47.8215   2.3510
    3  -41.8808   2.3510 -27.1363

              1        2        3      
    1  -25.6831  37.9970   5.5989
    2   37.9970  28.6018 -35.3544
    3    5.5989 -35.3544  -2.9187

              1        2        3      
    1   15.8781   2.0921  58.6199
    2    2.0921  22.7433  20.3078
    3   58.6199  20.3078 -38.6214

 roa begin

 alpha real:
 XX       0.4097741869336E+02
 XY      -0.5215852337810E+01
 XZ      -0.2974127898291E+01
 YX      -0.5215852354305E+01
 YY       0.4412329815773E+02
 YZ       0.2782271338005E+01
 ZX      -0.2974127905376E+01
 ZY       0.2782271334514E+01
 ZZ       0.4124948378289E+02

 alpha im:
 XX       0.1107451119516E+00
 XY      -0.3009710443300E-01
 XZ      -0.1091632535448E-01
 YX      -0.3009709972841E-01
 YY       0.1297921800468E+00
 YZ       0.1527147126677E-01
 ZX      -0.1091632215505E-01
 ZY       0.1527147185437E-01
 ZZ       0.1207718146050E+00

 beta real:
 XX      -0.1487361903535E+00
 XY       0.9552323836339E+00
 XZ       0.2048883030972E+00
 YX      -0.8417641300139E+00
 YY       0.1466085642912E+00
 YZ      -0.1545885056953E+01
 ZX      -0.4791700962489E+00
 ZY       0.1867687396218E+01
 ZZ      -0.1064753555456E-01

 G-prime = -omega beta(real):
 XX      -0.1487361903535E+00
 XY       0.9552323836339E+00
 XZ       0.2048883030972E+00
 YX      -0.8417641300139E+00
 YY       0.1466085642912E+00
 YZ      -0.1545885056953E+01
 ZX      -0.4791700962489E+00
 ZY       0.1867687396218E+01
 ZZ      -0.1064753555456E-01

 beta im:
 XX      -0.6299108864743E-02
 XY       0.1359056751349E-01
 XZ       0.2882199357920E-02
 YX      -0.5153869942704E-02
 YY       0.4724293202910E-02
 YZ      -0.2352890887971E-01
 ZX      -0.1332048743598E-01
 ZY       0.4006335944215E-01
 ZZ       0.3033167100874E-03

 G-prime = -omega beta(imag):
 XX      -0.6299108864743E-02
 XY       0.1359056751349E-01
 XZ       0.2882199357920E-02
 YX      -0.5153869942704E-02
 YY       0.4724293202910E-02
 YZ      -0.2352890887971E-01
 ZX      -0.1332048743598E-01
 ZY       0.4006335944215E-01
 ZZ       0.3033167100874E-03

 dipole-quadrupole real (Cartesian):
 XXX      0.7720716014834E+02
 XXY     -0.6165526587006E+01
 XXZ     -0.2792056496549E+02
 XYY     -0.4645747146583E+01
 XYZ      0.1567365403051E+01
 XZZ      0.9144392443607E+01
 YXX     -0.1179328227775E+02
 YXY      0.2533135674810E+02
 YXZ      0.3732571216914E+01
 YYY      0.2439664949693E+02
 YYZ     -0.2356959503926E+02
 YZZ      0.3382935895493E+01
 ZXX     -0.6348522444401E+01
 ZXY      0.1394711627679E+01
 ZXZ      0.3907994042853E+02
 ZYY     -0.1771773713053E+01
 ZYZ      0.1353853832810E+02
 ZZZ     -0.4268155667302E+02

 dipole-quadrupole imag (Cartesian):
 XXX      0.2696914177153E+00
 XXY     -0.3432912303024E-01
 XXZ     -0.7821152036489E-01
 XYY     -0.3009486377720E-01
 XYZ      0.4499535298940E-02
 XZZ      0.6062062389490E-01
 YXX     -0.5699564621859E-01
 YXY      0.6018837146980E-01
 YXZ      0.2144118644826E-01
 YYY      0.9976884130749E-01
 YYZ     -0.7472553437859E-01
 YZZ      0.3724706713391E-02
 ZXX     -0.3104714040790E-01
 ZXY      0.2160902526986E-02
 ZXZ      0.1436054728996E+00
 ZYY     -0.6893784742321E-02
 ZYZ      0.6260085087289E-01
 ZZZ     -0.1041128816958E+00

 dipole-quadrupole (traceless):
 XXX      0.7495783749983E+02
 XXY     -0.9248289880509E+01
 XXZ     -0.4188084744823E+02
 XYY     -0.4782152344256E+02
 XYZ      0.2351048104577E+01
 XZZ     -0.2713631405727E+02
 YXX     -0.2568307497396E+02
 YXY      0.3799703512214E+02
 YXZ      0.5598856825371E+01
 YYY      0.2860182268806E+02
 YYZ     -0.3535439255889E+02
 YZZ     -0.2918747714098E+01
 ZXX      0.1587814274863E+02
 ZXY      0.2092067441518E+01
 ZXZ      0.5861991064279E+02
 ZYY      0.2274326584566E+02
 ZYZ      0.2030780749215E+02
 ZZZ     -0.3862140859429E+02

 roa end


 Electric Dipole Response Matrix (nonzero elements):

              1        2        3      
    1   40.9774  -5.2159  -2.9741
    2   -5.2159  44.1233   2.7823
    3   -2.9741   2.7823  41.2495
 
 Imaginary part:

              1        2        3      
    1    0.1107  -0.0301  -0.0109
    2   -0.0301   0.1298   0.0153
    3   -0.0109   0.0153   0.1208

 ------------------------------------------
 average:        42.11673 + I       0.12044


 DFT Linear Response polarizability / au 
 Frequency  =       0.0931960 / au
 Wavelength =     488.8981609 / nm
              X              Y              Z
 -----------------------------------------------
 X      40.9774187     -5.2158523     -2.9741279
 Y      -5.2158524     44.1232982      2.7822713
 Z      -2.9741279      2.7822713     41.2494838
 -----------------------------------------------
 Eigenvalues =      36.9184945     49.8698370     39.5618692
 Isotropic   =      42.1167335
 Anisotropic =       9.6777908
 -----------------------------------------------
 *************************

 DFT Linear Response IMAG polarizability / au 
 Frequency  =       0.0931960 / au
 Wavelength =     488.8981609 / nm
              X              Y              Z
 -----------------------------------------------
 X       0.1107451     -0.0300971     -0.0109163
 Y      -0.0300971      0.1297922      0.0152715
 Z      -0.0109163      0.0152715      0.1207718
 -----------------------------------------------
 Eigenvalues =       0.0886989      0.1606680      0.1119421
 Isotropic   =       0.1204364
 Anisotropic =       0.0519423
 -----------------------------------------------
 *************************

 Magnetic Dipole Response Matrix (nonzero elements):
 Optical rotation tensor Beta
 (Buckingham-Dunn version including dipole-quadrupole terms)

              1        2        3      
    1    2.7649  -0.6652   0.3396
    2   -0.6652  -1.6594  -1.7369
    3    0.3396  -1.7369  -0.9684
 
 Imaginary part:

              1        2        3      
    1    0.0676  -0.1458  -0.0309
    2    0.0553  -0.0507   0.2525
    3    0.1429  -0.4299  -0.0033

 ------------------------------------------
 average:         0.04569 + I       0.00455

 Principal components and PAS (Real part)
                 -3.10038
                  2.96635
                  0.27111
 ------------------------
 average:         0.04569

              1        2        3      
    1    0.0520   0.9637  -0.2620
    2    0.7783  -0.2035  -0.5940
    3    0.6257   0.1730   0.7606

 Chiral response tensor (Real part):

              1        2        3      
    1   -1.3139   0.3326  -0.1698
    2    0.3326   0.8983   0.8684
    3   -0.1698   0.8684   0.5527
 
 Principal components and PAS (Real part)
                  1.61873
                 -1.41463
                 -0.06702
 ------------------------
 average:         0.04569

              1        2        3      
    1    0.0520   0.9637  -0.2620
    2    0.7783  -0.2035  -0.5940
    3    0.6257   0.1730   0.7606
 Exiting AOResponse driver routine

 Task  times  cpu:      613.4s     wall:      627.6s
 
 
                                NWChem Input Module
                                -------------------
 
 
 Summary of allocated global arrays
-----------------------------------
  No active global arrays



                         GA Statistics for process    0
                         ------------------------------

       create   destroy   get      put      acc     scatter   gather  read&inc
calls: 3294     3294     7.58e+06 3.14e+06 7.29e+05 2694        0     1100     
number of processes/call 1.01e+00 1.03e+00 1.42e+00 0.00e+00 0.00e+00
bytes total:             1.69e+09 1.26e+08 1.73e+09 1.84e+02 0.00e+00 8.80e+03
bytes remote:            7.16e+08 3.29e+07 9.92e+08 0.00e+00 0.00e+00 0.00e+00
Max memory consumed for GA by this process: 11242192 bytes
 
MA_summarize_allocated_blocks: starting scan ...
MA_summarize_allocated_blocks: scan completed: 0 heap blocks, 0 stack blocks
MA usage statistics:

	allocation statistics:
					      heap	     stack
					      ----	     -----
	current number of blocks	         0	         0
	maximum number of blocks	        24	        52
	current total bytes		         0	         0
	maximum total bytes		   7519856	  48969448
	maximum total K-bytes		      7520	     48970
	maximum total M-bytes		         8	        49
 
 
                                     CITATION
                                     --------
                Please cite the following reference when publishing
                           results obtained with NWChem:
 
                 M. Valiev, E.J. Bylaska, N. Govind, K. Kowalski,
              T.P. Straatsma, H.J.J. van Dam, D. Wang, J. Nieplocha,
                        E. Apra, T.L. Windus, W.A. de Jong
                 "NWChem: a comprehensive and scalable open-source
                  solution for large scale molecular simulations"
                      Comput. Phys. Commun. 181, 1477 (2010)
                           doi:10.1016/j.cpc.2010.04.018
 
                                      AUTHORS
                                      -------
          E. Apra, E. J. Bylaska, W. A. de Jong, N. Govind, K. Kowalski,
       T. P. Straatsma, M. Valiev, H. J. J. van Dam, D. Wang, T. L. Windus,
        J. Hammond, J. Autschbach, K. Bhaskaran-Nair, J. Brabec, K. Lopata,
    S. A. Fischer, S. Krishnamoorthy, M. Jacquelin, W. Ma, M. Klemm, O. Villa,
      Y. Chen, V. Anisimov, F. Aquino, S. Hirata, M. T. Hackler, V. Konjkov,
            D. Mejia-Rodriguez, T. Risthaus, M. Malagoli, A. Marenich,
   A. Otero-de-la-Roza, J. Mullin, P. Nichols, R. Peverati, J. Pittner, Y. Zhao,
        P.-D. Fan, A. Fonari, M. J. Williamson, R. J. Harrison, J. R. Rehr,
      M. Dupuis, D. Silverstein, D. M. A. Smith, J. Nieplocha, V. Tipparaju,
    M. Krishnan, B. E. Van Kuiken, A. Vazquez-Mayagoitia, L. Jensen, M. Swart,
      Q. Wu, T. Van Voorhis, A. A. Auer, M. Nooijen, L. D. Crosby, E. Brown,
      G. Cisneros, G. I. Fann, H. Fruchtl, J. Garza, K. Hirao, R. A. Kendall,
      J. A. Nichols, K. Tsemekhman, K. Wolinski, J. Anchell, D. E. Bernholdt,
      P. Borowski, T. Clark, D. Clerc, H. Dachsel, M. J. O. Deegan, K. Dyall,
    D. Elwood, E. Glendening, M. Gutowski, A. C. Hess, J. Jaffe, B. G. Johnson,
     J. Ju, R. Kobayashi, R. Kutteh, Z. Lin, R. Littlefield, X. Long, B. Meng,
      T. Nakajima, S. Niu, L. Pollack, M. Rosing, K. Glaesemann, G. Sandrone,
      M. Stave, H. Taylor, G. Thomas, J. H. van Lenthe, A. T. Wong, Z. Zhang.

 Total times  cpu:      686.6s     wall:      702.4s
