 argument  1 = methyloxirane_blyp-def2-tzvp_488.9_00.inp
 


============================== echo of input deck ==============================
echo
start methyloxirane_blyp-def2-tzvp_488.9_00.inp
title "methyloxirane roa calculations at 488.9 nm, input generated in va  with delta_type=2"
charge 0



geometry units angstrom nocenter noautoz noautosym nucleus point;symmetry c1
 O -0.879112 -0.180294  0.205257
 C  0.574200 -0.157646  0.122588
 C -0.185517  1.088353  0.340116
 C  1.185420 -0.520407 -1.211416
 H  1.058604 -0.603865  0.998120
 H -0.228052  1.538075  1.335550
 H -0.325346  1.782434 -0.493154
 H  2.241636 -0.216103 -1.245734
 H  1.142471 -1.606131 -1.374270
 H  0.651796 -0.027264 -2.033329
end

basis spherical
* library def2-TZVP
end

 set prop:newaoresp 1
 set aor:roadata T
 set cphf:maxsub 100
 set cphf:acc 1.0d-10
 set cphf:maxiter 100

property
    response 1   0.093196
    bdtensor
    convergence 1e-7
    damping 0.0037
    giao
end

dft
 direct
 mult 1
 xc becke88 lyp
 iterations 250
 tolerances tight
 grid xfine
 convergence nolevelshifting
 convergence energy 1e-8
 convergence gradient 1e-7


end

task dft gradient
task dft property
================================================================================


                                         
                                         
 
 
              Northwest Computational Chemistry Package (NWChem) 6.8
              ------------------------------------------------------
 
 
                    Environmental Molecular Sciences Laboratory
                       Pacific Northwest National Laboratory
                                Richland, WA 99352
 
                              Copyright (c) 1994-2017
                       Pacific Northwest National Laboratory
                            Battelle Memorial Institute
 
             NWChem is an open-source computational chemistry package
                        distributed under the terms of the
                      Educational Community License (ECL) 2.0
             A copy of the license is included with this distribution
                              in the LICENSE.TXT file
 
                                  ACKNOWLEDGMENT
                                  --------------

            This software and its documentation were developed at the
            EMSL at Pacific Northwest National Laboratory, a multiprogram
            national laboratory, operated for the U.S. Department of Energy
            by Battelle under Contract Number DE-AC05-76RL01830. Support
            for this work was provided by the Department of Energy Office
            of Biological and Environmental Research, Office of Basic
            Energy Sciences, and the Office of Advanced Scientific Computing.


           Job information
           ---------------

    hostname        = cpn-f11-17-01.cbls.ccr.buffalo.edu
    program         = /util/academic/nwchem/nwchem-6.8/bin/LINUX64/nwchem
    date            = Fri Mar  1 09:54:10 2019

    compiled        = Tue_Nov_06_14:59:08_2018
    source          = /util/academic/nwchem/nwchem-6.8
    nwchem branch   = 6.8
    nwchem revision = v6.8-47-gdf6c956
    ga revision     = ga-5.6.3
    use scalapack   = F
    input           = methyloxirane_blyp-def2-tzvp_488.9_00.inp
    prefix          = methyloxirane_blyp-def2-tzvp_488.9_00.inp.
    data base       = ./methyloxirane_blyp-def2-tzvp_488.9_00.inp.db
    status          = startup
    nproc           =        7
    time left       =     -1s



           Memory information
           ------------------

    heap     =   13107200 doubles =    100.0 Mbytes
    stack    =   13107197 doubles =    100.0 Mbytes
    global   =   26214400 doubles =    200.0 Mbytes (distinct from heap & stack)
    total    =   52428797 doubles =    400.0 Mbytes
    verify   = yes
    hardfail = no 


           Directory information
           ---------------------
 
  0 permanent = .
  0 scratch   = .
 
 
 
 
                                NWChem Input Module
                                -------------------
 
 
                    methyloxirane roa calculations at 488.9 nm, input generated in va  with delta_type=2
                    ------------------------------------------

 Scaling coordinates for geometry "geometry" by  1.889725989
 (inverse scale =  0.529177249)

 
 
                             Geometry "geometry" -> ""
                             -------------------------
 
 Output coordinates in angstroms (scale by  1.889725989 to convert to a.u.)
 
  No.       Tag          Charge          X              Y              Z
 ---- ---------------- ---------- -------------- -------------- --------------
    1 O                    8.0000    -0.87911200    -0.18029400     0.20525700
    2 C                    6.0000     0.57420000    -0.15764600     0.12258800
    3 C                    6.0000    -0.18551700     1.08835300     0.34011600
    4 C                    6.0000     1.18542000    -0.52040700    -1.21141600
    5 H                    1.0000     1.05860400    -0.60386500     0.99812000
    6 H                    1.0000    -0.22805200     1.53807500     1.33555000
    7 H                    1.0000    -0.32534600     1.78243400    -0.49315400
    8 H                    1.0000     2.24163600    -0.21610300    -1.24573400
    9 H                    1.0000     1.14247100    -1.60613100    -1.37427000
   10 H                    1.0000     0.65179600    -0.02726400    -2.03332900
 
      Atomic Mass 
      ----------- 
 
      O                 15.994910
      C                 12.000000
      H                  1.007825
 

 Effective nuclear repulsion energy (a.u.)     123.5339301845

            Nuclear Dipole moment (a.u.) 
            ----------------------------
        X                 Y               Z
 ---------------- ---------------- ----------------
    13.1389454349     3.5651457117   -10.7015806343
 
 
            XYZ format geometry
            -------------------
    10
 geometry
 O                    -0.87911200    -0.18029400     0.20525700
 C                     0.57420000    -0.15764600     0.12258800
 C                    -0.18551700     1.08835300     0.34011600
 C                     1.18542000    -0.52040700    -1.21141600
 H                     1.05860400    -0.60386500     0.99812000
 H                    -0.22805200     1.53807500     1.33555000
 H                    -0.32534600     1.78243400    -0.49315400
 H                     2.24163600    -0.21610300    -1.24573400
 H                     1.14247100    -1.60613100    -1.37427000
 H                     0.65179600    -0.02726400    -2.03332900
 
 ==============================================================================
                                internuclear distances
 ------------------------------------------------------------------------------
       center one      |      center two      | atomic units |  angstroms
 ------------------------------------------------------------------------------
    2 C                |   1 O                |     2.75113  |     1.45584
    3 C                |   1 O                |     2.74416  |     1.45215
    3 C                |   2 C                |     2.78823  |     1.47547
    4 C                |   2 C                |     2.85640  |     1.51154
    5 H                |   2 C                |     2.07036  |     1.09559
    6 H                |   3 C                |     2.06573  |     1.09314
    7 H                |   3 C                |     2.06633  |     1.09345
    8 H                |   4 C                |     2.07816  |     1.09971
    9 H                |   4 C                |     2.07626  |     1.09871
   10 H                |   4 C                |     2.07310  |     1.09703
 ------------------------------------------------------------------------------
                         number of included internuclear distances:         10
 ==============================================================================



 ==============================================================================
                                 internuclear angles
 ------------------------------------------------------------------------------
        center 1       |       center 2       |       center 3       |  degrees
 ------------------------------------------------------------------------------
    2 C                |   1 O                |   3 C                |    60.98
    2 C                |   1 O                |   3 C                |    60.98
    1 O                |   2 C                |   4 C                |   116.75
    1 O                |   2 C                |   5 H                |   112.93
    3 C                |   2 C                |   4 C                |   122.75
    3 C                |   2 C                |   5 H                |   116.99
    4 C                |   2 C                |   5 H                |   115.39
    3 C                |   1 O                |   2 C                |    60.98
    1 O                |   3 C                |   6 H                |   115.18
    1 O                |   3 C                |   7 H                |   115.01
    2 C                |   3 C                |   6 H                |   120.11
    2 C                |   3 C                |   7 H                |   119.31
    6 H                |   3 C                |   7 H                |   115.33
    2 C                |   4 C                |   8 H                |   110.46
    2 C                |   4 C                |   9 H                |   110.62
    2 C                |   4 C                |  10 H                |   110.89
    8 H                |   4 C                |   9 H                |   107.84
    8 H                |   4 C                |  10 H                |   108.63
    9 H                |   4 C                |  10 H                |   108.31
 ------------------------------------------------------------------------------
                            number of included internuclear angles:         19
 ==============================================================================



  warning:::::::::::::: from_environment
  NWCHEM_BASIS_LIBRARY set to: <
 /util/academic/nwchem/nwchem-6.8/src/basis/libraries>
  but file does not exist !
  using .nwchemrc or compiled library


 Summary of "ao basis" -> "" (spherical)
 ------------------------------------------------------------------------------
       Tag                 Description            Shells   Functions and Types
 ---------------- ------------------------------  ------  ---------------------
 *                         def2-TZVP                  on all atoms 


 
                                 NWChem DFT Module
                                 -----------------
 
 
                    methyloxirane roa calculations at 488.9 nm, input generated in va  with delta_type=2
 
 
                      Basis "ao basis" -> "ao basis" (spherical)
                      -----
  O (Oxygen)
  ----------
            Exponent  Coefficients 
       -------------- ---------------------------------------------------------
  1 S  2.70323826E+04  0.000217
  1 S  4.05238714E+03  0.001684
  1 S  9.22327227E+02  0.008740
  1 S  2.61240710E+02  0.035240
  1 S  8.53546414E+01  0.111535
  1 S  3.10350352E+01  0.255890
 
  2 S  1.22608607E+01  0.397687
  2 S  4.99870760E+00  0.246278
 
  3 S  1.17031082E+00  1.000000
 
  4 S  4.64747410E-01  1.000000
 
  5 S  1.85045364E-01  1.000000
 
  6 P  6.32749548E+01  0.006069
  6 P  1.46270494E+01  0.041913
  6 P  4.45012235E+00  0.161538
  6 P  1.52757996E+00  0.357070
 
  7 P  5.29351179E-01  1.000000
 
  8 P  1.74784213E-01  1.000000
 
  9 D  2.31400000E+00  1.000000
 
 10 D  6.45000000E-01  1.000000
 
 11 F  1.42800000E+00  1.000000
 
  C (Carbon)
  ----------
            Exponent  Coefficients 
       -------------- ---------------------------------------------------------
  1 S  1.35753497E+04  0.000222
  1 S  2.03523337E+03  0.001723
  1 S  4.63225624E+02  0.008926
  1 S  1.31200196E+02  0.035728
  1 S  4.28530159E+01  0.110763
  1 S  1.55841858E+01  0.242956
 
  2 S  6.20671385E+00  0.414403
  2 S  2.57648965E+00  0.237450
 
  3 S  5.76963394E-01  1.000000
 
  4 S  2.29728314E-01  1.000000
 
  5 S  9.51644400E-02  1.000000
 
  6 P  3.46972322E+01  0.005333
  6 P  7.95826228E+00  0.035864
  6 P  2.37808269E+00  0.142159
  6 P  8.14332082E-01  0.342705
 
  7 P  2.88875473E-01  1.000000
 
  8 P  1.00568237E-01  1.000000
 
  9 D  1.09700000E+00  1.000000
 
 10 D  3.18000000E-01  1.000000
 
 11 F  7.61000000E-01  1.000000
 
  H (Hydrogen)
  ------------
            Exponent  Coefficients 
       -------------- ---------------------------------------------------------
  1 S  3.40613410E+01  0.006025
  1 S  5.12357460E+00  0.045021
  1 S  1.16466260E+00  0.201897
 
  2 S  3.27230410E-01  1.000000
 
  3 S  1.03072410E-01  1.000000
 
  4 P  8.00000000E-01  1.000000
 


 Summary of "ao basis" -> "ao basis" (spherical)
 ------------------------------------------------------------------------------
       Tag                 Description            Shells   Functions and Types
 ---------------- ------------------------------  ------  ---------------------
 O                         def2-TZVP                11       31   5s3p2d1f
 C                         def2-TZVP                11       31   5s3p2d1f
 H                         def2-TZVP                 4        6   3s1p




 Summary of "ao basis" -> "ao basis" (spherical)
 ------------------------------------------------------------------------------
       Tag                 Description            Shells   Functions and Types
 ---------------- ------------------------------  ------  ---------------------
 O                         def2-TZVP                11       31   5s3p2d1f
 C                         def2-TZVP                11       31   5s3p2d1f
 H                         def2-TZVP                 4        6   3s1p


  Caching 1-el integrals 
  itol2e modified to match energy
  convergence criterion.
  tol_rho modified to match energy
  convergence criterion.
 
            General Information
            -------------------
          SCF calculation type: DFT
          Wavefunction type:  closed shell.
          No. of atoms     :    10
          No. of electrons :    32
           Alpha electrons :    16
            Beta electrons :    16
          Charge           :     0
          Spin multiplicity:     1
          Use of symmetry is: off; symmetry adaption is: off
          Maximum number of iterations: 250
          This is a Direct SCF calculation.
          AO basis - number of functions:   160
                     number of shells:    68
          Convergence on energy requested:  1.00D-08
          Convergence on density requested:  1.00D-05
          Convergence on gradient requested:  1.00D-07
 
              XC Information
              --------------
                    Becke 1988 Exchange Functional  1.000          
              Lee-Yang-Parr Correlation Functional  1.000          
 
             Grid Information
             ----------------
          Grid used for XC integration:  xfine     
          Radial quadrature: Mura-Knowles        
          Angular quadrature: Lebedev. 
          Tag              B.-S. Rad. Rad. Pts. Rad. Cut. Ang. Pts.
          ---              ---------- --------- --------- ---------
          O                   0.60      100          11.0      1454
          C                   0.70      100          11.0      1454
          H                   0.35      100          12.0      1202
          Grid pruning is: on 
          Number of quadrature shells:  1000
          Spatial weights used:  Erf1
 
          Convergence Information
          -----------------------
          Convergence aids based upon iterative change in 
          total energy or number of iterations. 
          Levelshifting, if invoked, occurs when the 
          HOMO/LUMO gap drops below (HL_TOL):  1.00D-02
          DIIS, if invoked, will attempt to extrapolate 
          using up to (NFOCK): 10 stored Fock matrices.

                    Damping( 0%)  Levelshifting(0.0)       DIIS
                  --------------- ------------------- ---------------
          dE  on:    start             N/A                start   
          dE off:    2 iters           N/A              250 iters 

 
      Screening Tolerance Information
      -------------------------------
          Density screening/tol_rho:  1.00D-11
          AO Gaussian exp screening on grid/accAOfunc:  18
          CD Gaussian exp screening on grid/accCDfunc:  20
          XC Gaussian exp screening on grid/accXCfunc:  20
          Schwarz screening/accCoul:  1.00D-09

 
      Superposition of Atomic Density Guess
      -------------------------------------
 
 Sum of atomic energies:        -190.79714706
 
      Non-variational initial energy
      ------------------------------

 Total energy =    -193.161827
 1-e energy   =    -502.029468
 2-e energy   =     185.333711
 HOMO         =      -0.351619
 LUMO         =       0.090442
 
   Time after variat. SCF:      0.5
   Time prior to 1st pass:      0.5

 Grid_pts file          = ./methyloxirane_blyp-def2-tzvp_488.9_00.inp.gridpts.0
 Record size in doubles =  12289        No. of grid_pts per rec  =   3070
 Max. records in memory =     76        Max. recs in file   =    554552


           Memory utilization after 1st SCF pass: 
           Heap Space remaining (MW):       12.17            12167544
          Stack Space remaining (MW):       13.11            13106116

   convergence    iter        energy       DeltaE   RMS-Dens  Diis-err    time
 ---------------- ----- ----------------- --------- --------- ---------  ------
 d= 0,ls=0.0,diis     1   -193.0202092812 -3.17D+02  9.16D-03  1.06D+00     6.3
 d= 0,ls=0.0,diis     2   -192.8583915950  1.62D-01  7.58D-03  2.56D+00    11.8
 d= 0,ls=0.0,diis     3   -193.0771081563 -2.19D-01  1.82D-03  3.87D-01    17.2
 d= 0,ls=0.0,diis     4   -193.1073017017 -3.02D-02  6.83D-04  1.82D-02    22.7
 d= 0,ls=0.0,diis     5   -193.1089752148 -1.67D-03  2.92D-04  2.71D-03    28.2
 d= 0,ls=0.0,diis     6   -193.1093122250 -3.37D-04  3.03D-05  3.55D-05    33.7
 d= 0,ls=0.0,diis     7   -193.1093164515 -4.23D-06  8.53D-06  4.10D-06    39.2
 d= 0,ls=0.0,diis     8   -193.1093169081 -4.57D-07  2.00D-06  2.89D-07    44.6
 d= 0,ls=0.0,diis     9   -193.1093169398 -3.17D-08  6.42D-07  1.49D-08    50.1
 d= 0,ls=0.0,diis    10   -193.1093169415 -1.71D-09  1.77D-07  1.76D-09    55.6


         Total DFT energy =     -193.109316941463
      One electron energy =     -505.684948499300
           Coulomb energy =      216.062452861880
    Exchange-Corr. energy =      -27.020751488557
 Nuclear repulsion energy =      123.533930184514

 Numeric. integr. density =       31.999999992434

     Total iterative time =     55.0s


 
                       DFT Final Molecular Orbital Analysis
                       ------------------------------------
 
 Vector    1  Occ=2.000000D+00  E=-1.877971D+01
              MO Center= -8.8D-01, -1.8D-01,  2.1D-01, r^2= 1.5D-02
   Bfn.  Coefficient  Atom+Function         Bfn.  Coefficient  Atom+Function  
  ----- ------------  ---------------      ----- ------------  ---------------
     2      0.638477   1 O  s                 1      0.435422   1 O  s         
     3      0.039885   1 O  s                 4     -0.033234   1 O  s         
 
 Vector    2  Occ=2.000000D+00  E=-9.963232D+00
              MO Center=  5.7D-01, -1.6D-01,  1.2D-01, r^2= 2.8D-02
   Bfn.  Coefficient  Atom+Function         Bfn.  Coefficient  Atom+Function  
  ----- ------------  ---------------      ----- ------------  ---------------
    33      0.606915   2 C  s                32      0.467263   2 C  s         
    34      0.042499   2 C  s                36      0.037368   2 C  s         
    35     -0.027255   2 C  s         
 
 Vector    3  Occ=2.000000D+00  E=-9.955585D+00
              MO Center= -1.9D-01,  1.1D+00,  3.4D-01, r^2= 2.8D-02
   Bfn.  Coefficient  Atom+Function         Bfn.  Coefficient  Atom+Function  
  ----- ------------  ---------------      ----- ------------  ---------------
    64      0.607027   3 C  s                63      0.467224   3 C  s         
    65      0.039709   3 C  s         
 
 Vector    4  Occ=2.000000D+00  E=-9.907974D+00
              MO Center=  1.2D+00, -5.2D-01, -1.2D+00, r^2= 2.8D-02
   Bfn.  Coefficient  Atom+Function         Bfn.  Coefficient  Atom+Function  
  ----- ------------  ---------------      ----- ------------  ---------------
    95      0.606961   4 C  s                94      0.467215   4 C  s         
    96      0.040599   4 C  s                98      0.035702   4 C  s         
 
 Vector    5  Occ=2.000000D+00  E=-9.624454D-01
              MO Center= -4.7D-01,  5.6D-02,  2.1D-01, r^2= 6.5D-01
   Bfn.  Coefficient  Atom+Function         Bfn.  Coefficient  Atom+Function  
  ----- ------------  ---------------      ----- ------------  ---------------
     4      0.375237   1 O  s                 3      0.277442   1 O  s         
     2     -0.192792   1 O  s                34      0.139795   2 C  s         
    65      0.139141   3 C  s                 5      0.122764   1 O  s         
    35      0.105112   2 C  s                 6      0.093279   1 O  px        
    66      0.093584   3 C  s                69     -0.091384   3 C  py        
 
 Vector    6  Occ=2.000000D+00  E=-6.697851D-01
              MO Center=  9.4D-01, -3.9D-01, -7.7D-01, r^2= 1.5D+00
   Bfn.  Coefficient  Atom+Function         Bfn.  Coefficient  Atom+Function  
  ----- ------------  ---------------      ----- ------------  ---------------
    97      0.285224   4 C  s                96      0.276332   4 C  s         
    35      0.185106   2 C  s                34      0.174425   2 C  s         
    95     -0.173997   4 C  s                 4     -0.147554   1 O  s         
    33     -0.108975   2 C  s                 3     -0.103181   1 O  s         
    94     -0.083370   4 C  s                 5     -0.073127   1 O  s         
 
 Vector    7  Occ=2.000000D+00  E=-5.897955D-01
              MO Center= -1.3D-01,  7.2D-01,  2.2D-01, r^2= 2.0D+00
   Bfn.  Coefficient  Atom+Function         Bfn.  Coefficient  Atom+Function  
  ----- ------------  ---------------      ----- ------------  ---------------
    66      0.326137   3 C  s                65      0.278214   3 C  s         
     4     -0.238292   1 O  s                64     -0.171950   3 C  s         
     3     -0.168314   1 O  s                 5     -0.147878   1 O  s         
     2      0.111128   1 O  s                38      0.104840   2 C  py        
   132      0.102791   6 H  s                97     -0.099389   4 C  s         
 
 Vector    8  Occ=2.000000D+00  E=-5.299366D-01
              MO Center=  4.1D-01,  1.5D-02, -9.6D-02, r^2= 2.7D+00
   Bfn.  Coefficient  Atom+Function         Bfn.  Coefficient  Atom+Function  
  ----- ------------  ---------------      ----- ------------  ---------------
    35      0.303315   2 C  s                34      0.225080   2 C  s         
    97     -0.154908   4 C  s                66     -0.152867   3 C  s         
    33     -0.138447   2 C  s               126      0.132901   5 H  s         
    96     -0.128633   4 C  s                 6      0.106825   1 O  px        
   125      0.106248   5 H  s                65     -0.099121   3 C  s         
 
 Vector    9  Occ=2.000000D+00  E=-4.477224D-01
              MO Center=  1.2D-01,  2.8D-01,  2.5D-01, r^2= 2.5D+00
   Bfn.  Coefficient  Atom+Function         Bfn.  Coefficient  Atom+Function  
  ----- ------------  ---------------      ----- ------------  ---------------
    70      0.209823   3 C  pz               39      0.155469   2 C  pz        
   132      0.144981   6 H  s                73      0.131868   3 C  pz        
     8      0.127082   1 O  pz              126      0.115802   5 H  s         
     6     -0.110775   1 O  px              131      0.107570   6 H  s         
    38     -0.106836   2 C  py               37      0.104503   2 C  px        
 
 Vector   10  Occ=2.000000D+00  E=-4.135924D-01
              MO Center=  4.8D-02,  2.8D-01, -2.4D-01, r^2= 2.6D+00
   Bfn.  Coefficient  Atom+Function         Bfn.  Coefficient  Atom+Function  
  ----- ------------  ---------------      ----- ------------  ---------------
    69      0.215460   3 C  py              101      0.154895   4 C  pz        
   138      0.153981   7 H  s                 6     -0.143262   1 O  px        
    38     -0.139853   2 C  py               37      0.128736   2 C  px        
     7     -0.122230   1 O  py               72      0.121695   3 C  py        
    70     -0.116727   3 C  pz                9     -0.114496   1 O  px        
 
 Vector   11  Occ=2.000000D+00  E=-3.768375D-01
              MO Center=  9.1D-01, -3.2D-01, -7.4D-01, r^2= 2.7D+00
   Bfn.  Coefficient  Atom+Function         Bfn.  Coefficient  Atom+Function  
  ----- ------------  ---------------      ----- ------------  ---------------
    99      0.210007   4 C  px              144      0.185498   8 H  s         
   100      0.165558   4 C  py              150     -0.140893   9 H  s         
   102      0.134715   4 C  px              143      0.129847   8 H  s         
    37      0.127836   2 C  px                6     -0.117879   1 O  px        
     7      0.114997   1 O  py              103      0.109377   4 C  py        
 
 Vector   12  Occ=2.000000D+00  E=-3.560057D-01
              MO Center=  6.0D-01, -3.4D-01, -8.8D-01, r^2= 2.9D+00
   Bfn.  Coefficient  Atom+Function         Bfn.  Coefficient  Atom+Function  
  ----- ------------  ---------------      ----- ------------  ---------------
   100      0.255912   4 C  py              150     -0.186117   9 H  s         
   156      0.176619  10 H  s                 7     -0.167693   1 O  py        
   103      0.165835   4 C  py               10     -0.134223   1 O  py        
   149     -0.129686   9 H  s               155      0.124994  10 H  s         
    70      0.116869   3 C  pz              106      0.103352   4 C  py        
 
 Vector   13  Occ=2.000000D+00  E=-3.290945D-01
              MO Center=  3.3D-01,  2.5D-01, -2.2D-01, r^2= 2.8D+00
   Bfn.  Coefficient  Atom+Function         Bfn.  Coefficient  Atom+Function  
  ----- ------------  ---------------      ----- ------------  ---------------
    39      0.215632   2 C  pz              101     -0.192878   4 C  pz        
     7     -0.170523   1 O  py               70     -0.170544   3 C  pz        
   138      0.162212   7 H  s                42      0.146346   2 C  pz        
    10     -0.137575   1 O  py              104     -0.135281   4 C  pz        
    99      0.131952   4 C  px              137      0.109158   7 H  s         
 
 Vector   14  Occ=2.000000D+00  E=-3.211921D-01
              MO Center=  4.0D-01, -5.5D-02, -2.3D-01, r^2= 3.0D+00
   Bfn.  Coefficient  Atom+Function         Bfn.  Coefficient  Atom+Function  
  ----- ------------  ---------------      ----- ------------  ---------------
     7      0.202731   1 O  py               10      0.166268   1 O  py        
   126      0.163157   5 H  s                99     -0.156517   4 C  px        
   156      0.153216  10 H  s                 6     -0.147176   1 O  px        
    39      0.132966   2 C  pz               37      0.132181   2 C  px        
   144     -0.131182   8 H  s               101     -0.122391   4 C  pz        
 
 Vector   15  Occ=2.000000D+00  E=-2.634226D-01
              MO Center=  1.6D-02,  1.5D-01,  3.5D-02, r^2= 2.3D+00
   Bfn.  Coefficient  Atom+Function         Bfn.  Coefficient  Atom+Function  
  ----- ------------  ---------------      ----- ------------  ---------------
    68      0.264380   3 C  px               38      0.256429   2 C  py        
     6     -0.237160   1 O  px               41      0.199936   2 C  py        
    71      0.196455   3 C  px                9     -0.185486   1 O  px        
    12     -0.157016   1 O  px              150      0.114858   9 H  s         
   100     -0.110911   4 C  py               67      0.106678   3 C  s         
 
 Vector   16  Occ=2.000000D+00  E=-2.196612D-01
              MO Center= -5.8D-01, -2.6D-02,  2.0D-01, r^2= 1.6D+00
   Bfn.  Coefficient  Atom+Function         Bfn.  Coefficient  Atom+Function  
  ----- ------------  ---------------      ----- ------------  ---------------
     8      0.449026   1 O  pz               11      0.357621   1 O  pz        
    14      0.296234   1 O  pz              133     -0.131062   6 H  s         
   139      0.116527   7 H  s               132     -0.104015   6 H  s         
   138      0.103880   7 H  s               145     -0.102429   8 H  s         
   126     -0.096853   5 H  s                98      0.089773   4 C  s         
 
 Vector   17  Occ=0.000000D+00  E= 2.569541D-02
              MO Center=  1.2D+00, -9.5D-02, -6.1D-01, r^2= 7.2D+00
   Bfn.  Coefficient  Atom+Function         Bfn.  Coefficient  Atom+Function  
  ----- ------------  ---------------      ----- ------------  ---------------
    98      4.480530   4 C  s               145     -1.528984   8 H  s         
   151     -1.501120   9 H  s               157     -1.344838  10 H  s         
   127     -1.240027   5 H  s                45      1.129234   2 C  pz        
   139     -0.878717   7 H  s                67      0.703890   3 C  s         
   133     -0.610174   6 H  s                75      0.327489   3 C  py        
 
 Vector   18  Occ=0.000000D+00  E= 4.281847D-02
              MO Center= -1.3D-01,  6.6D-01,  1.0D-01, r^2= 4.5D+00
   Bfn.  Coefficient  Atom+Function         Bfn.  Coefficient  Atom+Function  
  ----- ------------  ---------------      ----- ------------  ---------------
    98     -2.136072   4 C  s                36      1.972089   2 C  s         
     5     -1.272299   1 O  s                74     -0.940971   3 C  px        
   151      0.813310   9 H  s                45     -0.495482   2 C  pz        
    13     -0.436857   1 O  py              157      0.426848  10 H  s         
    67     -0.415682   3 C  s                44      0.407755   2 C  py        
 
 Vector   19  Occ=0.000000D+00  E= 5.007297D-02
              MO Center=  3.6D-01,  5.1D-01, -1.5D-01, r^2= 6.5D+00
   Bfn.  Coefficient  Atom+Function         Bfn.  Coefficient  Atom+Function  
  ----- ------------  ---------------      ----- ------------  ---------------
    67     -2.800705   3 C  s                36      2.685893   2 C  s         
   127     -1.746753   5 H  s               139      1.641138   7 H  s         
   157      0.827983  10 H  s                45      0.548940   2 C  pz        
    76      0.507713   3 C  pz              145     -0.491911   8 H  s         
     5      0.484223   1 O  s                44      0.474974   2 C  py        
 
 Vector   20  Occ=0.000000D+00  E= 5.090713D-02
              MO Center=  6.0D-01,  5.3D-01,  4.4D-01, r^2= 7.6D+00
   Bfn.  Coefficient  Atom+Function         Bfn.  Coefficient  Atom+Function  
  ----- ------------  ---------------      ----- ------------  ---------------
    98      3.393131   4 C  s                67     -2.596564   3 C  s         
   133      1.846572   6 H  s               127      1.228980   5 H  s         
   145     -1.161658   8 H  s               157     -1.111656  10 H  s         
    44      1.069332   2 C  py               36     -0.957328   2 C  s         
   151     -0.700342   9 H  s                43     -0.659955   2 C  px        
 
 Vector   21  Occ=0.000000D+00  E= 6.465622D-02
              MO Center=  2.7D-01,  1.1D-01, -1.7D-01, r^2= 4.8D+00
   Bfn.  Coefficient  Atom+Function         Bfn.  Coefficient  Atom+Function  
  ----- ------------  ---------------      ----- ------------  ---------------
   139      1.239776   7 H  s                98      1.223815   4 C  s         
    67     -0.966514   3 C  s               151     -0.959969   9 H  s         
     5     -0.884235   1 O  s                43     -0.831838   2 C  px        
   133      0.580753   6 H  s                75     -0.571871   3 C  py        
    12     -0.485752   1 O  px               45      0.400153   2 C  pz        
 
 Vector   22  Occ=0.000000D+00  E= 8.605039D-02
              MO Center=  1.3D+00,  2.0D-01, -5.0D-01, r^2= 7.1D+00
   Bfn.  Coefficient  Atom+Function         Bfn.  Coefficient  Atom+Function  
  ----- ------------  ---------------      ----- ------------  ---------------
    36      2.893721   2 C  s               145      2.018298   8 H  s         
    67     -1.412503   3 C  s               127     -1.312318   5 H  s         
   157     -1.315923  10 H  s               133      1.182480   6 H  s         
   107     -1.118443   4 C  pz              105     -1.015161   4 C  px        
    98     -0.977469   4 C  s                75      0.773385   3 C  py        
 
 Vector   23  Occ=0.000000D+00  E= 9.141185D-02
              MO Center=  1.2D+00, -6.4D-01, -5.4D-01, r^2= 6.6D+00
   Bfn.  Coefficient  Atom+Function         Bfn.  Coefficient  Atom+Function  
  ----- ------------  ---------------      ----- ------------  ---------------
    36      2.533841   2 C  s               151      2.072323   9 H  s         
   145     -1.556327   8 H  s                98     -1.307716   4 C  s         
   106      1.145888   4 C  py              105      1.102965   4 C  px        
   133      0.941629   6 H  s                67     -0.916885   3 C  s         
   127     -0.830371   5 H  s               107     -0.699476   4 C  pz        
 
 Vector   24  Occ=0.000000D+00  E= 1.025383D-01
              MO Center=  4.3D-01,  4.3D-01, -1.1D+00, r^2= 6.8D+00
   Bfn.  Coefficient  Atom+Function         Bfn.  Coefficient  Atom+Function  
  ----- ------------  ---------------      ----- ------------  ---------------
   157      2.040548  10 H  s               133      1.597973   6 H  s         
   139     -1.496532   7 H  s                98     -1.477772   4 C  s         
   106     -1.470318   4 C  py              151     -1.401964   9 H  s         
    36      1.317519   2 C  s                76     -1.156520   3 C  pz        
   105      1.002280   4 C  px               45     -0.542173   2 C  pz        
 
 Vector   25  Occ=0.000000D+00  E= 1.389488D-01
              MO Center=  8.0D-01,  1.9D-01, -4.4D-01, r^2= 7.9D+00
   Bfn.  Coefficient  Atom+Function         Bfn.  Coefficient  Atom+Function  
  ----- ------------  ---------------      ----- ------------  ---------------
    36      4.676763   2 C  s                98     -3.553187   4 C  s         
    45     -3.415234   2 C  pz               67     -2.789959   3 C  s         
   127      2.732727   5 H  s                76      2.169974   3 C  pz        
   105      2.089862   4 C  px              133     -1.792032   6 H  s         
   139      1.693270   7 H  s               107     -1.566347   4 C  pz        
 
 Vector   26  Occ=0.000000D+00  E= 1.703462D-01
              MO Center=  4.4D-01,  5.4D-01, -1.3D-01, r^2= 7.3D+00
   Bfn.  Coefficient  Atom+Function         Bfn.  Coefficient  Atom+Function  
  ----- ------------  ---------------      ----- ------------  ---------------
    75      2.315548   3 C  py              107      1.623625   4 C  pz        
    67     -1.537575   3 C  s                36      1.511214   2 C  s         
   139     -1.193042   7 H  s               157      1.069136  10 H  s         
    74     -0.977335   3 C  px               44      0.728759   2 C  py        
    43     -0.604256   2 C  px              106     -0.578918   4 C  py        
 
 Vector   27  Occ=0.000000D+00  E= 1.974251D-01
              MO Center=  8.3D-01, -7.8D-02, -9.8D-01, r^2= 5.1D+00
   Bfn.  Coefficient  Atom+Function         Bfn.  Coefficient  Atom+Function  
  ----- ------------  ---------------      ----- ------------  ---------------
    67      3.072914   3 C  s                44     -2.598859   2 C  py        
   106      1.996950   4 C  py               36     -1.727481   2 C  s         
    43      0.988895   2 C  px               74      0.733863   3 C  px        
   105      0.703114   4 C  px               45     -0.683753   2 C  pz        
   157     -0.673762  10 H  s               150      0.641513   9 H  s         
 
 Vector   28  Occ=0.000000D+00  E= 2.020600D-01
              MO Center=  9.5D-01, -4.5D-01, -7.0D-01, r^2= 6.7D+00
   Bfn.  Coefficient  Atom+Function         Bfn.  Coefficient  Atom+Function  
  ----- ------------  ---------------      ----- ------------  ---------------
    36      2.599504   2 C  s                75      1.686956   3 C  py        
   105     -1.433115   4 C  px              133     -1.234228   6 H  s         
   107     -0.895042   4 C  pz              106      0.826758   4 C  py        
    45      0.763468   2 C  pz              139     -0.756229   7 H  s         
   156     -0.719427  10 H  s                76      0.675408   3 C  pz        
 
 Vector   29  Occ=0.000000D+00  E= 2.363537D-01
              MO Center= -3.0D-01,  3.9D-01, -5.3D-02, r^2= 5.4D+00
   Bfn.  Coefficient  Atom+Function         Bfn.  Coefficient  Atom+Function  
  ----- ------------  ---------------      ----- ------------  ---------------
    67      4.506857   3 C  s                36     -3.107859   2 C  s         
   139     -1.529579   7 H  s                66     -1.447777   3 C  s         
    98      1.285884   4 C  s               133     -1.243344   6 H  s         
   107      0.997964   4 C  pz               74     -0.797025   3 C  px        
     5     -0.757779   1 O  s               106      0.753260   4 C  py        
 
 Vector   30  Occ=0.000000D+00  E= 2.475408D-01
              MO Center=  5.4D-01,  1.6D-02, -9.0D-02, r^2= 5.9D+00
   Bfn.  Coefficient  Atom+Function         Bfn.  Coefficient  Atom+Function  
  ----- ------------  ---------------      ----- ------------  ---------------
    67      6.007824   3 C  s                43      4.187396   2 C  px        
    75     -3.002891   3 C  py               44     -2.624554   2 C  py        
    36     -2.153310   2 C  s               107     -2.057181   4 C  pz        
   157     -1.843155  10 H  s                45     -1.481978   2 C  pz        
    98     -1.343932   4 C  s               105     -1.198817   4 C  px        
 
 Vector   31  Occ=0.000000D+00  E= 2.686867D-01
              MO Center=  2.8D-01, -1.6D-01,  2.5D-01, r^2= 5.6D+00
   Bfn.  Coefficient  Atom+Function         Bfn.  Coefficient  Atom+Function  
  ----- ------------  ---------------      ----- ------------  ---------------
    36      4.381443   2 C  s                 5     -2.257748   1 O  s         
    67      2.179577   3 C  s                43     -1.589251   2 C  px        
   105      1.524248   4 C  px               66     -1.174763   3 C  s         
    98     -1.156939   4 C  s               139     -0.924524   7 H  s         
   133     -0.902212   6 H  s               127     -0.846420   5 H  s         
 
 Vector   32  Occ=0.000000D+00  E= 2.778413D-01
              MO Center=  4.2D-01,  3.4D-01,  3.0D-01, r^2= 4.2D+00
   Bfn.  Coefficient  Atom+Function         Bfn.  Coefficient  Atom+Function  
  ----- ------------  ---------------      ----- ------------  ---------------
    36      2.412134   2 C  s                 5     -1.688607   1 O  s         
    67     -1.654117   3 C  s                43     -1.224884   2 C  px        
    74     -0.730149   3 C  px               98     -0.660518   4 C  s         
    45     -0.638366   2 C  pz              145      0.577976   8 H  s         
     4      0.490872   1 O  s                66      0.415746   3 C  s         
 
 Vector   33  Occ=0.000000D+00  E= 3.009603D-01
              MO Center=  4.4D-01,  3.6D-01, -3.9D-01, r^2= 5.0D+00
   Bfn.  Coefficient  Atom+Function         Bfn.  Coefficient  Atom+Function  
  ----- ------------  ---------------      ----- ------------  ---------------
    43      1.870983   2 C  px              106      1.758539   4 C  py        
    98     -1.693910   4 C  s               151      1.690908   9 H  s         
    76      1.349570   3 C  pz               36     -1.244887   2 C  s         
    44     -1.237911   2 C  py               66      1.036207   3 C  s         
   107     -1.020736   4 C  pz              139      0.957254   7 H  s         
 
 Vector   34  Occ=0.000000D+00  E= 3.374161D-01
              MO Center=  1.1D-01,  4.3D-01, -4.1D-01, r^2= 5.8D+00
   Bfn.  Coefficient  Atom+Function         Bfn.  Coefficient  Atom+Function  
  ----- ------------  ---------------      ----- ------------  ---------------
    67      4.509654   3 C  s                76     -3.980912   3 C  pz        
   139     -3.164310   7 H  s                36     -2.289961   2 C  s         
   133      2.026278   6 H  s               107     -1.777052   4 C  pz        
   157     -1.758595  10 H  s                98      1.544539   4 C  s         
    43      1.372502   2 C  px               44     -1.114555   2 C  py        
 
 Vector   35  Occ=0.000000D+00  E= 3.625512D-01
              MO Center=  7.8D-01, -1.5D-02, -3.5D-01, r^2= 6.8D+00
   Bfn.  Coefficient  Atom+Function         Bfn.  Coefficient  Atom+Function  
  ----- ------------  ---------------      ----- ------------  ---------------
    98      7.814170   4 C  s                76      3.270468   3 C  pz        
   145     -3.277829   8 H  s                97     -3.151610   4 C  s         
   133     -2.335072   6 H  s               151     -1.912353   9 H  s         
   139      1.627192   7 H  s                44      1.518580   2 C  py        
    45     -1.496627   2 C  pz              157     -1.383265  10 H  s         
 
 Vector   36  Occ=0.000000D+00  E= 3.720488D-01
              MO Center=  5.5D-01,  2.4D-01, -6.0D-02, r^2= 6.4D+00
   Bfn.  Coefficient  Atom+Function         Bfn.  Coefficient  Atom+Function  
  ----- ------------  ---------------      ----- ------------  ---------------
    36     12.789211   2 C  s                98     -8.788358   4 C  s         
    67     -8.351979   3 C  s               127     -3.135236   5 H  s         
    97      2.433407   4 C  s               157      2.286858  10 H  s         
    44      1.935691   2 C  py               35     -1.874848   2 C  s         
   151      1.671381   9 H  s                74     -1.598741   3 C  px        
 
 Vector   37  Occ=0.000000D+00  E= 3.849188D-01
              MO Center=  9.0D-01, -3.5D-01, -1.2D-01, r^2= 6.1D+00
   Bfn.  Coefficient  Atom+Function         Bfn.  Coefficient  Atom+Function  
  ----- ------------  ---------------      ----- ------------  ---------------
    36      6.058857   2 C  s               127     -4.100280   5 H  s         
    98      4.039318   4 C  s                45      2.874687   2 C  pz        
    67     -2.475280   3 C  s                35     -2.226463   2 C  s         
   151     -2.232000   9 H  s                76     -2.009825   3 C  pz        
   145     -2.014724   8 H  s               133      1.669001   6 H  s         
 
 Vector   38  Occ=0.000000D+00  E= 3.947573D-01
              MO Center=  2.0D-01,  1.7D-01, -1.0D-01, r^2= 6.5D+00
   Bfn.  Coefficient  Atom+Function         Bfn.  Coefficient  Atom+Function  
  ----- ------------  ---------------      ----- ------------  ---------------
    98     12.238820   4 C  s                67     -6.112362   3 C  s         
    45      5.330447   2 C  pz               76     -3.071516   3 C  pz        
   157     -2.680580  10 H  s               133      2.607375   6 H  s         
    44      2.429117   2 C  py               43     -1.959950   2 C  px        
    75      1.859153   3 C  py               36     -1.841373   2 C  s         
 
 Vector   39  Occ=0.000000D+00  E= 4.015766D-01
              MO Center= -2.3D-01,  2.1D-01,  2.1D-01, r^2= 6.5D+00
   Bfn.  Coefficient  Atom+Function         Bfn.  Coefficient  Atom+Function  
  ----- ------------  ---------------      ----- ------------  ---------------
    67    -12.325137   3 C  s                36     11.973492   2 C  s         
    45     -5.171360   2 C  pz               98     -4.980837   4 C  s         
    44      3.950808   2 C  py              127      2.951991   5 H  s         
    66      2.702565   3 C  s                43     -2.513722   2 C  px        
   139      2.445719   7 H  s               105      2.360775   4 C  px        
 
 Vector   40  Occ=0.000000D+00  E= 4.153529D-01
              MO Center=  7.9D-01, -3.7D-01, -8.3D-01, r^2= 5.9D+00
   Bfn.  Coefficient  Atom+Function         Bfn.  Coefficient  Atom+Function  
  ----- ------------  ---------------      ----- ------------  ---------------
    98      6.891757   4 C  s                36     -3.160866   2 C  s         
    45      2.925176   2 C  pz              105     -2.519092   4 C  px        
   151     -2.388832   9 H  s               157     -2.018520  10 H  s         
   145      1.782183   8 H  s                97     -1.149760   4 C  s         
   127     -0.965951   5 H  s               144     -0.965390   8 H  s         
 
 Vector   41  Occ=0.000000D+00  E= 4.268547D-01
              MO Center=  4.7D-01,  1.9D-01, -1.6D-01, r^2= 6.8D+00
   Bfn.  Coefficient  Atom+Function         Bfn.  Coefficient  Atom+Function  
  ----- ------------  ---------------      ----- ------------  ---------------
    36      9.358266   2 C  s                67     -4.694643   3 C  s         
    98     -4.195412   4 C  s                44      2.599679   2 C  py        
    75      2.571296   3 C  py              151      2.410530   9 H  s         
    43     -1.754609   2 C  px               45     -1.526000   2 C  pz        
    74     -1.452272   3 C  px              132      1.317264   6 H  s         
 
 Vector   42  Occ=0.000000D+00  E= 4.470786D-01
              MO Center=  1.0D-01, -9.8D-02, -1.7D-01, r^2= 6.1D+00
   Bfn.  Coefficient  Atom+Function         Bfn.  Coefficient  Atom+Function  
  ----- ------------  ---------------      ----- ------------  ---------------
    36      9.650663   2 C  s                98     -9.053148   4 C  s         
    45     -5.594270   2 C  pz               67     -2.956390   3 C  s         
   127      2.894919   5 H  s                76      2.648468   3 C  pz        
    44      2.243069   2 C  py              157      2.169901  10 H  s         
   106     -2.051663   4 C  py              133     -2.061354   6 H  s         
 
 Vector   43  Occ=0.000000D+00  E= 4.595207D-01
              MO Center=  7.8D-02,  8.0D-01, -5.4D-01, r^2= 5.1D+00
   Bfn.  Coefficient  Atom+Function         Bfn.  Coefficient  Atom+Function  
  ----- ------------  ---------------      ----- ------------  ---------------
   139      3.189047   7 H  s               157     -2.431245  10 H  s         
   107     -2.241578   4 C  pz               75     -2.169002   3 C  py        
    43      1.618591   2 C  px               44     -1.609430   2 C  py        
    45     -1.607094   2 C  pz              138     -1.439632   7 H  s         
    76      1.057289   3 C  pz               74      0.818093   3 C  px        
 
 Vector   44  Occ=0.000000D+00  E= 4.691366D-01
              MO Center=  4.7D-01,  1.7D-01, -8.9D-03, r^2= 5.7D+00
   Bfn.  Coefficient  Atom+Function         Bfn.  Coefficient  Atom+Function  
  ----- ------------  ---------------      ----- ------------  ---------------
    98     -5.123405   4 C  s                36      4.815358   2 C  s         
    45     -2.235356   2 C  pz              145      1.704738   8 H  s         
   107     -1.634958   4 C  pz              133      1.488723   6 H  s         
    67     -1.468939   3 C  s                35     -1.267832   2 C  s         
   132     -1.125802   6 H  s               126      1.055649   5 H  s         
 
 Vector   45  Occ=0.000000D+00  E= 5.080481D-01
              MO Center=  9.0D-01, -3.8D-01, -9.3D-01, r^2= 4.8D+00
   Bfn.  Coefficient  Atom+Function         Bfn.  Coefficient  Atom+Function  
  ----- ------------  ---------------      ----- ------------  ---------------
    98     11.439261   4 C  s                36     -7.488281   2 C  s         
    45      4.622937   2 C  pz              107      3.075551   4 C  pz        
   106      1.335652   4 C  py              144     -1.339857   8 H  s         
   156     -1.227371  10 H  s               127     -1.182272   5 H  s         
   150     -1.078603   9 H  s                14     -1.054971   1 O  pz        
 
 Vector   46  Occ=0.000000D+00  E= 5.369616D-01
              MO Center=  1.0D-01, -4.0D-01, -4.9D-01, r^2= 4.4D+00
   Bfn.  Coefficient  Atom+Function         Bfn.  Coefficient  Atom+Function  
  ----- ------------  ---------------      ----- ------------  ---------------
    98     -7.170606   4 C  s                36      6.779029   2 C  s         
    45     -3.629942   2 C  pz               76      3.241653   3 C  pz        
   133     -1.794904   6 H  s               105      1.502295   4 C  px        
   107     -1.458628   4 C  pz              139      1.460209   7 H  s         
    14     -1.157999   1 O  pz                5     -1.144008   1 O  s         
 
 Vector   47  Occ=0.000000D+00  E= 6.578144D-01
              MO Center= -3.8D-01,  3.4D-02, -2.0D-02, r^2= 4.3D+00
   Bfn.  Coefficient  Atom+Function         Bfn.  Coefficient  Atom+Function  
  ----- ------------  ---------------      ----- ------------  ---------------
    36     11.609192   2 C  s                67     -8.956160   3 C  s         
    98     -4.087320   4 C  s                43     -2.595919   2 C  px        
    75      2.427656   3 C  py               13      2.219028   1 O  py        
    76      2.066937   3 C  pz              105      1.592228   4 C  px        
   139      1.517575   7 H  s                44      1.472261   2 C  py        
 
 Vector   48  Occ=0.000000D+00  E= 6.742988D-01
              MO Center= -2.9D-01,  3.5D-01,  1.2D-01, r^2= 3.9D+00
   Bfn.  Coefficient  Atom+Function         Bfn.  Coefficient  Atom+Function  
  ----- ------------  ---------------      ----- ------------  ---------------
    36      8.131004   2 C  s                67     -7.886618   3 C  s         
     5      2.980007   1 O  s                75      2.573882   3 C  py        
    98     -2.182311   4 C  s                13      2.112849   1 O  py        
    43     -1.251193   2 C  px               45     -1.253895   2 C  pz        
     4     -1.103900   1 O  s                44      0.962397   2 C  py        
 
 Vector   49  Occ=0.000000D+00  E= 7.074971D-01
              MO Center=  1.7D-01, -3.1D-01, -2.7D-01, r^2= 4.5D+00
   Bfn.  Coefficient  Atom+Function         Bfn.  Coefficient  Atom+Function  
  ----- ------------  ---------------      ----- ------------  ---------------
    67      9.457766   3 C  s                36     -7.320006   2 C  s         
    43      3.649385   2 C  px               44     -3.473833   2 C  py        
    75     -2.744306   3 C  py               98     -2.527292   4 C  s         
     5      2.264605   1 O  s                12      1.688490   1 O  px        
   106      1.655163   4 C  py               13     -1.310676   1 O  py        
 
 Vector   50  Occ=0.000000D+00  E= 7.611841D-01
              MO Center=  6.3D-01, -8.9D-03, -3.4D-01, r^2= 4.1D+00
   Bfn.  Coefficient  Atom+Function         Bfn.  Coefficient  Atom+Function  
  ----- ------------  ---------------      ----- ------------  ---------------
    45      2.422201   2 C  pz              127     -1.698631   5 H  s         
   105     -1.634983   4 C  px               43      1.459129   2 C  px        
     5     -1.440834   1 O  s                36      1.443663   2 C  s         
   126     -1.341376   5 H  s               144      1.265103   8 H  s         
    76     -1.025023   3 C  pz               66      0.988303   3 C  s         
 
 Vector   51  Occ=0.000000D+00  E= 7.943553D-01
              MO Center=  2.7D-01,  5.0D-02, -1.9D-01, r^2= 4.4D+00
   Bfn.  Coefficient  Atom+Function         Bfn.  Coefficient  Atom+Function  
  ----- ------------  ---------------      ----- ------------  ---------------
     5      4.149412   1 O  s                36     -2.817823   2 C  s         
    76     -2.523750   3 C  pz                4     -1.615195   1 O  s         
    45      1.563505   2 C  pz               12      1.359585   1 O  px        
   133      1.329814   6 H  s                43      1.246137   2 C  px        
    66     -1.043187   3 C  s                35     -1.028893   2 C  s         
 
 Vector   52  Occ=0.000000D+00  E= 8.320953D-01
              MO Center=  3.2D-01,  1.7D-01, -7.4D-03, r^2= 4.4D+00
   Bfn.  Coefficient  Atom+Function         Bfn.  Coefficient  Atom+Function  
  ----- ------------  ---------------      ----- ------------  ---------------
    36      6.637122   2 C  s                98     -4.097648   4 C  s         
     5     -3.927881   1 O  s                43     -2.579441   2 C  px        
   105      1.949607   4 C  px               35     -1.856742   2 C  s         
    45     -1.782988   2 C  pz               44      1.487315   2 C  py        
    66     -1.186889   3 C  s                97      1.068252   4 C  s         
 
 Vector   53  Occ=0.000000D+00  E= 8.544023D-01
              MO Center=  6.0D-01,  1.3D-01, -4.0D-01, r^2= 4.2D+00
   Bfn.  Coefficient  Atom+Function         Bfn.  Coefficient  Atom+Function  
  ----- ------------  ---------------      ----- ------------  ---------------
    98     -4.685370   4 C  s                36      4.623609   2 C  s         
    45     -4.563658   2 C  pz               76      2.049328   3 C  pz        
   127      1.797802   5 H  s               106     -1.568027   4 C  py        
    44      1.487402   2 C  py              105      1.354326   4 C  px        
   150     -1.228568   9 H  s               139      1.074976   7 H  s         
 
 Vector   54  Occ=0.000000D+00  E= 8.714330D-01
              MO Center=  1.8D-01, -4.1D-02, -1.2D-01, r^2= 4.2D+00
   Bfn.  Coefficient  Atom+Function         Bfn.  Coefficient  Atom+Function  
  ----- ------------  ---------------      ----- ------------  ---------------
     5      4.612523   1 O  s                36     -1.747362   2 C  s         
     4     -1.564280   1 O  s               138      1.431089   7 H  s         
    76      1.329011   3 C  pz               67     -1.231201   3 C  s         
    12      1.190221   1 O  px               66     -1.146244   3 C  s         
    98     -0.964713   4 C  s                43      0.862977   2 C  px        
 
 Vector   55  Occ=0.000000D+00  E= 9.202012D-01
              MO Center=  5.0D-01,  3.1D-01, -4.7D-01, r^2= 4.5D+00
   Bfn.  Coefficient  Atom+Function         Bfn.  Coefficient  Atom+Function  
  ----- ------------  ---------------      ----- ------------  ---------------
    35      4.940507   2 C  s                36     -1.722883   2 C  s         
    67      1.463843   3 C  s               132     -1.332401   6 H  s         
    72      1.279060   3 C  py               66     -1.252555   3 C  s         
    84      1.162338   3 C  d  0            156     -1.164375  10 H  s         
    41      1.145113   2 C  py              116     -1.080525   4 C  d  1      
 
 Vector   56  Occ=0.000000D+00  E= 9.612434D-01
              MO Center=  4.5D-01,  3.0D-01, -5.3D-01, r^2= 4.7D+00
   Bfn.  Coefficient  Atom+Function         Bfn.  Coefficient  Atom+Function  
  ----- ------------  ---------------      ----- ------------  ---------------
    35      4.203184   2 C  s                67      2.560912   3 C  s         
   138     -2.358563   7 H  s                76     -1.816966   3 C  pz        
    42     -1.748652   2 C  pz               83     -1.653213   3 C  d -1      
    36     -1.487844   2 C  s               115     -1.464912   4 C  d  0      
    98     -1.390179   4 C  s               132      1.370032   6 H  s         
 
 Vector   57  Occ=0.000000D+00  E= 9.919853D-01
              MO Center=  3.3D-01,  4.9D-01, -1.2D-01, r^2= 4.1D+00
   Bfn.  Coefficient  Atom+Function         Bfn.  Coefficient  Atom+Function  
  ----- ------------  ---------------      ----- ------------  ---------------
    36      7.376748   2 C  s                98     -4.820401   4 C  s         
    67     -3.873585   3 C  s                45     -3.719836   2 C  pz        
    43     -2.300113   2 C  px               44      2.116018   2 C  py        
    66     -1.616810   3 C  s               127      1.559775   5 H  s         
    75      1.438961   3 C  py              126      1.335551   5 H  s         
 
 Vector   58  Occ=0.000000D+00  E= 1.012248D+00
              MO Center=  3.9D-01,  5.3D-01, -6.2D-02, r^2= 4.3D+00
   Bfn.  Coefficient  Atom+Function         Bfn.  Coefficient  Atom+Function  
  ----- ------------  ---------------      ----- ------------  ---------------
    36      5.602110   2 C  s                67     -4.558637   3 C  s         
    45     -2.209069   2 C  pz               44      1.890117   2 C  py        
    98     -1.778162   4 C  s               156     -1.494724  10 H  s         
    43     -1.361549   2 C  px              144      1.367331   8 H  s         
    82      1.338019   3 C  d -2             74     -1.331144   3 C  px        
 
 Vector   59  Occ=0.000000D+00  E= 1.041673D+00
              MO Center=  7.0D-01, -1.7D-01, -4.7D-01, r^2= 4.2D+00
   Bfn.  Coefficient  Atom+Function         Bfn.  Coefficient  Atom+Function  
  ----- ------------  ---------------      ----- ------------  ---------------
    35      2.702097   2 C  s                36      2.688277   2 C  s         
    66     -2.337946   3 C  s               150      1.961416   9 H  s         
   144     -1.909744   8 H  s                 5     -1.884724   1 O  s         
   117      1.724620   4 C  d  2             41      1.527942   2 C  py        
    44      1.365689   2 C  py               67     -1.306780   3 C  s         
 
 Vector   60  Occ=0.000000D+00  E= 1.078846D+00
              MO Center=  6.7D-01,  1.5D-02, -6.9D-02, r^2= 4.1D+00
   Bfn.  Coefficient  Atom+Function         Bfn.  Coefficient  Atom+Function  
  ----- ------------  ---------------      ----- ------------  ---------------
    98      4.096541   4 C  s                66     -4.038308   3 C  s         
    45      3.761287   2 C  pz               97      3.709970   4 C  s         
    36     -3.336959   2 C  s                41      2.568393   2 C  py        
   104      2.517576   4 C  pz               42      2.357487   2 C  pz        
    72      2.345488   3 C  py               53     -2.231372   2 C  d  0      
 
 Vector   61  Occ=0.000000D+00  E= 1.105324D+00
              MO Center=  3.7D-01,  6.3D-02,  6.4D-02, r^2= 3.8D+00
   Bfn.  Coefficient  Atom+Function         Bfn.  Coefficient  Atom+Function  
  ----- ------------  ---------------      ----- ------------  ---------------
    36      7.593487   2 C  s                67     -5.299854   3 C  s         
    98     -2.977764   4 C  s                66      2.156029   3 C  s         
   126     -2.012627   5 H  s                45     -1.952644   2 C  pz        
   132      1.674715   6 H  s                72     -1.608155   3 C  py        
    41     -1.487193   2 C  py               53      1.455939   2 C  d  0      
 
 Vector   62  Occ=0.000000D+00  E= 1.147228D+00
              MO Center=  6.3D-01,  7.2D-03, -3.4D-02, r^2= 3.5D+00
   Bfn.  Coefficient  Atom+Function         Bfn.  Coefficient  Atom+Function  
  ----- ------------  ---------------      ----- ------------  ---------------
    67      5.110151   3 C  s                36     -3.880674   2 C  s         
    44     -2.378442   2 C  py              126      1.825812   5 H  s         
    97     -1.781258   4 C  s                54      1.578927   2 C  d  1      
    43      1.542886   2 C  px               55      1.481241   2 C  d  2      
    42     -1.432250   2 C  pz               75     -1.422501   3 C  py        
 
 Vector   63  Occ=0.000000D+00  E= 1.215087D+00
              MO Center=  5.6D-01,  2.0D-01, -1.4D-01, r^2= 3.8D+00
   Bfn.  Coefficient  Atom+Function         Bfn.  Coefficient  Atom+Function  
  ----- ------------  ---------------      ----- ------------  ---------------
    36      6.794160   2 C  s                66     -5.022978   3 C  s         
    97     -3.375103   4 C  s                67     -3.322927   3 C  s         
    35      3.161417   2 C  s                72      1.924602   3 C  py        
    51     -1.766819   2 C  d -2             52      1.686818   2 C  d -1      
   138      1.663953   7 H  s                41      1.501591   2 C  py        
 
 Vector   64  Occ=0.000000D+00  E= 1.348648D+00
              MO Center=  3.4D-01,  5.5D-01,  2.3D-01, r^2= 3.6D+00
   Bfn.  Coefficient  Atom+Function         Bfn.  Coefficient  Atom+Function  
  ----- ------------  ---------------      ----- ------------  ---------------
    66      4.702134   3 C  s                35      3.909201   2 C  s         
    67     -3.111314   3 C  s                36     -2.708338   2 C  s         
    65     -2.412698   3 C  s               132     -2.059536   6 H  s         
    34     -1.440049   2 C  s               133      1.436764   6 H  s         
    72      1.367335   3 C  py              139      1.077904   7 H  s         
 
 Vector   65  Occ=0.000000D+00  E= 1.415702D+00
              MO Center=  1.5D-01,  5.2D-01, -4.4D-02, r^2= 3.4D+00
   Bfn.  Coefficient  Atom+Function         Bfn.  Coefficient  Atom+Function  
  ----- ------------  ---------------      ----- ------------  ---------------
    36      4.247391   2 C  s                66      3.813815   3 C  s         
    67     -3.800877   3 C  s                35     -3.757686   2 C  s         
    73     -2.325556   3 C  pz              138     -2.244231   7 H  s         
   139      2.202612   7 H  s               126      1.785899   5 H  s         
    76      1.684068   3 C  pz               65     -1.551131   3 C  s         
 
 Vector   66  Occ=0.000000D+00  E= 1.432741D+00
              MO Center=  1.1D+00, -4.6D-01, -1.1D+00, r^2= 3.6D+00
   Bfn.  Coefficient  Atom+Function         Bfn.  Coefficient  Atom+Function  
  ----- ------------  ---------------      ----- ------------  ---------------
    98      9.985684   4 C  s                97     -7.541414   4 C  s         
    96      3.046745   4 C  s                36     -2.450385   2 C  s         
   145     -2.406052   8 H  s               151     -2.279155   9 H  s         
   157     -2.081436  10 H  s               144      1.727944   8 H  s         
   150      1.622207   9 H  s               104      1.463715   4 C  pz        
 
 Vector   67  Occ=0.000000D+00  E= 1.443183D+00
              MO Center=  3.8D-01,  1.1D-02, -1.6D-01, r^2= 4.2D+00
   Bfn.  Coefficient  Atom+Function         Bfn.  Coefficient  Atom+Function  
  ----- ------------  ---------------      ----- ------------  ---------------
    66      4.355177   3 C  s                35     -3.108458   2 C  s         
    98      3.093848   4 C  s                67     -2.963148   3 C  s         
   133      1.958443   6 H  s                36      1.931267   2 C  s         
    45      1.896455   2 C  pz               76     -1.778082   3 C  pz        
   127     -1.582983   5 H  s                65     -1.565507   3 C  s         
 
 Vector   68  Occ=0.000000D+00  E= 1.446587D+00
              MO Center=  3.2D-01, -2.1D-02, -1.3D-01, r^2= 3.1D+00
   Bfn.  Coefficient  Atom+Function         Bfn.  Coefficient  Atom+Function  
  ----- ------------  ---------------      ----- ------------  ---------------
    98      5.217755   4 C  s                97     -2.895811   4 C  s         
    36     -2.690457   2 C  s                 5      2.019643   1 O  s         
    45      2.021680   2 C  pz               35     -1.452178   2 C  s         
   127     -1.301573   5 H  s                96      1.219280   4 C  s         
    44     -1.025098   2 C  py               42     -0.985231   2 C  pz        
 
 Vector   69  Occ=0.000000D+00  E= 1.474186D+00
              MO Center=  9.4D-01, -2.6D-01, -9.7D-01, r^2= 3.5D+00
   Bfn.  Coefficient  Atom+Function         Bfn.  Coefficient  Atom+Function  
  ----- ------------  ---------------      ----- ------------  ---------------
    66      2.190743   3 C  s                36      1.441286   2 C  s         
    67     -1.391557   3 C  s                 5     -1.197354   1 O  s         
   103      0.986036   4 C  py               65     -0.930210   3 C  s         
    97      0.932691   4 C  s                98     -0.931265   4 C  s         
   133      0.929670   6 H  s                71     -0.908060   3 C  px        
 
 Vector   70  Occ=0.000000D+00  E= 1.477828D+00
              MO Center=  9.7D-01, -3.9D-01, -1.0D+00, r^2= 3.4D+00
   Bfn.  Coefficient  Atom+Function         Bfn.  Coefficient  Atom+Function  
  ----- ------------  ---------------      ----- ------------  ---------------
    36      2.829345   2 C  s               156     -2.736769  10 H  s         
   157      2.103209  10 H  s               102     -2.062295   4 C  px        
   104     -1.795369   4 C  pz              126      1.741234   5 H  s         
    66     -1.707291   3 C  s               103      1.687905   4 C  py        
    35     -1.398221   2 C  s               127     -1.368333   5 H  s         
 
 Vector   71  Occ=0.000000D+00  E= 1.512429D+00
              MO Center=  3.3D-01,  1.4D-01, -3.2D-01, r^2= 4.0D+00
   Bfn.  Coefficient  Atom+Function         Bfn.  Coefficient  Atom+Function  
  ----- ------------  ---------------      ----- ------------  ---------------
    98      2.685622   4 C  s               144      1.855062   8 H  s         
   102     -1.566339   4 C  px              145     -1.412233   8 H  s         
   103     -1.351992   4 C  py               45      1.296463   2 C  pz        
    97     -1.202667   4 C  s               150     -0.950190   9 H  s         
    36     -0.945308   2 C  s                66      0.857460   3 C  s         
 
 Vector   72  Occ=0.000000D+00  E= 1.542284D+00
              MO Center=  3.5D-01,  4.6D-01, -2.1D-01, r^2= 4.6D+00
   Bfn.  Coefficient  Atom+Function         Bfn.  Coefficient  Atom+Function  
  ----- ------------  ---------------      ----- ------------  ---------------
    36      4.309140   2 C  s                35     -3.648138   2 C  s         
    98     -3.576344   4 C  s                97      3.108607   4 C  s         
    67     -2.451331   3 C  s                73      2.151514   3 C  pz        
   132     -1.753335   6 H  s               133      1.441434   6 H  s         
   102     -1.391310   4 C  px              138      1.374137   7 H  s         
 
 Vector   73  Occ=0.000000D+00  E= 1.577055D+00
              MO Center=  4.9D-01, -2.2D-02, -7.2D-02, r^2= 3.2D+00
   Bfn.  Coefficient  Atom+Function         Bfn.  Coefficient  Atom+Function  
  ----- ------------  ---------------      ----- ------------  ---------------
    35      3.477262   2 C  s                36     -2.795822   2 C  s         
    40     -2.090893   2 C  px               97     -1.960913   4 C  s         
    67      1.826810   3 C  s               126      1.813196   5 H  s         
    72      1.611122   3 C  py               42     -1.470346   2 C  pz        
    34     -1.448246   2 C  s                45      1.336288   2 C  pz        
 
 Vector   74  Occ=0.000000D+00  E= 1.597677D+00
              MO Center=  3.5D-01,  3.8D-01, -1.5D-01, r^2= 3.4D+00
   Bfn.  Coefficient  Atom+Function         Bfn.  Coefficient  Atom+Function  
  ----- ------------  ---------------      ----- ------------  ---------------
    36     -5.336094   2 C  s                66     -5.317411   3 C  s         
    35      5.139914   2 C  s                67      3.986950   3 C  s         
    41      3.750021   2 C  py               71     -2.564601   3 C  px        
    72      2.420321   3 C  py               40     -2.064526   2 C  px        
    98      1.821223   4 C  s                82      1.679294   3 C  d -2      
 
 Vector   75  Occ=0.000000D+00  E= 1.641857D+00
              MO Center=  4.6D-01,  1.9D-01, -2.8D-02, r^2= 3.7D+00
   Bfn.  Coefficient  Atom+Function         Bfn.  Coefficient  Atom+Function  
  ----- ------------  ---------------      ----- ------------  ---------------
    66      2.693688   3 C  s                35      2.221882   2 C  s         
    98      2.014231   4 C  s                 5     -1.793515   1 O  s         
    97     -1.672301   4 C  s                67     -1.364867   3 C  s         
   104     -1.146137   4 C  pz              144      1.127120   8 H  s         
   103     -1.053859   4 C  py              150     -1.050570   9 H  s         
 
 Vector   76  Occ=0.000000D+00  E= 1.695028D+00
              MO Center=  5.6D-01,  1.3D-01, -4.2D-01, r^2= 3.7D+00
   Bfn.  Coefficient  Atom+Function         Bfn.  Coefficient  Atom+Function  
  ----- ------------  ---------------      ----- ------------  ---------------
    97     -5.531364   4 C  s                35      5.211006   2 C  s         
   104     -2.848989   4 C  pz               42     -2.808549   2 C  pz        
   102      1.852010   4 C  px               40      1.609354   2 C  px        
    66     -1.554626   3 C  s                34     -1.531444   2 C  s         
    96      1.510923   4 C  s                72     -1.196137   3 C  py        
 
 Vector   77  Occ=0.000000D+00  E= 1.701100D+00
              MO Center= -5.0D-02,  2.8D-01, -7.3D-02, r^2= 3.7D+00
   Bfn.  Coefficient  Atom+Function         Bfn.  Coefficient  Atom+Function  
  ----- ------------  ---------------      ----- ------------  ---------------
     5      3.900346   1 O  s                72      3.258518   3 C  py        
    36     -2.479690   2 C  s                66     -1.960946   3 C  s         
   138     -1.915792   7 H  s                97      1.868976   4 C  s         
    42      1.516794   2 C  pz               12      1.502986   1 O  px        
    41      1.441266   2 C  py              104      1.300155   4 C  pz        
 
 Vector   78  Occ=0.000000D+00  E= 1.789609D+00
              MO Center=  4.0D-01,  2.6D-01,  1.6D-02, r^2= 3.5D+00
   Bfn.  Coefficient  Atom+Function         Bfn.  Coefficient  Atom+Function  
  ----- ------------  ---------------      ----- ------------  ---------------
    35      3.082785   2 C  s                97     -2.776673   4 C  s         
    36      1.750227   2 C  s                45     -1.309075   2 C  pz        
   104     -1.168345   4 C  pz               67     -1.095474   3 C  s         
    42     -1.056922   2 C  pz               72      0.989600   3 C  py        
   102      0.963451   4 C  px               96      0.903523   4 C  s         
 
 Vector   79  Occ=0.000000D+00  E= 1.815537D+00
              MO Center= -6.3D-01,  1.8D-01,  1.9D-01, r^2= 2.6D+00
   Bfn.  Coefficient  Atom+Function         Bfn.  Coefficient  Atom+Function  
  ----- ------------  ---------------      ----- ------------  ---------------
    35      4.076961   2 C  s                 5     -3.303494   1 O  s         
    40     -2.448737   2 C  px               41      2.122567   2 C  py        
    72      1.985522   3 C  py               66     -1.788967   3 C  s         
    71     -1.678148   3 C  px               12     -1.379370   1 O  px        
   132     -1.052114   6 H  s               138     -1.032499   7 H  s         
 
 Vector   80  Occ=0.000000D+00  E= 1.842394D+00
              MO Center=  7.4D-02,  2.7D-01, -7.2D-02, r^2= 3.7D+00
   Bfn.  Coefficient  Atom+Function         Bfn.  Coefficient  Atom+Function  
  ----- ------------  ---------------      ----- ------------  ---------------
    35      1.601009   2 C  s                36     -1.146843   2 C  s         
   156     -0.949486  10 H  s               104     -0.802733   4 C  pz        
    41     -0.727827   2 C  py               66      0.704154   3 C  s         
    71     -0.678637   3 C  px              157      0.655776  10 H  s         
   126     -0.634442   5 H  s                67      0.630666   3 C  s         
 
 Vector   81  Occ=0.000000D+00  E= 1.867310D+00
              MO Center=  5.3D-01,  1.7D-01, -4.5D-01, r^2= 4.0D+00
   Bfn.  Coefficient  Atom+Function         Bfn.  Coefficient  Atom+Function  
  ----- ------------  ---------------      ----- ------------  ---------------
    35      6.634007   2 C  s                66     -4.344799   3 C  s         
    72      3.489580   3 C  py               97     -3.324616   4 C  s         
    36      2.124951   2 C  s               104     -1.892363   4 C  pz        
    34     -1.643216   2 C  s                67     -1.564652   3 C  s         
    41      1.522236   2 C  py               45     -1.382747   2 C  pz        
 
 Vector   82  Occ=0.000000D+00  E= 1.920882D+00
              MO Center=  3.2D-01, -1.5D-01, -3.1D-01, r^2= 3.2D+00
   Bfn.  Coefficient  Atom+Function         Bfn.  Coefficient  Atom+Function  
  ----- ------------  ---------------      ----- ------------  ---------------
    36      1.473655   2 C  s                98     -1.418646   4 C  s         
    45     -1.269408   2 C  pz              103     -1.219970   4 C  py        
    97     -1.199083   4 C  s                35      1.069870   2 C  s         
    66     -0.883776   3 C  s                42     -0.788365   2 C  pz        
    41      0.774448   2 C  py              150     -0.756709   9 H  s         
 
 Vector   83  Occ=0.000000D+00  E= 1.991237D+00
              MO Center=  8.3D-01, -2.2D-01, -3.5D-01, r^2= 3.4D+00
   Bfn.  Coefficient  Atom+Function         Bfn.  Coefficient  Atom+Function  
  ----- ------------  ---------------      ----- ------------  ---------------
    98      3.525244   4 C  s                35      3.353186   2 C  s         
    66     -2.681959   3 C  s                40     -2.259987   2 C  px        
    72      1.920911   3 C  py               41      1.726735   2 C  py        
    43     -1.526071   2 C  px               36     -1.517462   2 C  s         
    71     -1.371921   3 C  px               67     -1.291819   3 C  s         
 
 Vector   84  Occ=0.000000D+00  E= 1.994475D+00
              MO Center=  6.3D-01, -1.1D-01, -7.5D-01, r^2= 3.5D+00
   Bfn.  Coefficient  Atom+Function         Bfn.  Coefficient  Atom+Function  
  ----- ------------  ---------------      ----- ------------  ---------------
    36      4.409475   2 C  s                98     -3.892947   4 C  s         
    45     -2.071504   2 C  pz               35     -1.946326   2 C  s         
    67     -1.589829   3 C  s               156      1.126183  10 H  s         
   107     -1.007954   4 C  pz              104      0.995377   4 C  pz        
     5     -0.842574   1 O  s                34      0.794035   2 C  s         
 
 Vector   85  Occ=0.000000D+00  E= 2.089635D+00
              MO Center= -4.3D-02,  1.7D-01, -1.4D-02, r^2= 3.5D+00
   Bfn.  Coefficient  Atom+Function         Bfn.  Coefficient  Atom+Function  
  ----- ------------  ---------------      ----- ------------  ---------------
    36      2.490693   2 C  s                98     -2.241241   4 C  s         
   138     -0.751278   7 H  s               156      0.743915  10 H  s         
    67     -0.650878   3 C  s                14     -0.618455   1 O  pz        
    35     -0.565141   2 C  s                40     -0.557140   2 C  px        
   144      0.559607   8 H  s                45     -0.542191   2 C  pz        
 
 Vector   86  Occ=0.000000D+00  E= 2.097158D+00
              MO Center= -3.6D-01,  5.9D-02,  5.3D-02, r^2= 3.0D+00
   Bfn.  Coefficient  Atom+Function         Bfn.  Coefficient  Atom+Function  
  ----- ------------  ---------------      ----- ------------  ---------------
    36      5.682900   2 C  s                67     -5.578437   3 C  s         
    35     -3.302821   2 C  s                66      3.312615   3 C  s         
    41     -3.074087   2 C  py               71      2.750679   3 C  px        
    13      1.854395   1 O  py               82     -1.466645   3 C  d -2      
    43     -1.331668   2 C  px               55      1.335830   2 C  d  2      
 
 Vector   87  Occ=0.000000D+00  E= 2.166287D+00
              MO Center=  5.1D-01, -2.7D-02, -4.9D-01, r^2= 3.2D+00
   Bfn.  Coefficient  Atom+Function         Bfn.  Coefficient  Atom+Function  
  ----- ------------  ---------------      ----- ------------  ---------------
    98      2.178655   4 C  s                67     -1.848175   3 C  s         
    35     -1.293053   2 C  s                73      1.031037   3 C  pz        
   156     -0.884775  10 H  s                40      0.856716   2 C  px        
    36      0.846007   2 C  s                44      0.832857   2 C  py        
    43     -0.821265   2 C  px               42     -0.773643   2 C  pz        
 
 Vector   88  Occ=0.000000D+00  E= 2.200023D+00
              MO Center=  4.3D-01,  1.8D-01, -3.0D-01, r^2= 3.7D+00
   Bfn.  Coefficient  Atom+Function         Bfn.  Coefficient  Atom+Function  
  ----- ------------  ---------------      ----- ------------  ---------------
    98      2.147035   4 C  s                36     -1.307350   2 C  s         
    45      1.042675   2 C  pz               76     -0.931962   3 C  pz        
   132      0.803781   6 H  s                42     -0.733901   2 C  pz        
   103     -0.684765   4 C  py               97     -0.657627   4 C  s         
   117     -0.655430   4 C  d  2            138     -0.602180   7 H  s         
 
 Vector   89  Occ=0.000000D+00  E= 2.229290D+00
              MO Center=  6.3D-01,  2.5D-02, -6.1D-02, r^2= 3.5D+00
   Bfn.  Coefficient  Atom+Function         Bfn.  Coefficient  Atom+Function  
  ----- ------------  ---------------      ----- ------------  ---------------
    36      3.203091   2 C  s                67     -1.711954   3 C  s         
    98     -1.317105   4 C  s                 5     -1.148883   1 O  s         
    42     -1.066877   2 C  pz               72     -0.914559   3 C  py        
    66      0.764704   3 C  s                35     -0.749677   2 C  s         
    43     -0.733121   2 C  px               45     -0.735904   2 C  pz        
 
 Vector   90  Occ=0.000000D+00  E= 2.243763D+00
              MO Center=  7.6D-01, -2.7D-01, -8.0D-01, r^2= 3.6D+00
   Bfn.  Coefficient  Atom+Function         Bfn.  Coefficient  Atom+Function  
  ----- ------------  ---------------      ----- ------------  ---------------
   150      1.317859   9 H  s                36      1.082739   2 C  s         
   144     -0.892166   8 H  s                66     -0.833699   3 C  s         
   117      0.781473   4 C  d  2             98     -0.762292   4 C  s         
    67     -0.733605   3 C  s                72      0.736799   3 C  py        
    83      0.532899   3 C  d -1            149     -0.516855   9 H  s         
 
 Vector   91  Occ=0.000000D+00  E= 2.266611D+00
              MO Center=  9.4D-01, -2.6D-01, -1.1D+00, r^2= 3.0D+00
   Bfn.  Coefficient  Atom+Function         Bfn.  Coefficient  Atom+Function  
  ----- ------------  ---------------      ----- ------------  ---------------
    66      2.286699   3 C  s                36      1.941489   2 C  s         
    41     -1.523531   2 C  py               67     -1.389389   3 C  s         
    35     -1.220235   2 C  s                98     -1.156303   4 C  s         
    72     -1.011981   3 C  py              156      0.942315  10 H  s         
    71      0.902974   3 C  px              126     -0.872024   5 H  s         
 
 Vector   92  Occ=0.000000D+00  E= 2.283129D+00
              MO Center=  5.2D-01,  1.1D-01, -2.2D-01, r^2= 3.6D+00
   Bfn.  Coefficient  Atom+Function         Bfn.  Coefficient  Atom+Function  
  ----- ------------  ---------------      ----- ------------  ---------------
    98      3.642838   4 C  s                36     -2.412222   2 C  s         
[...]
    21     -0.871681   1 O  d -1             42     -0.807656   2 C  pz        
    97     -0.720120   4 C  s                45     -0.702123   2 C  pz        
    98     -0.522628   4 C  s                 5     -0.513860   1 O  s         
    67     -0.509673   3 C  s               102      0.495135   4 C  px        
 
 Vector  154  Occ=0.000000D+00  E= 6.676472D+00
              MO Center= -8.7D-01, -1.8D-01,  2.0D-01, r^2= 5.7D-01
   Bfn.  Coefficient  Atom+Function         Bfn.  Coefficient  Atom+Function  
  ----- ------------  ---------------      ----- ------------  ---------------
    18      1.062244   1 O  d  1             23     -1.036482   1 O  d  1      
    97     -0.856692   4 C  s                42     -0.780547   2 C  pz        
    35      0.758116   2 C  s               102      0.642548   4 C  px        
    54     -0.545890   2 C  d  1             14      0.405493   1 O  pz        
    16     -0.393210   1 O  d -1             11      0.388685   1 O  pz        
 
 Vector  155  Occ=0.000000D+00  E= 6.842129D+00
              MO Center= -8.8D-01, -1.9D-01,  2.0D-01, r^2= 5.9D-01
   Bfn.  Coefficient  Atom+Function         Bfn.  Coefficient  Atom+Function  
  ----- ------------  ---------------      ----- ------------  ---------------
     5      2.111496   1 O  s                40      1.768500   2 C  px        
     9      1.361325   1 O  px               97     -1.282950   4 C  s         
     4      1.204566   1 O  s                20      1.048733   1 O  d -2      
    42     -0.974291   2 C  pz               12      0.846990   1 O  px        
    35     -0.847564   2 C  s                15     -0.833754   1 O  d -2      
 
 Vector  156  Occ=0.000000D+00  E= 7.055633D+00
              MO Center= -8.9D-01, -1.9D-01,  2.0D-01, r^2= 6.4D-01
   Bfn.  Coefficient  Atom+Function         Bfn.  Coefficient  Atom+Function  
  ----- ------------  ---------------      ----- ------------  ---------------
    66     -3.177322   3 C  s                35      3.028819   2 C  s         
    40     -2.725156   2 C  px               72      2.692592   3 C  py        
    24     -1.578764   1 O  d  2             36      1.446586   2 C  s         
    10      1.283290   1 O  py               67     -1.288306   3 C  s         
    19      1.016789   1 O  d  2             13      0.866422   1 O  py        
 
 Vector  157  Occ=0.000000D+00  E= 2.194076D+01
              MO Center=  7.2D-02,  7.9D-01,  5.7D-02, r^2= 1.2D+00
   Bfn.  Coefficient  Atom+Function         Bfn.  Coefficient  Atom+Function  
  ----- ------------  ---------------      ----- ------------  ---------------
    64      1.586033   3 C  s                65     -1.352474   3 C  s         
    67     -1.265368   3 C  s                63     -1.249978   3 C  s         
    98      1.059780   4 C  s                95     -0.749584   4 C  s         
    96      0.613254   4 C  s                94      0.592989   4 C  s         
    35      0.475996   2 C  s                40     -0.475713   2 C  px        
 
 Vector  158  Occ=0.000000D+00  E= 2.198212D+01
              MO Center=  9.0D-01, -2.6D-01, -7.3D-01, r^2= 1.1D+00
   Bfn.  Coefficient  Atom+Function         Bfn.  Coefficient  Atom+Function  
  ----- ------------  ---------------      ----- ------------  ---------------
    95      1.436787   4 C  s                96     -1.326031   4 C  s         
    98     -1.156001   4 C  s                94     -1.130408   4 C  s         
    34     -0.949109   2 C  s                36     -0.899852   2 C  s         
    33      0.864409   2 C  s                32     -0.675330   2 C  s         
    65     -0.632424   3 C  s                64      0.582496   3 C  s         
 
 Vector  159  Occ=0.000000D+00  E= 2.210131D+01
              MO Center=  6.1D-01, -1.1D-01, -6.8D-02, r^2= 6.9D-01
   Bfn.  Coefficient  Atom+Function         Bfn.  Coefficient  Atom+Function  
  ----- ------------  ---------------      ----- ------------  ---------------
    36      2.193544   2 C  s                33     -1.545580   2 C  s         
    34      1.532398   2 C  s                35     -1.346566   2 C  s         
    98     -1.286215   4 C  s                32      1.210365   2 C  s         
    67     -1.160878   3 C  s                95      0.708335   4 C  s         
    97      0.693299   4 C  s                96     -0.639212   4 C  s         
 
 Vector  160  Occ=0.000000D+00  E= 4.341417D+01
              MO Center= -8.8D-01, -1.8D-01,  2.0D-01, r^2= 1.2D-01
   Bfn.  Coefficient  Atom+Function         Bfn.  Coefficient  Atom+Function  
  ----- ------------  ---------------      ----- ------------  ---------------
     4      2.506127   1 O  s                 3     -1.874288   1 O  s         
     2      1.731518   1 O  s                 1     -1.395839   1 O  s         
     5     -0.878745   1 O  s                36      0.832425   2 C  s         
     9      0.561353   1 O  px               66     -0.513856   3 C  s         
    40      0.464428   2 C  px               72      0.456135   3 C  py        
 

 center of mass
 --------------
 x =   0.30619358 y =   0.09486567 z =  -0.27792486

 moments of inertia (a.u.)
 ------------------
         200.034634758315          45.661569821478          83.779715516067
          45.661569821478         247.990230758138         -52.639193383102
          83.779715516067         -52.639193383102         238.916077218171
 
     Multipole analysis of the density
     ---------------------------------
 
     L   x y z        total         alpha         beta         nuclear
     -   - - -        -----         -----         ----         -------
     0   0 0 0     -0.000000    -16.000000    -16.000000     32.000000
 
     1   1 0 0      0.690407     -6.224269     -6.224269     13.138945
     1   0 1 0      0.325715     -1.619716     -1.619716      3.565146
     1   0 0 1     -0.057152      5.322214      5.322214    -10.701581
 
     2   2 0 0    -20.026115    -54.351874    -54.351874     88.677633
     2   1 1 0     -1.111318     13.898334     13.898334    -28.907986
     2   1 0 1      0.152417     26.486715     26.486715    -52.821013
     2   0 2 0    -17.837230    -40.479100    -40.479100     63.120970
     2   0 1 1      0.250192    -15.401715    -15.401715     31.053622
     2   0 0 2    -18.197412    -45.745847    -45.745847     73.294282
 
 *** CALLING NEW AORESP DRIVER FOR CLOSED AND OPEN SHELLS ***
 Entering AOResponse driver routine


--------------------------------------------------------------------------------

          ****************
          *** RESPONSE ***
          ****************

 Response module for NWChem and dynamic CPKS solver
 developed by J. Autschbach and coworkers, SUNY Buffalo
 The methodology used in this program is described in 
 ChemPhysChem 12 (2011), 3224-3235 (main reference)
 J. Chem. Phys. 123 (2005), 114103
 J. Chem. Phys. 122 (2005), 224115
 J. Chem. Phys. 122 (2005), 074105
 Comp. Lett. 3 (2007), 131-150 (contact JA for a copy)
 Please cite this work in publications based on results
 obtained with this code. Thank you!

 For extension of response module to open shell
 calculations please acknowledge:
 F. Aquino, Northwestern University, Schatz Rsrch Group
 The update to the methodology is described in
 J. Phys. Chem. A 118 (2014) 517-525



          -----------------------------------------------
          Solving response equations for perturbing field
          -----------------------------------------------

 number of frequencies:     1
 frequency in a.u.:  0.9319600E-01
 Perturbing field: electric
 Using GIAO formalism for OptRot
 Adding quadrupole terms to OptRot
 to create an origin in dependent tensor.
 Using El. Dipole Length Gauge
 
 Applying DAMPING constant of  0.003700 a.u.
 
 Setting up CPKS
 with frequency omega =      0.09319600 a.u.
 and a damping of            0.00370000 a.u.

 
                            NWChem Dynamic CPHF Module
                            --------------------------
 
 
    scftype = RHF 
    nclosed =   16
      nopen =    0
  variables =     9216
  num. vecs =        3
  tolerance =   1.0D-07
  max. iter =  100

 SCF residual:   4.021232314034091E-006


Iterative solution of linear equations
  No. of variables     4608
  No. of equations        3
  Maximum subspace       99
       Convergence  1.0D-07
        Start time     85.5


   iter   nsub   residual    time 
   ----  ------  --------  --------- 
 dft_CPHF2_read: failed to open
 ./methyloxirane_blyp-def2-tzvp_488.9_00.inp.aoresp_fiao_f1
     1      3    3.75D+00     128.6
     2      6    2.68D+00     171.9
     3      9    2.45D-01     215.1
     4     12    5.22D-02     258.3
     5     15    1.05D-02     301.6
     6     18    1.29D-03     344.8
     7     21    1.44D-04     388.0
     8     24    1.36D-05     431.2
     9     27    1.27D-06     474.4
    10     30    4.87D-07     517.7
    11     33    1.35D-08     560.9

 Calculating some arrays needed for GIAO optical rotation

    0 giaofock schwarz done =      92.56%
    0 giaofock schwarz done =      92.56%
 aor_r1_tensor_giao: roadata output requested
 dip-quad polarizability Re:

              1        2        3        4        5        6      
    1   77.3294  -6.2653 -27.6201  -4.4639   1.2151   9.1183
    2  -11.8190  25.5911   3.4071  23.5562 -21.6304   4.0734
    3   -6.6517   1.1283  39.2785  -0.1727  14.0389 -40.9421
 traceless dip-quad polarizability:

              1        2        3      
    1   75.0022  -9.3980 -41.4302
    2   -9.3980 -47.6878   1.8226
    3  -41.4302   1.8226 -27.3144

              1        2        3      
    1  -25.6339  38.3867   5.1107
    2   38.3867  27.4290 -32.4456
    3    5.1107 -32.4456  -1.7952

              1        2        3      
    1   13.9057   1.6925  58.9178
    2    1.6925  23.6242  21.0583
    3   58.9178  21.0583 -37.5299

 roa begin

 alpha real:
 XX       0.4099912236596E+02
 XY      -0.5197464399026E+01
 XZ      -0.3030012445048E+01
 YX      -0.5197464407110E+01
 YY       0.4404176015663E+02
 YZ       0.3184192682816E+01
 ZX      -0.3030012451369E+01
 ZY       0.3184192689470E+01
 ZZ       0.4148118161190E+02

 alpha im:
 XX       0.1109739937130E+00
 XY      -0.2999200158040E-01
 XZ      -0.1117083995407E-01
 YX      -0.2999199641882E-01
 YY       0.1291969410399E+00
 YZ       0.1845182051151E-01
 ZX      -0.1117083666121E-01
 ZY       0.1845182126174E-01
 ZZ       0.1227825474007E+00

 beta real:
 XX      -0.1414207591975E+00
 XY       0.9406188878921E+00
 XZ       0.2016730291244E+00
 YX      -0.8865068943272E+00
 YY       0.1459090408102E+00
 YZ      -0.1546781893076E+01
 ZX      -0.4849309599776E+00
 ZY       0.1872823161914E+01
 ZZ      -0.7021540828411E-02

 G-prime = -omega beta(real):
 XX      -0.1414207591975E+00
 XY       0.9406188878921E+00
 XZ       0.2016730291244E+00
 YX      -0.8865068943272E+00
 YY       0.1459090408102E+00
 YZ      -0.1546781893076E+01
 ZX      -0.4849309599776E+00
 ZY       0.1872823161914E+01
 ZZ      -0.7021540828411E-02

 beta im:
 XX      -0.6059733882036E-02
 XY       0.1340588921048E-01
 XZ       0.2835164330036E-02
 YX      -0.7557148753531E-02
 YY       0.4812459481993E-02
 YZ      -0.2351654528174E-01
 ZX      -0.1364962986365E-01
 ZY       0.4024420387741E-01
 ZZ       0.5096264966169E-03

 G-prime = -omega beta(imag):
 XX      -0.6059733882036E-02
 XY       0.1340588921048E-01
 XZ       0.2835164330036E-02
 YX      -0.7557148753531E-02
 YY       0.4812459481993E-02
 YZ      -0.2351654528174E-01
 ZX      -0.1364962986365E-01
 ZY       0.4024420387741E-01
 ZZ       0.5096264966169E-03

 dipole-quadrupole real (Cartesian):
 XXX      0.7732940827696E+02
 XXY     -0.6265300361400E+01
 XXZ     -0.2762013024420E+02
 XYY     -0.4463940139971E+01
 XYZ      0.1215063156270E+01
 XZZ      0.9118310325505E+01
 YXX     -0.1181903047797E+02
 YXY      0.2559113425050E+02
 YXZ      0.3407105552600E+01
 YYY      0.2355623450539E+02
 YYZ     -0.2163041553360E+02
 YZZ      0.4073439605739E+01
 ZXX     -0.6651704979687E+01
 ZXY      0.1128327270671E+01
 ZXZ      0.3927854825232E+02
 ZYY     -0.1726898716275E+00
 ZYZ      0.1403888370385E+02
 ZZZ     -0.4094206417739E+02

 dipole-quadrupole imag (Cartesian):
 XXX      0.2704336387076E+00
 XXY     -0.3495874503179E-01
 XXZ     -0.7677708229266E-01
 XYY     -0.2871408259644E-01
 XYZ      0.2308525864616E-02
 XZZ      0.6074300136557E-01
 YXX     -0.5705819680350E-01
 YXY      0.6207185451934E-01
 YXZ      0.1962968736903E-01
 YYY      0.9346272683491E-01
 YYZ     -0.6100535363217E-01
 YZZ      0.9716944298472E-02
 ZXX     -0.3404506039526E-01
 ZXY      0.9147248391053E-04
 ZXZ      0.1454977783452E+00
 ZYY      0.5150596148921E-02
 ZYZ      0.6701518783036E-01
 ZZZ     -0.9460019794876E-01

 dipole-quadrupole (traceless):
 XXX      0.7500222318419E+02
 XXY     -0.9397950542100E+01
 XXZ     -0.4143019536630E+02
 XYY     -0.4768779944120E+02
 XYZ      0.1822594734406E+01
 XZZ     -0.2731442374299E+02
 YXX     -0.2563386753353E+02
 YXY      0.3838670137575E+02
 YXZ      0.5110658328900E+01
 YYY      0.2742902994150E+02
 YYZ     -0.3244562330040E+02
 YZZ     -0.1795162407971E+01
 ZXX      0.1390567204482E+02
 ZXY      0.1692490906007E+01
 ZXZ      0.5891782237848E+02
 ZYY      0.2362419470691E+02
 ZYZ      0.2105832555577E+02
 ZZZ     -0.3752986675173E+02

 roa end


 Electric Dipole Response Matrix (nonzero elements):

              1        2        3      
    1   40.9991  -5.1975  -3.0300
    2   -5.1975  44.0418   3.1842
    3   -3.0300   3.1842  41.4812
 
 Imaginary part:

              1        2        3      
    1    0.1110  -0.0300  -0.0112
    2   -0.0300   0.1292   0.0185
    3   -0.0112   0.0185   0.1228

 ------------------------------------------
 average:        42.17402 + I       0.12098


 DFT Linear Response polarizability / au 
 Frequency  =       0.0931960 / au
 Wavelength =     488.8981609 / nm
              X              Y              Z
 -----------------------------------------------
 X      40.9991224     -5.1974644     -3.0300124
 Y      -5.1974644     44.0417602      3.1841927
 Z      -3.0300125      3.1841927     41.4811816
 -----------------------------------------------
 Eigenvalues =      37.0075361     50.1413794     39.3731486
 Isotropic   =      42.1740214
 Anisotropic =       9.9003158
 -----------------------------------------------
 *************************

 DFT Linear Response IMAG polarizability / au 
 Frequency  =       0.0931960 / au
 Wavelength =     488.8981609 / nm
              X              Y              Z
 -----------------------------------------------
 X       0.1109740     -0.0299920     -0.0111708
 Y      -0.0299920      0.1291969      0.0184518
 Z      -0.0111708      0.0184518      0.1227825
 -----------------------------------------------
 Eigenvalues =       0.0885888      0.1629333      0.1114314
 Isotropic   =       0.1209845
 Anisotropic =       0.0538558
 -----------------------------------------------
 *************************

 Magnetic Dipole Response Matrix (nonzero elements):
 Optical rotation tensor Beta
 (Buckingham-Dunn version including dipole-quadrupole terms)

              1        2        3      
    1    2.6568  -0.4126   0.4168
    2   -0.4126  -1.6090  -1.7229
    3    0.4168  -1.7229  -1.0207
 
 Imaginary part:

              1        2        3      
    1    0.0650  -0.1438  -0.0304
    2    0.0811  -0.0516   0.2523
    3    0.1465  -0.4318  -0.0055

 ------------------------------------------
 average:         0.00906 + I       0.00264

 Principal components and PAS (Real part)
                 -3.06308
                  2.80152
                  0.28874
 ------------------------
 average:         0.00906

              1        2        3      
    1    0.0083   0.9708  -0.2396
    2    0.7652  -0.1604  -0.6235
    3    0.6438   0.1782   0.7442

 Chiral response tensor (Real part):

              1        2        3      
    1   -1.3148   0.2063  -0.2084
    2    0.2063   0.8181   0.8615
    3   -0.2084   0.8615   0.5239
 
 Principal components and PAS (Real part)
                  1.54513
                 -1.38717
                 -0.13078
 ------------------------
 average:         0.00906

              1        2        3      
    1    0.0083   0.9708  -0.2396
    2    0.7652  -0.1604  -0.6235
    3    0.6438   0.1782   0.7442
 Exiting AOResponse driver routine

 Task  times  cpu:      543.4s     wall:      555.2s
 
 
                                NWChem Input Module
                                -------------------
 
 
 Summary of allocated global arrays
-----------------------------------
  No active global arrays



                         GA Statistics for process    0
                         ------------------------------

       create   destroy   get      put      acc     scatter   gather  read&inc
calls: 3294     3294     7.48e+06 3.14e+06 6.45e+05 2694        0     1067     
number of processes/call 1.01e+00 1.03e+00 1.41e+00 0.00e+00 0.00e+00
bytes total:             1.50e+09 1.26e+08 1.55e+09 1.84e+02 0.00e+00 8.54e+03
bytes remote:            6.00e+08 3.29e+07 8.30e+08 0.00e+00 0.00e+00 0.00e+00
Max memory consumed for GA by this process: 11242192 bytes
 
MA_summarize_allocated_blocks: starting scan ...
MA_summarize_allocated_blocks: scan completed: 0 heap blocks, 0 stack blocks
MA usage statistics:

	allocation statistics:
					      heap	     stack
					      ----	     -----
	current number of blocks	         0	         0
	maximum number of blocks	        24	        52
	current total bytes		         0	         0
	maximum total bytes		   7519824	  48983880
	maximum total K-bytes		      7520	     48984
	maximum total M-bytes		         8	        49
 
 
                                     CITATION
                                     --------
                Please cite the following reference when publishing
                           results obtained with NWChem:
 
                 M. Valiev, E.J. Bylaska, N. Govind, K. Kowalski,
              T.P. Straatsma, H.J.J. van Dam, D. Wang, J. Nieplocha,
                        E. Apra, T.L. Windus, W.A. de Jong
                 "NWChem: a comprehensive and scalable open-source
                  solution for large scale molecular simulations"
                      Comput. Phys. Commun. 181, 1477 (2010)
                           doi:10.1016/j.cpc.2010.04.018
 
                                      AUTHORS
                                      -------
          E. Apra, E. J. Bylaska, W. A. de Jong, N. Govind, K. Kowalski,
       T. P. Straatsma, M. Valiev, H. J. J. van Dam, D. Wang, T. L. Windus,
        J. Hammond, J. Autschbach, K. Bhaskaran-Nair, J. Brabec, K. Lopata,
    S. A. Fischer, S. Krishnamoorthy, M. Jacquelin, W. Ma, M. Klemm, O. Villa,
      Y. Chen, V. Anisimov, F. Aquino, S. Hirata, M. T. Hackler, V. Konjkov,
            D. Mejia-Rodriguez, T. Risthaus, M. Malagoli, A. Marenich,
   A. Otero-de-la-Roza, J. Mullin, P. Nichols, R. Peverati, J. Pittner, Y. Zhao,
        P.-D. Fan, A. Fonari, M. J. Williamson, R. J. Harrison, J. R. Rehr,
      M. Dupuis, D. Silverstein, D. M. A. Smith, J. Nieplocha, V. Tipparaju,
    M. Krishnan, B. E. Van Kuiken, A. Vazquez-Mayagoitia, L. Jensen, M. Swart,
      Q. Wu, T. Van Voorhis, A. A. Auer, M. Nooijen, L. D. Crosby, E. Brown,
      G. Cisneros, G. I. Fann, H. Fruchtl, J. Garza, K. Hirao, R. A. Kendall,
      J. A. Nichols, K. Tsemekhman, K. Wolinski, J. Anchell, D. E. Bernholdt,
      P. Borowski, T. Clark, D. Clerc, H. Dachsel, M. J. O. Deegan, K. Dyall,
    D. Elwood, E. Glendening, M. Gutowski, A. C. Hess, J. Jaffe, B. G. Johnson,
     J. Ju, R. Kobayashi, R. Kutteh, Z. Lin, R. Littlefield, X. Long, B. Meng,
      T. Nakajima, S. Niu, L. Pollack, M. Rosing, K. Glaesemann, G. Sandrone,
      M. Stave, H. Taylor, G. Thomas, J. H. van Lenthe, A. T. Wong, Z. Zhang.

 Total times  cpu:      609.5s     wall:      623.2s
