 argument  1 = methyloxirane_blyp-def2-tzvp_488.9_23.inp
 


============================== echo of input deck ==============================
echo
start methyloxirane_blyp-def2-tzvp_488.9_23.inp
title "methyloxirane roa calculations at 488.9 nm, input generated in va  with delta_type=2"
charge 0



geometry units angstrom nocenter noautoz noautosym nucleus point;symmetry c1
 O -0.879111 -0.180290  0.205271
 C  0.573841 -0.157289  0.121933
 C -0.185501  1.088299  0.340321
 C  1.184056 -0.519075 -1.212573
 H  1.062560 -0.607664  1.005682
 H -0.228037  1.537457  1.334198
 H -0.325440  1.783257 -0.494254
 H  2.248470 -0.213742 -1.246189
 H  1.141752 -1.614915 -1.375833
 H  0.662114 -0.036794 -2.017493
end

basis spherical
* library def2-TZVP
end

 set prop:newaoresp 1
 set aor:roadata T
 set cphf:maxsub 100
 set cphf:acc 1.0d-10
 set cphf:maxiter 100

property
    response 1   0.093196
    bdtensor
    convergence 1e-7
    damping 0.0037
    giao
end

dft
 direct
 mult 1
 xc becke88 lyp
 iterations 250
 tolerances tight
 grid xfine
 convergence nolevelshifting
 convergence energy 1e-8
 convergence gradient 1e-7


end

task dft gradient
task dft property
================================================================================


                                         
                                         
 
 
              Northwest Computational Chemistry Package (NWChem) 6.8
              ------------------------------------------------------
 
 
                    Environmental Molecular Sciences Laboratory
                       Pacific Northwest National Laboratory
                                Richland, WA 99352
 
                              Copyright (c) 1994-2017
                       Pacific Northwest National Laboratory
                            Battelle Memorial Institute
 
             NWChem is an open-source computational chemistry package
                        distributed under the terms of the
                      Educational Community License (ECL) 2.0
             A copy of the license is included with this distribution
                              in the LICENSE.TXT file
 
                                  ACKNOWLEDGMENT
                                  --------------

            This software and its documentation were developed at the
            EMSL at Pacific Northwest National Laboratory, a multiprogram
            national laboratory, operated for the U.S. Department of Energy
            by Battelle under Contract Number DE-AC05-76RL01830. Support
            for this work was provided by the Department of Energy Office
            of Biological and Environmental Research, Office of Basic
            Energy Sciences, and the Office of Advanced Scientific Computing.


           Job information
           ---------------

    hostname        = cpn-f15-35.cbls.ccr.buffalo.edu
    program         = /util/academic/nwchem/nwchem-6.8/bin/LINUX64/nwchem
    date            = Fri Mar  1 10:17:41 2019

    compiled        = Tue_Nov_06_14:59:08_2018
    source          = /util/academic/nwchem/nwchem-6.8
    nwchem branch   = 6.8
    nwchem revision = v6.8-47-gdf6c956
    ga revision     = ga-5.6.3
    use scalapack   = F
    input           = methyloxirane_blyp-def2-tzvp_488.9_23.inp
    prefix          = methyloxirane_blyp-def2-tzvp_488.9_23.inp.
    data base       = ./methyloxirane_blyp-def2-tzvp_488.9_23.inp.db
    status          = startup
    nproc           =        7
    time left       =     -1s



           Memory information
           ------------------

    heap     =   13107196 doubles =    100.0 Mbytes
    stack    =   13107201 doubles =    100.0 Mbytes
    global   =   26214400 doubles =    200.0 Mbytes (distinct from heap & stack)
    total    =   52428797 doubles =    400.0 Mbytes
    verify   = yes
    hardfail = no 


           Directory information
           ---------------------
 
  0 permanent = .
  0 scratch   = .
 
 
 
 
                                NWChem Input Module
                                -------------------
 
 
                    methyloxirane roa calculations at 488.9 nm, input generated in va  with delta_type=2
                    ------------------------------------------

 Scaling coordinates for geometry "geometry" by  1.889725989
 (inverse scale =  0.529177249)

 
 
                             Geometry "geometry" -> ""
                             -------------------------
 
 Output coordinates in angstroms (scale by  1.889725989 to convert to a.u.)
 
  No.       Tag          Charge          X              Y              Z
 ---- ---------------- ---------- -------------- -------------- --------------
    1 O                    8.0000    -0.87911100    -0.18029000     0.20527100
    2 C                    6.0000     0.57384100    -0.15728900     0.12193300
    3 C                    6.0000    -0.18550100     1.08829900     0.34032100
    4 C                    6.0000     1.18405600    -0.51907500    -1.21257300
    5 H                    1.0000     1.06256000    -0.60766400     1.00568200
    6 H                    1.0000    -0.22803700     1.53745700     1.33419800
    7 H                    1.0000    -0.32544000     1.78325700    -0.49425400
    8 H                    1.0000     2.24847000    -0.21374200    -1.24618900
    9 H                    1.0000     1.14175200    -1.61491500    -1.37583300
   10 H                    1.0000     0.66211400    -0.03679400    -2.01749300
 
      Atomic Mass 
      ----------- 
 
      O                 15.994910
      C                 12.000000
      H                  1.007825
 

 Effective nuclear repulsion energy (a.u.)     123.5229749891

            Nuclear Dipole moment (a.u.) 
            ----------------------------
        X                 Y               Z
 ---------------- ---------------- ----------------
    13.1579863140     3.5468059210   -10.6838209894
 
 
            XYZ format geometry
            -------------------
    10
 geometry
 O                    -0.87911100    -0.18029000     0.20527100
 C                     0.57384100    -0.15728900     0.12193300
 C                    -0.18550100     1.08829900     0.34032100
 C                     1.18405600    -0.51907500    -1.21257300
 H                     1.06256000    -0.60766400     1.00568200
 H                    -0.22803700     1.53745700     1.33419800
 H                    -0.32544000     1.78325700    -0.49425400
 H                     2.24847000    -0.21374200    -1.24618900
 H                     1.14175200    -1.61491500    -1.37583300
 H                     0.66211400    -0.03679400    -2.01749300
 
 ==============================================================================
                                internuclear distances
 ------------------------------------------------------------------------------
       center one      |      center two      | atomic units |  angstroms
 ------------------------------------------------------------------------------
    2 C                |   1 O                |     2.75054  |     1.45552
    3 C                |   1 O                |     2.74411  |     1.45212
    3 C                |   2 C                |     2.78745  |     1.47505
    4 C                |   2 C                |     2.85602  |     1.51134
    5 H                |   2 C                |     2.08958  |     1.10576
    6 H                |   3 C                |     2.06261  |     1.09149
    7 H                |   3 C                |     2.06928  |     1.09502
    8 H                |   4 C                |     2.09354  |     1.10785
    9 H                |   4 C                |     2.09522  |     1.10874
   10 H                |   4 C                |     2.02907  |     1.07374
 ------------------------------------------------------------------------------
                         number of included internuclear distances:         10
 ==============================================================================



 ==============================================================================
                                 internuclear angles
 ------------------------------------------------------------------------------
        center 1       |       center 2       |       center 3       |  degrees
 ------------------------------------------------------------------------------
    2 C                |   1 O                |   3 C                |    60.97
    2 C                |   1 O                |   3 C                |    60.97
    1 O                |   2 C                |   4 C                |   116.73
    1 O                |   2 C                |   5 H                |   112.89
    3 C                |   2 C                |   4 C                |   122.73
    3 C                |   2 C                |   5 H                |   116.95
    4 C                |   2 C                |   5 H                |   115.45
    3 C                |   1 O                |   2 C                |    60.97
    1 O                |   3 C                |   6 H                |   115.19
    1 O                |   3 C                |   7 H                |   114.99
    2 C                |   3 C                |   6 H                |   120.16
    2 C                |   3 C                |   7 H                |   119.27
    6 H                |   3 C                |   7 H                |   115.33
    2 C                |   4 C                |   8 H                |   110.41
    2 C                |   4 C                |   9 H                |   110.56
    2 C                |   4 C                |  10 H                |   110.99
    8 H                |   4 C                |   9 H                |   107.73
    8 H                |   4 C                |  10 H                |   108.69
    9 H                |   4 C                |  10 H                |   108.36
 ------------------------------------------------------------------------------
                            number of included internuclear angles:         19
 ==============================================================================



  warning:::::::::::::: from_environment
  NWCHEM_BASIS_LIBRARY set to: <
 /util/academic/nwchem/nwchem-6.8/src/basis/libraries>
  but file does not exist !
  using .nwchemrc or compiled library


 Summary of "ao basis" -> "" (spherical)
 ------------------------------------------------------------------------------
       Tag                 Description            Shells   Functions and Types
 ---------------- ------------------------------  ------  ---------------------
 *                         def2-TZVP                  on all atoms 


 
                                 NWChem DFT Module
                                 -----------------
 
 
                    methyloxirane roa calculations at 488.9 nm, input generated in va  with delta_type=2
 
 
                      Basis "ao basis" -> "ao basis" (spherical)
                      -----
  O (Oxygen)
  ----------
            Exponent  Coefficients 
       -------------- ---------------------------------------------------------
  1 S  2.70323826E+04  0.000217
  1 S  4.05238714E+03  0.001684
  1 S  9.22327227E+02  0.008740
  1 S  2.61240710E+02  0.035240
  1 S  8.53546414E+01  0.111535
  1 S  3.10350352E+01  0.255890
 
  2 S  1.22608607E+01  0.397687
  2 S  4.99870760E+00  0.246278
 
  3 S  1.17031082E+00  1.000000
 
  4 S  4.64747410E-01  1.000000
 
  5 S  1.85045364E-01  1.000000
 
  6 P  6.32749548E+01  0.006069
  6 P  1.46270494E+01  0.041913
  6 P  4.45012235E+00  0.161538
  6 P  1.52757996E+00  0.357070
 
  7 P  5.29351179E-01  1.000000
 
  8 P  1.74784213E-01  1.000000
 
  9 D  2.31400000E+00  1.000000
 
 10 D  6.45000000E-01  1.000000
 
 11 F  1.42800000E+00  1.000000
 
  C (Carbon)
  ----------
            Exponent  Coefficients 
       -------------- ---------------------------------------------------------
  1 S  1.35753497E+04  0.000222
  1 S  2.03523337E+03  0.001723
  1 S  4.63225624E+02  0.008926
  1 S  1.31200196E+02  0.035728
  1 S  4.28530159E+01  0.110763
  1 S  1.55841858E+01  0.242956
 
  2 S  6.20671385E+00  0.414403
  2 S  2.57648965E+00  0.237450
 
  3 S  5.76963394E-01  1.000000
 
  4 S  2.29728314E-01  1.000000
 
  5 S  9.51644400E-02  1.000000
 
  6 P  3.46972322E+01  0.005333
  6 P  7.95826228E+00  0.035864
  6 P  2.37808269E+00  0.142159
  6 P  8.14332082E-01  0.342705
 
  7 P  2.88875473E-01  1.000000
 
  8 P  1.00568237E-01  1.000000
 
  9 D  1.09700000E+00  1.000000
 
 10 D  3.18000000E-01  1.000000
 
 11 F  7.61000000E-01  1.000000
 
  H (Hydrogen)
  ------------
            Exponent  Coefficients 
       -------------- ---------------------------------------------------------
  1 S  3.40613410E+01  0.006025
  1 S  5.12357460E+00  0.045021
  1 S  1.16466260E+00  0.201897
 
  2 S  3.27230410E-01  1.000000
 
  3 S  1.03072410E-01  1.000000
 
  4 P  8.00000000E-01  1.000000
 


 Summary of "ao basis" -> "ao basis" (spherical)
 ------------------------------------------------------------------------------
       Tag                 Description            Shells   Functions and Types
 ---------------- ------------------------------  ------  ---------------------
 O                         def2-TZVP                11       31   5s3p2d1f
 C                         def2-TZVP                11       31   5s3p2d1f
 H                         def2-TZVP                 4        6   3s1p




 Summary of "ao basis" -> "ao basis" (spherical)
 ------------------------------------------------------------------------------
       Tag                 Description            Shells   Functions and Types
 ---------------- ------------------------------  ------  ---------------------
 O                         def2-TZVP                11       31   5s3p2d1f
 C                         def2-TZVP                11       31   5s3p2d1f
 H                         def2-TZVP                 4        6   3s1p


  Caching 1-el integrals 
  itol2e modified to match energy
  convergence criterion.
  tol_rho modified to match energy
  convergence criterion.
 
            General Information
            -------------------
          SCF calculation type: DFT
          Wavefunction type:  closed shell.
          No. of atoms     :    10
          No. of electrons :    32
           Alpha electrons :    16
            Beta electrons :    16
          Charge           :     0
          Spin multiplicity:     1
          Use of symmetry is: off; symmetry adaption is: off
          Maximum number of iterations: 250
          This is a Direct SCF calculation.
          AO basis - number of functions:   160
                     number of shells:    68
          Convergence on energy requested:  1.00D-08
          Convergence on density requested:  1.00D-05
          Convergence on gradient requested:  1.00D-07
 
              XC Information
              --------------
                    Becke 1988 Exchange Functional  1.000          
              Lee-Yang-Parr Correlation Functional  1.000          
 
             Grid Information
             ----------------
          Grid used for XC integration:  xfine     
          Radial quadrature: Mura-Knowles        
          Angular quadrature: Lebedev. 
          Tag              B.-S. Rad. Rad. Pts. Rad. Cut. Ang. Pts.
          ---              ---------- --------- --------- ---------
          O                   0.60      100          11.0      1454
          C                   0.70      100          11.0      1454
          H                   0.35      100          12.0      1202
          Grid pruning is: on 
          Number of quadrature shells:  1000
          Spatial weights used:  Erf1
 
          Convergence Information
          -----------------------
          Convergence aids based upon iterative change in 
          total energy or number of iterations. 
          Levelshifting, if invoked, occurs when the 
          HOMO/LUMO gap drops below (HL_TOL):  1.00D-02
          DIIS, if invoked, will attempt to extrapolate 
          using up to (NFOCK): 10 stored Fock matrices.

                    Damping( 0%)  Levelshifting(0.0)       DIIS
                  --------------- ------------------- ---------------
          dE  on:    start             N/A                start   
          dE off:    2 iters           N/A              250 iters 

 
      Screening Tolerance Information
      -------------------------------
          Density screening/tol_rho:  1.00D-11
          AO Gaussian exp screening on grid/accAOfunc:  18
          CD Gaussian exp screening on grid/accCDfunc:  20
          XC Gaussian exp screening on grid/accXCfunc:  20
          Schwarz screening/accCoul:  1.00D-09

 
      Superposition of Atomic Density Guess
      -------------------------------------
 
 Sum of atomic energies:        -190.79714706
 
      Non-variational initial energy
      ------------------------------

 Total energy =    -193.159769
 1-e energy   =    -502.009782
 2-e energy   =     185.327038
 HOMO         =      -0.351126
 LUMO         =       0.090711
 
   Time after variat. SCF:      0.5
   Time prior to 1st pass:      0.5

 Grid_pts file          = ./methyloxirane_blyp-def2-tzvp_488.9_23.inp.gridpts.0
 Record size in doubles =  12289        No. of grid_pts per rec  =   3070
 Max. records in memory =     76        Max. recs in file   =   1219782


           Memory utilization after 1st SCF pass: 
           Heap Space remaining (MW):       12.17            12167540
          Stack Space remaining (MW):       13.11            13106124

   convergence    iter        energy       DeltaE   RMS-Dens  Diis-err    time
 ---------------- ----- ----------------- --------- --------- ---------  ------
 d= 0,ls=0.0,diis     1   -193.0194699095 -3.17D+02  9.20D-03  1.06D+00     4.9
 d= 0,ls=0.0,diis     2   -192.8562320686  1.63D-01  7.61D-03  2.57D+00     9.0
 d= 0,ls=0.0,diis     3   -193.0767012581 -2.20D-01  1.82D-03  3.86D-01    13.2
 d= 0,ls=0.0,diis     4   -193.1067973316 -3.01D-02  6.88D-04  1.85D-02    17.4
 d= 0,ls=0.0,diis     5   -193.1084953904 -1.70D-03  2.94D-04  2.73D-03    21.6
 d= 0,ls=0.0,diis     6   -193.1088359777 -3.41D-04  3.08D-05  3.68D-05    25.8
 d= 0,ls=0.0,diis     7   -193.1088403180 -4.34D-06  8.45D-06  4.51D-06    30.0
 d= 0,ls=0.0,diis     8   -193.1088407999 -4.82D-07  2.55D-06  3.99D-07    34.2
 d= 0,ls=0.0,diis     9   -193.1088408430 -4.31D-08  7.61D-07  2.67D-08    38.4
 d= 0,ls=0.0,diis    10   -193.1088408460 -3.00D-09  2.27D-07  3.32D-09    42.6


         Total DFT energy =     -193.108840846025
      One electron energy =     -505.660407674766
           Coulomb energy =      216.048157806008
    Exchange-Corr. energy =      -27.019565966381
 Nuclear repulsion energy =      123.522974989113

 Numeric. integr. density =       32.000000020634

     Total iterative time =     42.1s


 
                       DFT Final Molecular Orbital Analysis
                       ------------------------------------
 
 Vector    1  Occ=2.000000D+00  E=-1.877992D+01
              MO Center= -8.8D-01, -1.8D-01,  2.1D-01, r^2= 1.5D-02
   Bfn.  Coefficient  Atom+Function         Bfn.  Coefficient  Atom+Function  
  ----- ------------  ---------------      ----- ------------  ---------------
     2      0.638477   1 O  s                 1      0.435422   1 O  s         
     3      0.039889   1 O  s                 4     -0.033248   1 O  s         
 
 Vector    2  Occ=2.000000D+00  E=-9.964109D+00
              MO Center=  5.7D-01, -1.6D-01,  1.2D-01, r^2= 2.8D-02
   Bfn.  Coefficient  Atom+Function         Bfn.  Coefficient  Atom+Function  
  ----- ------------  ---------------      ----- ------------  ---------------
    33      0.606937   2 C  s                32      0.467272   2 C  s         
    34      0.042458   2 C  s                36      0.037430   2 C  s         
    35     -0.027492   2 C  s         
 
 Vector    3  Occ=2.000000D+00  E=-9.955705D+00
              MO Center= -1.9D-01,  1.1D+00,  3.4D-01, r^2= 2.8D-02
   Bfn.  Coefficient  Atom+Function         Bfn.  Coefficient  Atom+Function  
  ----- ------------  ---------------      ----- ------------  ---------------
    64      0.607034   3 C  s                63      0.467229   3 C  s         
    65      0.039708   3 C  s         
 
 Vector    4  Occ=2.000000D+00  E=-9.907572D+00
              MO Center=  1.2D+00, -5.2D-01, -1.2D+00, r^2= 2.8D-02
   Bfn.  Coefficient  Atom+Function         Bfn.  Coefficient  Atom+Function  
  ----- ------------  ---------------      ----- ------------  ---------------
    95      0.606952   4 C  s                94      0.467212   4 C  s         
    96      0.040651   4 C  s                98      0.035716   4 C  s         
 
 Vector    5  Occ=2.000000D+00  E=-9.627388D-01
              MO Center= -4.7D-01,  5.6D-02,  2.1D-01, r^2= 6.5D-01
   Bfn.  Coefficient  Atom+Function         Bfn.  Coefficient  Atom+Function  
  ----- ------------  ---------------      ----- ------------  ---------------
     4      0.375292   1 O  s                 3      0.277438   1 O  s         
     2     -0.192796   1 O  s                34      0.139778   2 C  s         
    65      0.139151   3 C  s                 5      0.122762   1 O  s         
    35      0.104990   2 C  s                 6      0.093310   1 O  px        
    66      0.093727   3 C  s                69     -0.091414   3 C  py        
 
 Vector    6  Occ=2.000000D+00  E=-6.699123D-01
              MO Center=  9.4D-01, -3.8D-01, -7.8D-01, r^2= 1.5D+00
   Bfn.  Coefficient  Atom+Function         Bfn.  Coefficient  Atom+Function  
  ----- ------------  ---------------      ----- ------------  ---------------
    97      0.286036   4 C  s                96      0.277198   4 C  s         
    35      0.183890   2 C  s                95     -0.174589   4 C  s         
    34      0.173171   2 C  s                 4     -0.147108   1 O  s         
    33     -0.108148   2 C  s                 3     -0.102907   1 O  s         
    94     -0.083656   4 C  s                 5     -0.072691   1 O  s         
 
 Vector    7  Occ=2.000000D+00  E=-5.899579D-01
              MO Center= -1.3D-01,  7.2D-01,  2.2D-01, r^2= 1.9D+00
   Bfn.  Coefficient  Atom+Function         Bfn.  Coefficient  Atom+Function  
  ----- ------------  ---------------      ----- ------------  ---------------
    66      0.326615   3 C  s                65      0.278448   3 C  s         
     4     -0.238311   1 O  s                64     -0.172110   3 C  s         
     3     -0.168339   1 O  s                 5     -0.147952   1 O  s         
     2      0.111142   1 O  s                38      0.104983   2 C  py        
   132      0.103251   6 H  s                97     -0.098709   4 C  s         
 
 Vector    8  Occ=2.000000D+00  E=-5.293473D-01
              MO Center=  4.0D-01,  2.0D-02, -1.0D-01, r^2= 2.7D+00
   Bfn.  Coefficient  Atom+Function         Bfn.  Coefficient  Atom+Function  
  ----- ------------  ---------------      ----- ------------  ---------------
    35      0.305037   2 C  s                34      0.226527   2 C  s         
    66     -0.151786   3 C  s                97     -0.152482   4 C  s         
    33     -0.139160   2 C  s               126      0.130953   5 H  s         
    96     -0.126964   4 C  s                 6      0.108250   1 O  px        
   125      0.104259   5 H  s               101      0.100572   4 C  pz        
 
 Vector    9  Occ=2.000000D+00  E=-4.474741D-01
              MO Center=  1.2D-01,  2.8D-01,  2.5D-01, r^2= 2.5D+00
   Bfn.  Coefficient  Atom+Function         Bfn.  Coefficient  Atom+Function  
  ----- ------------  ---------------      ----- ------------  ---------------
    70      0.210664   3 C  pz               39      0.152865   2 C  pz        
   132      0.145582   6 H  s                73      0.132195   3 C  pz        
     8      0.126854   1 O  pz              126      0.115154   5 H  s         
     6     -0.110439   1 O  px               38     -0.107567   2 C  py        
   131      0.108014   6 H  s                37      0.105014   2 C  px        
 
 Vector   10  Occ=2.000000D+00  E=-4.138631D-01
              MO Center=  5.1D-02,  2.9D-01, -2.5D-01, r^2= 2.6D+00
   Bfn.  Coefficient  Atom+Function         Bfn.  Coefficient  Atom+Function  
  ----- ------------  ---------------      ----- ------------  ---------------
    69      0.213394   3 C  py              101      0.160055   4 C  pz        
   138      0.154049   7 H  s                 6     -0.142325   1 O  px        
    38     -0.137926   2 C  py               37      0.128425   2 C  px        
    72      0.120491   3 C  py                7     -0.119830   1 O  py        
    70     -0.118723   3 C  pz                9     -0.113783   1 O  px        
 
 Vector   11  Occ=2.000000D+00  E=-3.761460D-01
              MO Center=  8.8D-01, -2.7D-01, -7.2D-01, r^2= 2.7D+00
   Bfn.  Coefficient  Atom+Function         Bfn.  Coefficient  Atom+Function  
  ----- ------------  ---------------      ----- ------------  ---------------
    99      0.215700   4 C  px              144      0.186457   8 H  s         
   100      0.146859   4 C  py              102      0.138692   4 C  px        
   143      0.130185   8 H  s                 7      0.127511   1 O  py        
   150     -0.126826   9 H  s                37      0.126018   2 C  px        
     6     -0.114193   1 O  px               10      0.107350   1 O  py        
 
 Vector   12  Occ=2.000000D+00  E=-3.569056D-01
              MO Center=  6.5D-01, -4.2D-01, -9.3D-01, r^2= 2.7D+00
   Bfn.  Coefficient  Atom+Function         Bfn.  Coefficient  Atom+Function  
  ----- ------------  ---------------      ----- ------------  ---------------
   100      0.266103   4 C  py              150     -0.196338   9 H  s         
   156      0.173982  10 H  s               103      0.172593   4 C  py        
     7     -0.157686   1 O  py              149     -0.136480   9 H  s         
    10     -0.125812   1 O  py              155      0.124302  10 H  s         
   106      0.106475   4 C  py               70      0.104755   3 C  pz        
 
 Vector   13  Occ=2.000000D+00  E=-3.289770D-01
              MO Center=  3.4D-01,  2.6D-01, -2.1D-01, r^2= 2.8D+00
   Bfn.  Coefficient  Atom+Function         Bfn.  Coefficient  Atom+Function  
  ----- ------------  ---------------      ----- ------------  ---------------
    39      0.218248   2 C  pz              101     -0.192733   4 C  pz        
    70     -0.173652   3 C  pz                7     -0.164877   1 O  py        
   138      0.163439   7 H  s                42      0.148585   2 C  pz        
   104     -0.134953   4 C  pz               10     -0.132949   1 O  py        
    99      0.131594   4 C  px              137      0.109953   7 H  s         
 
 Vector   14  Occ=2.000000D+00  E=-3.213747D-01
              MO Center=  3.9D-01, -4.9D-02, -1.8D-01, r^2= 3.0D+00
   Bfn.  Coefficient  Atom+Function         Bfn.  Coefficient  Atom+Function  
  ----- ------------  ---------------      ----- ------------  ---------------
     7      0.209150   1 O  py               10      0.171382   1 O  py        
   126      0.164219   5 H  s                99     -0.156007   4 C  px        
     6     -0.147665   1 O  px              156      0.144046  10 H  s         
    37      0.134789   2 C  px              144     -0.133544   8 H  s         
    39      0.130149   2 C  pz                9     -0.121194   1 O  px        
 
 Vector   15  Occ=2.000000D+00  E=-2.633961D-01
              MO Center=  2.0D-02,  1.5D-01,  3.0D-02, r^2= 2.3D+00
   Bfn.  Coefficient  Atom+Function         Bfn.  Coefficient  Atom+Function  
  ----- ------------  ---------------      ----- ------------  ---------------
    68      0.264059   3 C  px               38      0.256084   2 C  py        
     6     -0.236988   1 O  px               41      0.199595   2 C  py        
    71      0.196170   3 C  px                9     -0.185365   1 O  px        
    12     -0.156892   1 O  px              150      0.116158   9 H  s         
   100     -0.111358   4 C  py               67      0.106784   3 C  s         
 
 Vector   16  Occ=2.000000D+00  E=-2.197974D-01
              MO Center= -5.8D-01, -2.7D-02,  2.0D-01, r^2= 1.6D+00
   Bfn.  Coefficient  Atom+Function         Bfn.  Coefficient  Atom+Function  
  ----- ------------  ---------------      ----- ------------  ---------------
     8      0.448697   1 O  pz               11      0.357370   1 O  pz        
    14      0.296062   1 O  pz              133     -0.130529   6 H  s         
   139      0.116311   7 H  s               132     -0.103576   6 H  s         
   138      0.103799   7 H  s               145     -0.101833   8 H  s         
   126     -0.097912   5 H  s                98      0.090849   4 C  s         
 
 Vector   17  Occ=0.000000D+00  E= 2.542872D-02
              MO Center=  1.2D+00, -1.5D-01, -5.5D-01, r^2= 7.2D+00
   Bfn.  Coefficient  Atom+Function         Bfn.  Coefficient  Atom+Function  
  ----- ------------  ---------------      ----- ------------  ---------------
    98      4.453767   4 C  s               145     -1.525680   8 H  s         
   151     -1.503761   9 H  s               157     -1.315017  10 H  s         
   127     -1.275946   5 H  s                45      1.136203   2 C  pz        
   139     -0.848944   7 H  s                67      0.694400   3 C  s         
   133     -0.622135   6 H  s                75      0.330121   3 C  py        
 
 Vector   18  Occ=0.000000D+00  E= 4.251540D-02
              MO Center= -1.2D-01,  6.7D-01,  1.1D-01, r^2= 4.5D+00
   Bfn.  Coefficient  Atom+Function         Bfn.  Coefficient  Atom+Function  
  ----- ------------  ---------------      ----- ------------  ---------------
    98     -2.107460   4 C  s                36      2.007059   2 C  s         
     5     -1.269260   1 O  s                74     -0.943382   3 C  px        
   151      0.797551   9 H  s                45     -0.470508   2 C  pz        
    13     -0.435105   1 O  py              157      0.430944  10 H  s         
    44      0.392236   2 C  py               67     -0.377337   3 C  s         
 
 Vector   19  Occ=0.000000D+00  E= 4.974363D-02
              MO Center=  3.1D-01,  6.4D-01, -1.5D-01, r^2= 6.5D+00
   Bfn.  Coefficient  Atom+Function         Bfn.  Coefficient  Atom+Function  
  ----- ------------  ---------------      ----- ------------  ---------------
    67      3.014624   3 C  s                36     -2.598821   2 C  s         
   139     -1.696029   7 H  s               127      1.609158   5 H  s         
   157     -0.757186  10 H  s                45     -0.548152   2 C  pz        
    44     -0.538086   2 C  py              145      0.523451   8 H  s         
     5     -0.494912   1 O  s                76     -0.472028   3 C  pz        
 
 Vector   20  Occ=0.000000D+00  E= 5.098308D-02
              MO Center=  6.8D-01,  4.2D-01,  4.1D-01, r^2= 7.6D+00
   Bfn.  Coefficient  Atom+Function         Bfn.  Coefficient  Atom+Function  
  ----- ------------  ---------------      ----- ------------  ---------------
    98      3.480198   4 C  s                67     -2.334995   3 C  s         
   133      1.783612   6 H  s               127      1.363096   5 H  s         
   145     -1.196046   8 H  s                36     -1.161122   2 C  s         
   157     -1.156910  10 H  s                44      1.043312   2 C  py        
   151     -0.705217   9 H  s                43     -0.701452   2 C  px        
 
 Vector   21  Occ=0.000000D+00  E= 6.430055D-02
              MO Center=  2.7D-01,  8.6D-02, -1.8D-01, r^2= 4.9D+00
   Bfn.  Coefficient  Atom+Function         Bfn.  Coefficient  Atom+Function  
  ----- ------------  ---------------      ----- ------------  ---------------
   139      1.226187   7 H  s                98      1.219795   4 C  s         
   151     -1.001879   9 H  s                67     -0.981680   3 C  s         
     5     -0.883628   1 O  s                43     -0.824973   2 C  px        
   133      0.609711   6 H  s                75     -0.573898   3 C  py        
    12     -0.484056   1 O  px               45      0.397189   2 C  pz        
 
 Vector   22  Occ=0.000000D+00  E= 8.613189D-02
              MO Center=  1.4D+00,  1.4D-01, -5.6D-01, r^2= 7.0D+00
   Bfn.  Coefficient  Atom+Function         Bfn.  Coefficient  Atom+Function  
  ----- ------------  ---------------      ----- ------------  ---------------
    36      2.467458   2 C  s               145      2.119988   8 H  s         
    67     -1.305732   3 C  s               157     -1.245079  10 H  s         
   133      1.182573   6 H  s               105     -1.116488   4 C  px        
   127     -1.113454   5 H  s               107     -0.998433   4 C  pz        
   151     -0.791619   9 H  s                76     -0.742541   3 C  pz        
 
 Vector   23  Occ=0.000000D+00  E= 9.076309D-02
              MO Center=  9.8D-01, -4.7D-01, -3.7D-01, r^2= 7.0D+00
   Bfn.  Coefficient  Atom+Function         Bfn.  Coefficient  Atom+Function  
  ----- ------------  ---------------      ----- ------------  ---------------
    36      2.822978   2 C  s               151      1.901526   9 H  s         
    98     -1.282669   4 C  s               145     -1.230391   8 H  s         
   133      1.152951   6 H  s                67     -1.083677   3 C  s         
   106      1.069199   4 C  py              127     -0.992952   5 H  s         
   105      0.920553   4 C  px              107     -0.839254   4 C  pz        
 
 Vector   24  Occ=0.000000D+00  E= 1.038647D-01
              MO Center=  4.7D-01,  3.7D-01, -1.2D+00, r^2= 6.5D+00
   Bfn.  Coefficient  Atom+Function         Bfn.  Coefficient  Atom+Function  
  ----- ------------  ---------------      ----- ------------  ---------------
   157      2.296736  10 H  s                98     -1.816541   4 C  s         
   106     -1.469348   4 C  py              133      1.472099   6 H  s         
   139     -1.368240   7 H  s               151     -1.297319   9 H  s         
    36      1.263807   2 C  s               105      1.126238   4 C  px        
    76     -1.047033   3 C  pz               45     -0.674647   2 C  pz        
 
 Vector   25  Occ=0.000000D+00  E= 1.387314D-01
              MO Center=  7.7D-01,  2.2D-01, -4.3D-01, r^2= 7.9D+00
   Bfn.  Coefficient  Atom+Function         Bfn.  Coefficient  Atom+Function  
  ----- ------------  ---------------      ----- ------------  ---------------
    36      4.800532   2 C  s                98     -3.631028   4 C  s         
    45     -3.388428   2 C  pz               67     -2.809265   3 C  s         
   127      2.655094   5 H  s                76      2.181186   3 C  pz        
   105      2.066518   4 C  px              133     -1.815127   6 H  s         
   139      1.692512   7 H  s               107     -1.572850   4 C  pz        
 
 Vector   26  Occ=0.000000D+00  E= 1.703285D-01
              MO Center=  4.8D-01,  4.9D-01, -1.4D-01, r^2= 7.3D+00
   Bfn.  Coefficient  Atom+Function         Bfn.  Coefficient  Atom+Function  
  ----- ------------  ---------------      ----- ------------  ---------------
    75      2.261524   3 C  py              107      1.663284   4 C  pz        
    67     -1.534618   3 C  s                36      1.508833   2 C  s         
   157      1.214194  10 H  s               139     -1.169742   7 H  s         
    74     -0.960380   3 C  px               44      0.711409   2 C  py        
   106     -0.619004   4 C  py               43     -0.593590   2 C  px        
 
 Vector   27  Occ=0.000000D+00  E= 1.976919D-01
              MO Center=  8.6D-01, -6.3D-02, -9.7D-01, r^2= 5.1D+00
   Bfn.  Coefficient  Atom+Function         Bfn.  Coefficient  Atom+Function  
  ----- ------------  ---------------      ----- ------------  ---------------
    67      3.099137   3 C  s                44     -2.615415   2 C  py        
   106      2.027920   4 C  py               36     -1.630725   2 C  s         
    43      1.018747   2 C  px              157     -0.726503  10 H  s         
    74      0.720619   3 C  px               45     -0.649209   2 C  pz        
   150      0.641533   9 H  s               105      0.594829   4 C  px        
 
 Vector   28  Occ=0.000000D+00  E= 2.014350D-01
              MO Center=  9.0D-01, -4.5D-01, -7.1D-01, r^2= 6.7D+00
   Bfn.  Coefficient  Atom+Function         Bfn.  Coefficient  Atom+Function  
  ----- ------------  ---------------      ----- ------------  ---------------
    36      2.598377   2 C  s                75      1.746801   3 C  py        
   105     -1.492899   4 C  px              133     -1.211081   6 H  s         
    45      0.826337   2 C  pz              107     -0.830382   4 C  pz        
   139     -0.788648   7 H  s               156     -0.735203  10 H  s         
   106      0.727871   4 C  py               76      0.638293   3 C  pz        
 
 Vector   29  Occ=0.000000D+00  E= 2.361788D-01
              MO Center= -3.0D-01,  3.9D-01, -5.6D-02, r^2= 5.4D+00
   Bfn.  Coefficient  Atom+Function         Bfn.  Coefficient  Atom+Function  
  ----- ------------  ---------------      ----- ------------  ---------------
    67      4.554125   3 C  s                36     -3.177764   2 C  s         
   139     -1.516807   7 H  s                66     -1.440367   3 C  s         
    98      1.315273   4 C  s               133     -1.234586   6 H  s         
   107      0.998045   4 C  pz               74     -0.791896   3 C  px        
     5     -0.740315   1 O  s               106      0.732577   4 C  py        
 
 Vector   30  Occ=0.000000D+00  E= 2.475685D-01
              MO Center=  5.4D-01,  1.6D-02, -1.0D-01, r^2= 5.9D+00
   Bfn.  Coefficient  Atom+Function         Bfn.  Coefficient  Atom+Function  
  ----- ------------  ---------------      ----- ------------  ---------------
    67      6.015991   3 C  s                43      4.165378   2 C  px        
    75     -2.998578   3 C  py               44     -2.617310   2 C  py        
    36     -2.119692   2 C  s               107     -2.098075   4 C  pz        
   157     -1.946387  10 H  s                45     -1.506009   2 C  pz        
    98     -1.319166   4 C  s               105     -1.203751   4 C  px        
 
 Vector   31  Occ=0.000000D+00  E= 2.681789D-01
              MO Center=  2.8D-01, -1.5D-01,  2.6D-01, r^2= 5.6D+00
   Bfn.  Coefficient  Atom+Function         Bfn.  Coefficient  Atom+Function  
  ----- ------------  ---------------      ----- ------------  ---------------
    36      4.391997   2 C  s                 5     -2.247669   1 O  s         
    67      2.126353   3 C  s                43     -1.653430   2 C  px        
   105      1.549062   4 C  px               98     -1.353607   4 C  s         
    66     -1.185529   3 C  s               139     -0.949236   7 H  s         
   133     -0.935013   6 H  s               106     -0.811323   4 C  py        
 
 Vector   32  Occ=0.000000D+00  E= 2.777939D-01
              MO Center=  4.1D-01,  3.3D-01,  3.0D-01, r^2= 4.2D+00
   Bfn.  Coefficient  Atom+Function         Bfn.  Coefficient  Atom+Function  
  ----- ------------  ---------------      ----- ------------  ---------------
    36      2.442534   2 C  s                 5     -1.712426   1 O  s         
    67     -1.590459   3 C  s                43     -1.211332   2 C  px        
    74     -0.722494   3 C  px               45     -0.621513   2 C  pz        
    98     -0.597080   4 C  s               145      0.554469   8 H  s         
     4      0.493290   1 O  s               157     -0.454863  10 H  s         
 
 Vector   33  Occ=0.000000D+00  E= 3.011250D-01
              MO Center=  4.5D-01,  3.5D-01, -3.9D-01, r^2= 5.0D+00
   Bfn.  Coefficient  Atom+Function         Bfn.  Coefficient  Atom+Function  
  ----- ------------  ---------------      ----- ------------  ---------------
    43      1.839901   2 C  px               98     -1.811850   4 C  s         
   106      1.760924   4 C  py              151      1.704531   9 H  s         
    76      1.365818   3 C  pz               36     -1.221109   2 C  s         
    44     -1.217102   2 C  py               66      1.043108   3 C  s         
   107     -1.011591   4 C  pz              139      0.946541   7 H  s         
 
 Vector   34  Occ=0.000000D+00  E= 3.372067D-01
              MO Center=  1.1D-01,  4.2D-01, -4.1D-01, r^2= 5.8D+00
   Bfn.  Coefficient  Atom+Function         Bfn.  Coefficient  Atom+Function  
  ----- ------------  ---------------      ----- ------------  ---------------
    67      4.503585   3 C  s                76     -3.978807   3 C  pz        
   139     -3.139970   7 H  s                36     -2.272840   2 C  s         
   133      2.039610   6 H  s               157     -1.871594  10 H  s         
   107     -1.813087   4 C  pz               98      1.621895   4 C  s         
    43      1.405753   2 C  px               44     -1.138036   2 C  py        
 
 Vector   35  Occ=0.000000D+00  E= 3.616556D-01
              MO Center=  8.3D-01, -2.5D-02, -2.9D-01, r^2= 6.7D+00
   Bfn.  Coefficient  Atom+Function         Bfn.  Coefficient  Atom+Function  
  ----- ------------  ---------------      ----- ------------  ---------------
    98      6.978680   4 C  s               145     -3.210671   8 H  s         
    76      3.185847   3 C  pz               97     -2.938886   4 C  s         
    36      2.389065   2 C  s               133     -2.197919   6 H  s         
    67     -1.816611   3 C  s               151     -1.771430   9 H  s         
   139      1.688618   7 H  s                44      1.499095   2 C  py        
 
 Vector   36  Occ=0.000000D+00  E= 3.713383D-01
              MO Center=  6.0D-01,  1.8D-01, -8.8D-02, r^2= 6.5D+00
   Bfn.  Coefficient  Atom+Function         Bfn.  Coefficient  Atom+Function  
  ----- ------------  ---------------      ----- ------------  ---------------
    36     12.139874   2 C  s                98     -9.129526   4 C  s         
    67     -7.883606   3 C  s               127     -3.204054   5 H  s         
    97      2.672676   4 C  s               157      2.345543  10 H  s         
   151      1.808354   9 H  s                35     -1.767795   2 C  s         
    44      1.706216   2 C  py              145      1.520847   8 H  s         
 
 Vector   37  Occ=0.000000D+00  E= 3.848469D-01
              MO Center=  8.3D-01, -3.2D-01, -6.5D-02, r^2= 6.1D+00
   Bfn.  Coefficient  Atom+Function         Bfn.  Coefficient  Atom+Function  
  ----- ------------  ---------------      ----- ------------  ---------------
    36      5.869403   2 C  s                98      4.085855   4 C  s         
   127     -4.089093   5 H  s                45      3.141167   2 C  pz        
    67     -2.625546   3 C  s                76     -2.239211   3 C  pz        
    35     -2.214625   2 C  s               151     -2.173978   9 H  s         
   133      1.848578   6 H  s               145     -1.845964   8 H  s         
 
 Vector   38  Occ=0.000000D+00  E= 3.956322D-01
              MO Center=  3.0D-01,  2.7D-01,  9.2D-02, r^2= 6.4D+00
   Bfn.  Coefficient  Atom+Function         Bfn.  Coefficient  Atom+Function  
  ----- ------------  ---------------      ----- ------------  ---------------
    98     11.052736   4 C  s                67     -7.556331   3 C  s         
    45      4.258420   2 C  pz               44      2.990295   2 C  py        
   133      2.754841   6 H  s                76     -2.658161   3 C  pz        
    43     -2.382368   2 C  px              157     -2.347717  10 H  s         
    75      1.992358   3 C  py               97     -1.783407   4 C  s         
 
 Vector   39  Occ=0.000000D+00  E= 4.013266D-01
              MO Center= -3.5D-01,  8.9D-02,  9.6D-02, r^2= 6.3D+00
   Bfn.  Coefficient  Atom+Function         Bfn.  Coefficient  Atom+Function  
  ----- ------------  ---------------      ----- ------------  ---------------
    36     12.530899   2 C  s                67    -11.736951   3 C  s         
    98     -6.510066   4 C  s                45     -5.633184   2 C  pz        
    44      3.683234   2 C  py              127      2.787811   5 H  s         
    66      2.650749   3 C  s               139      2.643101   7 H  s         
   105      2.370850   4 C  px               43     -2.219130   2 C  px        
 
 Vector   40  Occ=0.000000D+00  E= 4.144012D-01
              MO Center=  1.0D+00, -6.3D-01, -1.0D+00, r^2= 5.3D+00
   Bfn.  Coefficient  Atom+Function         Bfn.  Coefficient  Atom+Function  
  ----- ------------  ---------------      ----- ------------  ---------------
    98      8.661738   4 C  s                36     -5.782787   2 C  s         
    45      3.493088   2 C  pz              151     -2.891354   9 H  s         
   105     -2.849372   4 C  px              157     -2.074050  10 H  s         
   145      1.816776   8 H  s                97     -1.289941   4 C  s         
    35      1.089099   2 C  s               127     -0.978770   5 H  s         
 
 Vector   41  Occ=0.000000D+00  E= 4.271929D-01
              MO Center=  2.9D-01,  5.1D-01,  4.2D-02, r^2= 6.4D+00
   Bfn.  Coefficient  Atom+Function         Bfn.  Coefficient  Atom+Function  
  ----- ------------  ---------------      ----- ------------  ---------------
    36      8.040276   2 C  s                67     -4.766808   3 C  s         
    44      2.861820   2 C  py               75      2.824897   3 C  py        
    43     -1.925946   2 C  px              151      1.720159   9 H  s         
    74     -1.549144   3 C  px               98     -1.544895   4 C  s         
   132      1.435820   6 H  s               133     -1.442640   6 H  s         
 
 Vector   42  Occ=0.000000D+00  E= 4.465575D-01
              MO Center=  6.3D-02, -1.4D-01, -1.8D-01, r^2= 6.0D+00
   Bfn.  Coefficient  Atom+Function         Bfn.  Coefficient  Atom+Function  
  ----- ------------  ---------------      ----- ------------  ---------------
    98    -10.284054   4 C  s                36     10.205153   2 C  s         
    45     -6.075571   2 C  pz               76      2.813451   3 C  pz        
   127      2.816327   5 H  s                67     -2.763249   3 C  s         
   157      2.274923  10 H  s               106     -2.078893   4 C  py        
    35     -2.049042   2 C  s               133     -2.049174   6 H  s         
 
 Vector   43  Occ=0.000000D+00  E= 4.594096D-01
              MO Center=  3.4D-02,  8.9D-01, -5.1D-01, r^2= 5.0D+00
   Bfn.  Coefficient  Atom+Function         Bfn.  Coefficient  Atom+Function  
  ----- ------------  ---------------      ----- ------------  ---------------
   139      3.000215   7 H  s               157     -2.748536  10 H  s         
    75     -2.112742   3 C  py               36     -1.964523   2 C  s         
    98      1.818763   4 C  s               107     -1.812426   4 C  pz        
    44     -1.622211   2 C  py               43      1.553341   2 C  px        
   138     -1.508177   7 H  s                73     -0.820406   3 C  pz        
 
 Vector   44  Occ=0.000000D+00  E= 4.686752D-01
              MO Center=  5.4D-01,  9.3D-02, -1.5D-01, r^2= 5.7D+00
   Bfn.  Coefficient  Atom+Function         Bfn.  Coefficient  Atom+Function  
  ----- ------------  ---------------      ----- ------------  ---------------
    36      3.665489   2 C  s                98     -3.214121   4 C  s         
    45     -1.700926   2 C  pz               67     -1.558552   3 C  s         
   157     -1.528018  10 H  s               145      1.516903   8 H  s         
   133      1.509093   6 H  s               107     -1.497848   4 C  pz        
    35     -1.161981   2 C  s               132     -1.050966   6 H  s         
 
 Vector   45  Occ=0.000000D+00  E= 5.090594D-01
              MO Center=  8.1D-01, -3.4D-01, -9.0D-01, r^2= 4.9D+00
   Bfn.  Coefficient  Atom+Function         Bfn.  Coefficient  Atom+Function  
  ----- ------------  ---------------      ----- ------------  ---------------
    98     11.047735   4 C  s                36     -7.337076   2 C  s         
    45      4.439236   2 C  pz              107      3.140359   4 C  pz        
   156     -1.352968  10 H  s               144     -1.251760   8 H  s         
   106      1.234421   4 C  py               14     -1.135371   1 O  pz        
   127     -1.048834   5 H  s                43     -1.031669   2 C  px        
 
 Vector   46  Occ=0.000000D+00  E= 5.375657D-01
              MO Center=  1.6D-01, -4.1D-01, -5.4D-01, r^2= 4.4D+00
   Bfn.  Coefficient  Atom+Function         Bfn.  Coefficient  Atom+Function  
  ----- ------------  ---------------      ----- ------------  ---------------
    98     -7.632293   4 C  s                36      7.183858   2 C  s         
    45     -3.831244   2 C  pz               76      3.222144   3 C  pz        
   133     -1.747782   6 H  s               107     -1.643664   4 C  pz        
   105      1.506824   4 C  px              139      1.492133   7 H  s         
     5     -1.173529   1 O  s                14     -1.096964   1 O  pz        
 
 Vector   47  Occ=0.000000D+00  E= 6.578343D-01
              MO Center= -3.9D-01,  3.6D-02, -2.0D-02, r^2= 4.3D+00
   Bfn.  Coefficient  Atom+Function         Bfn.  Coefficient  Atom+Function  
  ----- ------------  ---------------      ----- ------------  ---------------
    36     11.754021   2 C  s                67     -9.067493   3 C  s         
    98     -4.197291   4 C  s                43     -2.616282   2 C  px        
    75      2.464365   3 C  py               13      2.243822   1 O  py        
    76      2.084533   3 C  pz              105      1.601793   4 C  px        
   139      1.524875   7 H  s                44      1.494278   2 C  py        
 
 Vector   48  Occ=0.000000D+00  E= 6.740849D-01
              MO Center= -2.7D-01,  3.5D-01,  1.2D-01, r^2= 3.9D+00
   Bfn.  Coefficient  Atom+Function         Bfn.  Coefficient  Atom+Function  
  ----- ------------  ---------------      ----- ------------  ---------------
    36      7.864896   2 C  s                67     -7.688800   3 C  s         
     5      3.015343   1 O  s                75      2.522227   3 C  py        
    13      2.074402   1 O  py               98     -2.071759   4 C  s         
    45     -1.207007   2 C  pz               43     -1.187049   2 C  px        
     4     -1.113826   1 O  s                44      0.912349   2 C  py        
 
 Vector   49  Occ=0.000000D+00  E= 7.070448D-01
              MO Center=  1.6D-01, -3.1D-01, -2.6D-01, r^2= 4.5D+00
   Bfn.  Coefficient  Atom+Function         Bfn.  Coefficient  Atom+Function  
  ----- ------------  ---------------      ----- ------------  ---------------
    67      9.530011   3 C  s                36     -7.404243   2 C  s         
    43      3.669096   2 C  px               44     -3.483895   2 C  py        
    75     -2.763551   3 C  py               98     -2.429011   4 C  s         
     5      2.239023   1 O  s                12      1.687859   1 O  px        
   106      1.655103   4 C  py               13     -1.328484   1 O  py        
 
 Vector   50  Occ=0.000000D+00  E= 7.605148D-01
              MO Center=  6.3D-01, -6.7D-03, -3.4D-01, r^2= 4.0D+00
   Bfn.  Coefficient  Atom+Function         Bfn.  Coefficient  Atom+Function  
  ----- ------------  ---------------      ----- ------------  ---------------
    45      2.469677   2 C  pz              127     -1.681309   5 H  s         
   105     -1.659182   4 C  px               43      1.455413   2 C  px        
     5     -1.405115   1 O  s                36      1.338684   2 C  s         
   126     -1.298136   5 H  s               144      1.227196   8 H  s         
    76     -1.057493   3 C  pz               66      0.993452   3 C  s         
 
 Vector   51  Occ=0.000000D+00  E= 7.945459D-01
              MO Center=  2.7D-01,  4.7D-02, -1.9D-01, r^2= 4.4D+00
   Bfn.  Coefficient  Atom+Function         Bfn.  Coefficient  Atom+Function  
  ----- ------------  ---------------      ----- ------------  ---------------
     5      4.130036   1 O  s                36     -2.779364   2 C  s         
    76     -2.515371   3 C  pz                4     -1.615784   1 O  s         
    45      1.524597   2 C  pz               12      1.359830   1 O  px        
   133      1.330052   6 H  s                43      1.217195   2 C  px        
    66     -1.066182   3 C  s                35     -1.038436   2 C  s         
 
 Vector   52  Occ=0.000000D+00  E= 8.323518D-01
              MO Center=  3.2D-01,  1.7D-01, -4.1D-03, r^2= 4.4D+00
   Bfn.  Coefficient  Atom+Function         Bfn.  Coefficient  Atom+Function  
  ----- ------------  ---------------      ----- ------------  ---------------
    36      6.700841   2 C  s                98     -4.163596   4 C  s         
     5     -3.980724   1 O  s                43     -2.589060   2 C  px        
   105      1.956087   4 C  px               35     -1.844402   2 C  s         
    45     -1.778825   2 C  pz               44      1.484299   2 C  py        
    66     -1.162249   3 C  s                97      1.078489   4 C  s         
 
 Vector   53  Occ=0.000000D+00  E= 8.540252D-01
              MO Center=  6.0D-01,  1.3D-01, -4.0D-01, r^2= 4.2D+00
   Bfn.  Coefficient  Atom+Function         Bfn.  Coefficient  Atom+Function  
  ----- ------------  ---------------      ----- ------------  ---------------
    98     -4.776200   4 C  s                36      4.731270   2 C  s         
    45     -4.579525   2 C  pz               76      2.046232   3 C  pz        
   127      1.765002   5 H  s               106     -1.578344   4 C  py        
    44      1.480262   2 C  py              105      1.376066   4 C  px        
   150     -1.177438   9 H  s               132     -1.069432   6 H  s         
 
 Vector   54  Occ=0.000000D+00  E= 8.713871D-01
              MO Center=  1.8D-01, -4.2D-02, -1.2D-01, r^2= 4.2D+00
   Bfn.  Coefficient  Atom+Function         Bfn.  Coefficient  Atom+Function  
  ----- ------------  ---------------      ----- ------------  ---------------
     5      4.585883   1 O  s                36     -1.677764   2 C  s         
     4     -1.554275   1 O  s               138      1.420525   7 H  s         
    76      1.351484   3 C  pz               67     -1.239556   3 C  s         
    12      1.185652   1 O  px               66     -1.143650   3 C  s         
    98     -0.999990   4 C  s                97      0.876737   4 C  s         
 
 Vector   55  Occ=0.000000D+00  E= 9.201382D-01
              MO Center=  5.0D-01,  3.1D-01, -4.8D-01, r^2= 4.6D+00
   Bfn.  Coefficient  Atom+Function         Bfn.  Coefficient  Atom+Function  
  ----- ------------  ---------------      ----- ------------  ---------------
    35      4.951978   2 C  s                36     -1.720530   2 C  s         
    67      1.467214   3 C  s               132     -1.330745   6 H  s         
    72      1.295739   3 C  py               66     -1.263846   3 C  s         
   156     -1.252174  10 H  s                84      1.167833   3 C  d  0      
    41      1.159107   2 C  py              116     -1.094338   4 C  d  1      
 
 Vector   56  Occ=0.000000D+00  E= 9.614044D-01
              MO Center=  4.5D-01,  3.0D-01, -5.3D-01, r^2= 4.7D+00
   Bfn.  Coefficient  Atom+Function         Bfn.  Coefficient  Atom+Function  
  ----- ------------  ---------------      ----- ------------  ---------------
    35      4.191540   2 C  s                67      2.554836   3 C  s         
   138     -2.347832   7 H  s                76     -1.810095   3 C  pz        
    42     -1.750060   2 C  pz               83     -1.649968   3 C  d -1      
    36     -1.480868   2 C  s               115     -1.467224   4 C  d  0      
    98     -1.372324   4 C  s               132      1.376428   6 H  s         
 
 Vector   57  Occ=0.000000D+00  E= 9.920751D-01
              MO Center=  3.3D-01,  5.0D-01, -1.2D-01, r^2= 4.1D+00
   Bfn.  Coefficient  Atom+Function         Bfn.  Coefficient  Atom+Function  
  ----- ------------  ---------------      ----- ------------  ---------------
    36      7.472346   2 C  s                98     -4.902107   4 C  s         
    67     -3.889758   3 C  s                45     -3.726609   2 C  pz        
    43     -2.294853   2 C  px               44      2.107842   2 C  py        
    66     -1.568178   3 C  s               127      1.524653   5 H  s         
    75      1.431259   3 C  py               35     -1.300255   2 C  s         
 
 Vector   58  Occ=0.000000D+00  E= 1.012397D+00
              MO Center=  3.9D-01,  5.3D-01, -6.7D-02, r^2= 4.3D+00
   Bfn.  Coefficient  Atom+Function         Bfn.  Coefficient  Atom+Function  
  ----- ------------  ---------------      ----- ------------  ---------------
    36      5.655265   2 C  s                67     -4.573891   3 C  s         
    45     -2.210189   2 C  pz               44      1.882284   2 C  py        
    98     -1.780466   4 C  s               156     -1.596606  10 H  s         
    43     -1.353137   2 C  px               74     -1.332488   3 C  px        
    82      1.331005   3 C  d -2            144      1.335494   8 H  s         
 
 Vector   59  Occ=0.000000D+00  E= 1.041231D+00
              MO Center=  7.0D-01, -1.6D-01, -4.6D-01, r^2= 4.2D+00
   Bfn.  Coefficient  Atom+Function         Bfn.  Coefficient  Atom+Function  
  ----- ------------  ---------------      ----- ------------  ---------------
    35      2.708158   2 C  s                36      2.721353   2 C  s         
    66     -2.346250   3 C  s               150      1.906276   9 H  s         
     5     -1.888171   1 O  s               144     -1.865232   8 H  s         
   117      1.706105   4 C  d  2             41      1.531217   2 C  py        
    44      1.374901   2 C  py               67     -1.321177   3 C  s         
 
 Vector   60  Occ=0.000000D+00  E= 1.078611D+00
              MO Center=  6.7D-01,  1.5D-02, -6.6D-02, r^2= 4.1D+00
   Bfn.  Coefficient  Atom+Function         Bfn.  Coefficient  Atom+Function  
  ----- ------------  ---------------      ----- ------------  ---------------
    66     -4.047767   3 C  s                98      4.002199   4 C  s         
    45      3.697329   2 C  pz               97      3.625186   4 C  s         
    36     -3.177172   2 C  s                41      2.574845   2 C  py        
   104      2.549871   4 C  pz               42      2.358304   2 C  pz        
    72      2.349511   3 C  py               53     -2.228445   2 C  d  0      
 
 Vector   61  Occ=0.000000D+00  E= 1.105487D+00
              MO Center=  3.6D-01,  7.1D-02,  6.6D-02, r^2= 3.8D+00
   Bfn.  Coefficient  Atom+Function         Bfn.  Coefficient  Atom+Function  
  ----- ------------  ---------------      ----- ------------  ---------------
    36      7.649783   2 C  s                67     -5.335992   3 C  s         
    98     -3.056751   4 C  s                66      2.170402   3 C  s         
    45     -1.966147   2 C  pz              126     -1.974167   5 H  s         
   132      1.693280   6 H  s                72     -1.614391   3 C  py        
    41     -1.482763   2 C  py               53      1.463006   2 C  d  0      
 
 Vector   62  Occ=0.000000D+00  E= 1.147487D+00
              MO Center=  6.3D-01,  4.7D-04, -3.9D-02, r^2= 3.5D+00
   Bfn.  Coefficient  Atom+Function         Bfn.  Coefficient  Atom+Function  
  ----- ------------  ---------------      ----- ------------  ---------------
    67      5.065333   3 C  s                36     -3.857364   2 C  s         
    44     -2.365328   2 C  py               97     -1.828687   4 C  s         
   126      1.757757   5 H  s                54      1.567069   2 C  d  1      
    43      1.527095   2 C  px               55      1.489905   2 C  d  2      
    42     -1.399505   2 C  pz               75     -1.406072   3 C  py        
 
 Vector   63  Occ=0.000000D+00  E= 1.215184D+00
              MO Center=  5.6D-01,  2.0D-01, -1.5D-01, r^2= 3.8D+00
   Bfn.  Coefficient  Atom+Function         Bfn.  Coefficient  Atom+Function  
  ----- ------------  ---------------      ----- ------------  ---------------
    36      6.794373   2 C  s                66     -5.046124   3 C  s         
    97     -3.482281   4 C  s                67     -3.331124   3 C  s         
    35      3.190596   2 C  s                72      1.935458   3 C  py        
    51     -1.772737   2 C  d -2             52      1.683625   2 C  d -1      
   138      1.647847   7 H  s                41      1.501871   2 C  py        
 
 Vector   64  Occ=0.000000D+00  E= 1.348373D+00
              MO Center=  3.5D-01,  5.4D-01,  2.2D-01, r^2= 3.6D+00
   Bfn.  Coefficient  Atom+Function         Bfn.  Coefficient  Atom+Function  
  ----- ------------  ---------------      ----- ------------  ---------------
    66      4.696739   3 C  s                35      3.832500   2 C  s         
    67     -3.181658   3 C  s                36     -2.499165   2 C  s         
    65     -2.411451   3 C  s               132     -2.068714   6 H  s         
   133      1.439672   6 H  s                34     -1.407043   2 C  s         
    72      1.370553   3 C  py              139      1.081354   7 H  s         
 
 Vector   65  Occ=0.000000D+00  E= 1.416420D+00
              MO Center=  1.4D-01,  5.3D-01, -1.0D-01, r^2= 3.4D+00
   Bfn.  Coefficient  Atom+Function         Bfn.  Coefficient  Atom+Function  
  ----- ------------  ---------------      ----- ------------  ---------------
    36     -3.836914   2 C  s                66     -3.817515   3 C  s         
    67      3.801731   3 C  s                35      3.608423   2 C  s         
    73      2.309481   3 C  pz              138      2.209433   7 H  s         
   139     -2.192084   7 H  s                76     -1.733801   3 C  pz        
    97      1.716773   4 C  s                65      1.537183   3 C  s         
 
 Vector   66  Occ=0.000000D+00  E= 1.433883D+00
              MO Center=  1.0D+00, -4.2D-01, -1.1D+00, r^2= 3.6D+00
   Bfn.  Coefficient  Atom+Function         Bfn.  Coefficient  Atom+Function  
  ----- ------------  ---------------      ----- ------------  ---------------
    98     10.082228   4 C  s                97     -7.437936   4 C  s         
    36     -3.206758   2 C  s                96      2.995673   4 C  s         
   157     -2.406261  10 H  s               145     -2.171462   8 H  s         
   151     -2.160960   9 H  s               156      1.814094  10 H  s         
   104      1.724502   4 C  pz              144      1.479228   8 H  s         
 
 Vector   67  Occ=0.000000D+00  E= 1.445257D+00
              MO Center=  2.7D-01,  2.5D-02,  1.1D-01, r^2= 4.0D+00
   Bfn.  Coefficient  Atom+Function         Bfn.  Coefficient  Atom+Function  
  ----- ------------  ---------------      ----- ------------  ---------------
    66      4.293962   3 C  s                98      4.267814   4 C  s         
    35     -3.465099   2 C  s                67     -2.643179   3 C  s         
    45      2.449288   2 C  pz              133      2.126319   6 H  s         
    76     -2.026290   3 C  pz               97     -1.905431   4 C  s         
   127     -1.908446   5 H  s               132     -1.619845   6 H  s         
 
 Vector   68  Occ=0.000000D+00  E= 1.447700D+00
              MO Center=  3.5D-01,  3.3D-02, -2.7D-01, r^2= 3.2D+00
   Bfn.  Coefficient  Atom+Function         Bfn.  Coefficient  Atom+Function  
  ----- ------------  ---------------      ----- ------------  ---------------
    98      4.236651   4 C  s                36     -3.184902   2 C  s         
    97     -2.525668   4 C  s                 5      2.201874   1 O  s         
    66     -1.657599   3 C  s                67      1.614257   3 C  s         
    45      1.279548   2 C  pz               96      1.052339   4 C  s         
    44     -1.031542   2 C  py               40      0.986388   2 C  px        
 
 Vector   69  Occ=0.000000D+00  E= 1.473321D+00
              MO Center=  1.0D+00, -3.1D-01, -1.0D+00, r^2= 3.4D+00
   Bfn.  Coefficient  Atom+Function         Bfn.  Coefficient  Atom+Function  
  ----- ------------  ---------------      ----- ------------  ---------------
    66      1.999859   3 C  s                36      1.369788   2 C  s         
    67     -1.312378   3 C  s                 5     -1.153307   1 O  s         
   103      1.018106   4 C  py               71     -0.907201   3 C  px        
    98     -0.892000   4 C  s                65     -0.873656   3 C  s         
    97      0.797923   4 C  s               133      0.794881   6 H  s         
 
 Vector   70  Occ=0.000000D+00  E= 1.475159D+00
              MO Center=  1.0D+00, -4.7D-01, -1.0D+00, r^2= 3.2D+00
   Bfn.  Coefficient  Atom+Function         Bfn.  Coefficient  Atom+Function  
  ----- ------------  ---------------      ----- ------------  ---------------
    36      2.925075   2 C  s               156     -2.771539  10 H  s         
   102     -2.146849   4 C  px              157      1.939489  10 H  s         
   103      1.805000   4 C  py              104     -1.746110   4 C  pz        
    35     -1.699512   2 C  s               126      1.609650   5 H  s         
   144      1.367763   8 H  s                66     -1.318553   3 C  s         
 
 Vector   71  Occ=0.000000D+00  E= 1.513828D+00
              MO Center=  3.2D-01,  1.6D-01, -3.3D-01, r^2= 3.9D+00
   Bfn.  Coefficient  Atom+Function         Bfn.  Coefficient  Atom+Function  
  ----- ------------  ---------------      ----- ------------  ---------------
    98      2.690865   4 C  s               144      1.773040   8 H  s         
   102     -1.517861   4 C  px              145     -1.354989   8 H  s         
    45      1.315022   2 C  pz              103     -1.257238   4 C  py        
    97     -1.162205   4 C  s                36     -1.077893   2 C  s         
   150     -0.870327   9 H  s               106      0.746157   4 C  py        
 
 Vector   72  Occ=0.000000D+00  E= 1.542532D+00
              MO Center=  3.6D-01,  4.5D-01, -2.2D-01, r^2= 4.6D+00
   Bfn.  Coefficient  Atom+Function         Bfn.  Coefficient  Atom+Function  
  ----- ------------  ---------------      ----- ------------  ---------------
    36      4.294402   2 C  s                35     -3.585753   2 C  s         
    98     -3.582818   4 C  s                97      3.150796   4 C  s         
    67     -2.452354   3 C  s                73      2.163583   3 C  pz        
   132     -1.751330   6 H  s               133      1.441697   6 H  s         
   102     -1.403352   4 C  px              138      1.365321   7 H  s         
 
 Vector   73  Occ=0.000000D+00  E= 1.576657D+00
              MO Center=  5.0D-01, -3.1D-02, -5.9D-02, r^2= 3.2D+00
   Bfn.  Coefficient  Atom+Function         Bfn.  Coefficient  Atom+Function  
  ----- ------------  ---------------      ----- ------------  ---------------
    35      3.474033   2 C  s                36     -2.808590   2 C  s         
    40     -2.118354   2 C  px               97     -1.912867   4 C  s         
    67      1.827212   3 C  s               126      1.801838   5 H  s         
    72      1.662428   3 C  py               34     -1.423447   2 C  s         
    42     -1.429266   2 C  pz               45      1.352490   2 C  pz        
 
 Vector   74  Occ=0.000000D+00  E= 1.597488D+00
              MO Center=  3.6D-01,  3.6D-01, -1.7D-01, r^2= 3.4D+00
   Bfn.  Coefficient  Atom+Function         Bfn.  Coefficient  Atom+Function  
  ----- ------------  ---------------      ----- ------------  ---------------
    66     -5.433608   3 C  s                36     -5.292374   2 C  s         
    35      5.171058   2 C  s                67      3.997052   3 C  s         
    41      3.788860   2 C  py               71     -2.572711   3 C  px        
    72      2.469218   3 C  py               40     -2.078646   2 C  px        
    98      1.819111   4 C  s                82      1.679199   3 C  d -2      
 
 Vector   75  Occ=0.000000D+00  E= 1.639945D+00
              MO Center=  4.7D-01,  1.9D-01, -2.0D-02, r^2= 3.7D+00
   Bfn.  Coefficient  Atom+Function         Bfn.  Coefficient  Atom+Function  
  ----- ------------  ---------------      ----- ------------  ---------------
    66      2.567400   3 C  s                35      2.355001   2 C  s         
    98      2.065438   4 C  s                 5     -1.775964   1 O  s         
    97     -1.717416   4 C  s                67     -1.277139   3 C  s         
   104     -1.146046   4 C  pz              144      1.107588   8 H  s         
   103     -1.022347   4 C  py              150     -1.000180   9 H  s         
 
 Vector   76  Occ=0.000000D+00  E= 1.693364D+00
              MO Center=  6.1D-01,  2.4D-02, -4.3D-01, r^2= 3.5D+00
   Bfn.  Coefficient  Atom+Function         Bfn.  Coefficient  Atom+Function  
  ----- ------------  ---------------      ----- ------------  ---------------
    97     -5.225499   4 C  s                35      5.014324   2 C  s         
   104     -2.590466   4 C  pz               42     -2.566460   2 C  pz        
   102      1.879790   4 C  px               66     -1.860223   3 C  s         
    40      1.588512   2 C  px               34     -1.439076   2 C  s         
    96      1.439692   4 C  s                67      1.091933   3 C  s         
 
 Vector   77  Occ=0.000000D+00  E= 1.701181D+00
              MO Center= -9.7D-02,  3.9D-01, -5.9D-02, r^2= 3.7D+00
   Bfn.  Coefficient  Atom+Function         Bfn.  Coefficient  Atom+Function  
  ----- ------------  ---------------      ----- ------------  ---------------
     5      3.973257   1 O  s                72      3.458516   3 C  py        
    97      2.642056   4 C  s                36     -2.462613   2 C  s         
   138     -2.055559   7 H  s                42      1.949131   2 C  pz        
    66     -1.781206   3 C  s               104      1.738482   4 C  pz        
    35     -1.717593   2 C  s                12      1.524606   1 O  px        
 
 Vector   78  Occ=0.000000D+00  E= 1.786743D+00
              MO Center=  4.0D-01,  2.5D-01,  3.3D-02, r^2= 3.5D+00
   Bfn.  Coefficient  Atom+Function         Bfn.  Coefficient  Atom+Function  
  ----- ------------  ---------------      ----- ------------  ---------------
    35      3.038563   2 C  s                97     -2.810057   4 C  s         
    36      1.763281   2 C  s                45     -1.321160   2 C  pz        
   104     -1.149879   4 C  pz               67     -1.121404   3 C  s         
    42     -1.054660   2 C  pz               72      1.021713   3 C  py        
   102      0.938723   4 C  px               96      0.895961   4 C  s         
 
 Vector   79  Occ=0.000000D+00  E= 1.815345D+00
              MO Center= -6.4D-01,  1.9D-01,  1.9D-01, r^2= 2.5D+00
   Bfn.  Coefficient  Atom+Function         Bfn.  Coefficient  Atom+Function  
  ----- ------------  ---------------      ----- ------------  ---------------
    35      4.210580   2 C  s                 5     -3.316045   1 O  s         
    40     -2.451510   2 C  px               41      2.117246   2 C  py        
    72      2.023176   3 C  py               66     -1.815580   3 C  s         
    71     -1.689940   3 C  px               12     -1.384210   1 O  px        
   132     -1.064466   6 H  s               138     -1.041611   7 H  s         
 
 Vector   80  Occ=0.000000D+00  E= 1.842362D+00
              MO Center=  7.8D-02,  2.7D-01, -8.2D-02, r^2= 3.7D+00
   Bfn.  Coefficient  Atom+Function         Bfn.  Coefficient  Atom+Function  
  ----- ------------  ---------------      ----- ------------  ---------------
    35      1.506880   2 C  s                36     -1.159871   2 C  s         
   156     -1.052273  10 H  s               104     -0.799018   4 C  pz        
   157      0.697854  10 H  s                41     -0.686776   2 C  py        
    71     -0.685536   3 C  px               66      0.659346   3 C  s         
    67      0.620004   3 C  s               126     -0.602616   5 H  s         
 
 Vector   81  Occ=0.000000D+00  E= 1.869358D+00
              MO Center=  5.5D-01,  1.5D-01, -4.4D-01, r^2= 4.0D+00
   Bfn.  Coefficient  Atom+Function         Bfn.  Coefficient  Atom+Function  
  ----- ------------  ---------------      ----- ------------  ---------------
    35      6.497525   2 C  s                66     -4.245657   3 C  s         
    72      3.388483   3 C  py               97     -3.189067   4 C  s         
    36      2.139943   2 C  s               104     -1.924177   4 C  pz        
    34     -1.613831   2 C  s                67     -1.547167   3 C  s         
    41      1.474893   2 C  py               45     -1.304426   2 C  pz        
 
 Vector   82  Occ=0.000000D+00  E= 1.919386D+00
              MO Center=  3.2D-01, -1.5D-01, -3.0D-01, r^2= 3.2D+00
   Bfn.  Coefficient  Atom+Function         Bfn.  Coefficient  Atom+Function  
  ----- ------------  ---------------      ----- ------------  ---------------
    36      1.464498   2 C  s                98     -1.434171   4 C  s         
    45     -1.270118   2 C  pz               97     -1.268417   4 C  s         
   103     -1.198425   4 C  py               35      1.137360   2 C  s         
    66     -0.925531   3 C  s                42     -0.813948   2 C  pz        
    41      0.800894   2 C  py              150     -0.706381   9 H  s         
 
 Vector   83  Occ=0.000000D+00  E= 1.991561D+00
              MO Center=  1.0D+00, -3.5D-01, -8.3D-01, r^2= 3.3D+00
   Bfn.  Coefficient  Atom+Function         Bfn.  Coefficient  Atom+Function  
  ----- ------------  ---------------      ----- ------------  ---------------
    98      5.033350   4 C  s                35      3.864344   2 C  s         
    36     -3.671138   2 C  s                66     -2.510372   3 C  s         
    72      1.705396   3 C  py               40     -1.570906   2 C  px        
    41      1.551336   2 C  py              107      1.524384   4 C  pz        
    45      1.275400   2 C  pz               34     -1.264559   2 C  s         
 
 Vector   84  Occ=0.000000D+00  E= 1.993513D+00
              MO Center=  4.3D-01,  3.0D-02, -2.7D-01, r^2= 3.2D+00
   Bfn.  Coefficient  Atom+Function         Bfn.  Coefficient  Atom+Function  
  ----- ------------  ---------------      ----- ------------  ---------------
    36      2.778980   2 C  s                67     -2.060078   3 C  s         
    40     -1.670429   2 C  px               45     -1.622046   2 C  pz        
     5     -1.255104   1 O  s                66     -1.173258   3 C  s         
    43     -1.130947   2 C  px               98     -1.131093   4 C  s         
    44      1.063909   2 C  py               71     -1.038429   3 C  px        
 
 Vector   85  Occ=0.000000D+00  E= 2.087837D+00
              MO Center= -3.6D-02,  1.5D-01, -1.3D-02, r^2= 3.5D+00
   Bfn.  Coefficient  Atom+Function         Bfn.  Coefficient  Atom+Function  
  ----- ------------  ---------------      ----- ------------  ---------------
    36      2.589361   2 C  s                98     -2.262480   4 C  s         
   156      0.752686  10 H  s                67     -0.737413   3 C  s         
   138     -0.738113   7 H  s                35     -0.640610   2 C  s         
    14     -0.611273   1 O  pz               45     -0.552360   2 C  pz        
    40     -0.533285   2 C  px              144      0.529254   8 H  s         
 
 Vector   86  Occ=0.000000D+00  E= 2.096684D+00
              MO Center= -3.6D-01,  5.9D-02,  5.3D-02, r^2= 3.0D+00
   Bfn.  Coefficient  Atom+Function         Bfn.  Coefficient  Atom+Function  
  ----- ------------  ---------------      ----- ------------  ---------------
    36      5.673710   2 C  s                67     -5.558778   3 C  s         
    35     -3.343070   2 C  s                66      3.334119   3 C  s         
    41     -3.090854   2 C  py               71      2.763013   3 C  px        
    13      1.849251   1 O  py               82     -1.470291   3 C  d -2      
    55      1.343135   2 C  d  2             75      1.329716   3 C  py        
 
 Vector   87  Occ=0.000000D+00  E= 2.167597D+00
              MO Center=  5.3D-01, -4.7D-02, -5.0D-01, r^2= 3.2D+00
   Bfn.  Coefficient  Atom+Function         Bfn.  Coefficient  Atom+Function  
  ----- ------------  ---------------      ----- ------------  ---------------
    98      2.276702   4 C  s                67     -1.864618   3 C  s         
    35     -1.201304   2 C  s                73      1.023765   3 C  pz        
    40      0.872952   2 C  px               44      0.825038   2 C  py        
    43     -0.815864   2 C  px              156     -0.819076  10 H  s         
    36      0.793845   2 C  s                42     -0.789845   2 C  pz        
 
 Vector   88  Occ=0.000000D+00  E= 2.198185D+00
              MO Center=  3.8D-01,  2.3D-01, -2.5D-01, r^2= 3.7D+00
   Bfn.  Coefficient  Atom+Function         Bfn.  Coefficient  Atom+Function  
  ----- ------------  ---------------      ----- ------------  ---------------
    98      2.227734   4 C  s                36     -1.422944   2 C  s         
    45      1.089408   2 C  pz               76     -0.944102   3 C  pz        
   132      0.814453   6 H  s                42     -0.688997   2 C  pz        
   117     -0.653595   4 C  d  2            103     -0.648490   4 C  py        
   138     -0.612429   7 H  s                97     -0.583909   4 C  s         
 
 Vector   89  Occ=0.000000D+00  E= 2.228606D+00
              MO Center=  7.1D-01, -4.8D-02, -1.3D-01, r^2= 3.6D+00
   Bfn.  Coefficient  Atom+Function         Bfn.  Coefficient  Atom+Function  
  ----- ------------  ---------------      ----- ------------  ---------------
    36      3.113801   2 C  s                67     -1.671630   3 C  s         
    98     -1.205314   4 C  s                 5     -1.106219   1 O  s         
    42     -1.035113   2 C  pz               72     -0.827754   3 C  py        
   102      0.760585   4 C  px               43     -0.727646   2 C  px        
    35     -0.684196   2 C  s                45     -0.681927   2 C  pz        
 
 Vector   90  Occ=0.000000D+00  E= 2.244052D+00
              MO Center=  7.6D-01, -2.6D-01, -7.6D-01, r^2= 3.6D+00
   Bfn.  Coefficient  Atom+Function         Bfn.  Coefficient  Atom+Function  
  ----- ------------  ---------------      ----- ------------  ---------------
   150      1.373211   9 H  s               144     -0.996925   8 H  s         
    66     -0.973642   3 C  s                36      0.836910   2 C  s         
   117      0.836441   4 C  d  2             72      0.803546   3 C  py        
    98     -0.655807   4 C  s                83      0.568939   3 C  d -1      
    67     -0.555541   3 C  s               126      0.530869   5 H  s         
 
 Vector   91  Occ=0.000000D+00  E= 2.265487D+00
              MO Center=  9.1D-01, -2.5D-01, -1.1D+00, r^2= 3.1D+00
   Bfn.  Coefficient  Atom+Function         Bfn.  Coefficient  Atom+Function  
  ----- ------------  ---------------      ----- ------------  ---------------
    66      2.229784   3 C  s                36      2.182723   2 C  s         
    67     -1.502093   3 C  s                41     -1.481879   2 C  py        
    98     -1.349129   4 C  s                35     -1.293378   2 C  s         
    72     -0.974253   3 C  py               71      0.897500   3 C  px        
   126     -0.825282   5 H  s                76      0.810519   3 C  pz        
 
 Vector   92  Occ=0.000000D+00  E= 2.281200D+00
              MO Center=  5.3D-01,  1.1D-01, -2.1D-01, r^2= 3.7D+00
   Bfn.  Coefficient  Atom+Function         Bfn.  Coefficient  Atom+Function  
  ----- ------------  ---------------      ----- ------------  ---------------
    98      3.657973   4 C  s                66      2.485148   3 C  s         
[...]
    21     -0.871016   1 O  d -1             42     -0.806909   2 C  pz        
    97     -0.725950   4 C  s                45     -0.700500   2 C  pz        
    98     -0.525814   4 C  s                67     -0.512598   3 C  s         
     5     -0.508846   1 O  s                83     -0.492924   3 C  d -1      
 
 Vector  154  Occ=0.000000D+00  E= 6.676538D+00
              MO Center= -8.7D-01, -1.8D-01,  2.0D-01, r^2= 5.7D-01
   Bfn.  Coefficient  Atom+Function         Bfn.  Coefficient  Atom+Function  
  ----- ------------  ---------------      ----- ------------  ---------------
    18      1.061820   1 O  d  1             23     -1.036606   1 O  d  1      
    97     -0.876426   4 C  s                42     -0.784571   2 C  pz        
    35      0.761779   2 C  s               102      0.643369   4 C  px        
    54     -0.546687   2 C  d  1             14      0.405525   1 O  pz        
    16     -0.393300   1 O  d -1             11      0.389324   1 O  pz        
 
 Vector  155  Occ=0.000000D+00  E= 6.842036D+00
              MO Center= -8.8D-01, -1.9D-01,  2.0D-01, r^2= 5.9D-01
   Bfn.  Coefficient  Atom+Function         Bfn.  Coefficient  Atom+Function  
  ----- ------------  ---------------      ----- ------------  ---------------
     5      2.110560   1 O  s                40      1.771074   2 C  px        
     9      1.361324   1 O  px               97     -1.290438   4 C  s         
     4      1.204502   1 O  s                20      1.048564   1 O  d -2      
    42     -0.981292   2 C  pz               12      0.846978   1 O  px        
    35     -0.843647   2 C  s                15     -0.833418   1 O  d -2      
 
 Vector  156  Occ=0.000000D+00  E= 7.055415D+00
              MO Center= -8.9D-01, -1.9D-01,  2.0D-01, r^2= 6.4D-01
   Bfn.  Coefficient  Atom+Function         Bfn.  Coefficient  Atom+Function  
  ----- ------------  ---------------      ----- ------------  ---------------
    66     -3.178531   3 C  s                35      3.034568   2 C  s         
    40     -2.722434   2 C  px               72      2.691737   3 C  py        
    24     -1.578568   1 O  d  2             36      1.453354   2 C  s         
    67     -1.293445   3 C  s                10      1.283177   1 O  py        
    19      1.016545   1 O  d  2             13      0.866794   1 O  py        
 
 Vector  157  Occ=0.000000D+00  E= 2.194172D+01
              MO Center=  2.2D-02,  8.4D-01,  1.2D-01, r^2= 1.0D+00
   Bfn.  Coefficient  Atom+Function         Bfn.  Coefficient  Atom+Function  
  ----- ------------  ---------------      ----- ------------  ---------------
    64      1.618236   3 C  s                65     -1.388506   3 C  s         
    63     -1.275071   3 C  s                67     -1.219223   3 C  s         
    98      0.985850   4 C  s                95     -0.658248   4 C  s         
    96      0.529237   4 C  s                94      0.520972   4 C  s         
    35      0.511079   2 C  s                40     -0.458653   2 C  px        
 
 Vector  158  Occ=0.000000D+00  E= 2.198288D+01
              MO Center=  9.3D-01, -3.2D-01, -7.3D-01, r^2= 9.7D-01
   Bfn.  Coefficient  Atom+Function         Bfn.  Coefficient  Atom+Function  
  ----- ------------  ---------------      ----- ------------  ---------------
    95      1.429499   4 C  s                96     -1.316235   4 C  s         
    94     -1.124480   4 C  s                98     -1.117216   4 C  s         
    36     -1.073234   2 C  s                34     -1.030560   2 C  s         
    33      0.955906   2 C  s                32     -0.747578   2 C  s         
    67      0.745852   3 C  s                65     -0.514548   3 C  s         
 
 Vector  159  Occ=0.000000D+00  E= 2.209355D+01
              MO Center=  6.3D-01, -1.1D-01, -1.3D-01, r^2= 8.0D-01
   Bfn.  Coefficient  Atom+Function         Bfn.  Coefficient  Atom+Function  
  ----- ------------  ---------------      ----- ------------  ---------------
    36      2.125549   2 C  s                33     -1.479703   2 C  s         
    34      1.461218   2 C  s                98     -1.364671   4 C  s         
    35     -1.339781   2 C  s                32      1.159561   2 C  s         
    67     -1.115886   3 C  s                95      0.808617   4 C  s         
    96     -0.734200   4 C  s                97      0.723873   4 C  s         
 
 Vector  160  Occ=0.000000D+00  E= 4.341451D+01
              MO Center= -8.8D-01, -1.8D-01,  2.0D-01, r^2= 1.2D-01
   Bfn.  Coefficient  Atom+Function         Bfn.  Coefficient  Atom+Function  
  ----- ------------  ---------------      ----- ------------  ---------------
     4      2.507427   1 O  s                 3     -1.874638   1 O  s         
     2      1.731550   1 O  s                 1     -1.395845   1 O  s         
     5     -0.879410   1 O  s                36      0.836170   2 C  s         
     9      0.561940   1 O  px               66     -0.513790   3 C  s         
    40      0.465597   2 C  px               72      0.455865   3 C  py        
 

 center of mass
 --------------
 x =   0.30619361 y =   0.09486515 z =  -0.27792433

 moments of inertia (a.u.)
 ------------------
         200.039803296247          45.617360620120          83.816894592161
          45.617360620120         247.971202262138         -52.671518141682
          83.816894592161         -52.671518141682         238.994668992585
 
     Multipole analysis of the density
     ---------------------------------
 
     L   x y z        total         alpha         beta         nuclear
     -   - - -        -----         -----         ----         -------
     0   0 0 0     -0.000000    -16.000000    -16.000000     32.000000
 
     1   1 0 0      0.684287     -6.236849     -6.236849     13.157986
     1   0 1 0      0.331084     -1.607861     -1.607861      3.546806
     1   0 0 1     -0.062283      5.310769      5.310769    -10.683821
 
     2   2 0 0    -20.050188    -54.415925    -54.415925     88.781663
     2   1 1 0     -1.092711     13.912825     13.912825    -28.918360
     2   1 0 1      0.144100     26.499034     26.499034    -52.853967
     2   0 2 0    -17.848449    -40.527253    -40.527253     63.206057
     2   0 1 1      0.250515    -15.424597    -15.424597     31.099708
     2   0 0 2    -18.178503    -45.684009    -45.684009     73.189515
 
 *** CALLING NEW AORESP DRIVER FOR CLOSED AND OPEN SHELLS ***
 Entering AOResponse driver routine


--------------------------------------------------------------------------------

          ****************
          *** RESPONSE ***
          ****************

 Response module for NWChem and dynamic CPKS solver
 developed by J. Autschbach and coworkers, SUNY Buffalo
 The methodology used in this program is described in 
 ChemPhysChem 12 (2011), 3224-3235 (main reference)
 J. Chem. Phys. 123 (2005), 114103
 J. Chem. Phys. 122 (2005), 224115
 J. Chem. Phys. 122 (2005), 074105
 Comp. Lett. 3 (2007), 131-150 (contact JA for a copy)
 Please cite this work in publications based on results
 obtained with this code. Thank you!

 For extension of response module to open shell
 calculations please acknowledge:
 F. Aquino, Northwestern University, Schatz Rsrch Group
 The update to the methodology is described in
 J. Phys. Chem. A 118 (2014) 517-525



          -----------------------------------------------
          Solving response equations for perturbing field
          -----------------------------------------------

 number of frequencies:     1
 frequency in a.u.:  0.9319600E-01
 Perturbing field: electric
 Using GIAO formalism for OptRot
 Adding quadrupole terms to OptRot
 to create an origin in dependent tensor.
 Using El. Dipole Length Gauge
 
 Applying DAMPING constant of  0.003700 a.u.
 
 Setting up CPKS
 with frequency omega =      0.09319600 a.u.
 and a damping of            0.00370000 a.u.

 
                            NWChem Dynamic CPHF Module
                            --------------------------
 
 
    scftype = RHF 
    nclosed =   16
      nopen =    0
  variables =     9216
  num. vecs =        3
  tolerance =   1.0D-07
  max. iter =  100

 SCF residual:   5.459313097198033E-006


Iterative solution of linear equations
  No. of variables     4608
  No. of equations        3
  Maximum subspace       99
       Convergence  1.0D-07
        Start time     65.5


   iter   nsub   residual    time 
   ----  ------  --------  --------- 
 dft_CPHF2_read: failed to open
 ./methyloxirane_blyp-def2-tzvp_488.9_23.inp.aoresp_fiao_f1
     1      3    3.77D+00      96.7
     2      6    2.63D+00     128.0
     3      9    2.46D-01     159.5
     4     12    5.67D-02     190.8
     5     15    9.65D-03     222.2
     6     18    1.26D-03     253.6
     7     21    1.42D-04     285.0
     8     24    1.34D-05     316.4
     9     27    1.20D-06     347.8
    10     30    4.64D-07     379.2
    11     33    1.23D-08     410.6

 Calculating some arrays needed for GIAO optical rotation

    0 giaofock schwarz done =      92.96%
    0 giaofock schwarz done =      96.39%
 aor_r1_tensor_giao: roadata output requested
 dip-quad polarizability Re:

              1        2        3        4        5        6      
    1   78.3562  -6.3109 -27.5840  -4.6117   0.8761   9.8803
    2  -11.4438  26.0199   3.1767  22.6856 -21.9093   3.2177
    3   -7.1638   1.3677  39.9192  -0.7250  13.1647 -39.1005
 traceless dip-quad polarizability:

              1        2        3      
    1   75.7219  -9.4664 -41.3760
    2   -9.4664 -48.7300   1.3142
    3  -41.3760   1.3142 -26.9919

              1        2        3      
    1  -24.3955  39.0299   4.7651
    2   39.0299  26.7987 -32.8640
    3    4.7651 -32.8640  -2.4032

              1        2        3      
    1   12.7490   2.0516  59.8788
    2    2.0516  22.4072  19.7471
    3   59.8788  19.7471 -35.1561

 roa begin

 alpha real:
 XX       0.4115692805997E+02
 XY      -0.5187332070026E+01
 XZ      -0.3090241535593E+01
 YX      -0.5187332080843E+01
 YY       0.4423436395827E+02
 YZ       0.3238786890954E+01
 ZX      -0.3090241540075E+01
 ZY       0.3238786890424E+01
 ZZ       0.4136257648767E+02

 alpha im:
 XX       0.1122572817657E+00
 XY      -0.3014055948951E-01
 XZ      -0.1141914694617E-01
 YX      -0.3014055584189E-01
 YY       0.1306257433753E+00
 YZ       0.1873080976418E-01
 ZX      -0.1141914469977E-01
 ZY       0.1873081087465E-01
 ZZ       0.1222681279883E+00

 beta real:
 XX      -0.1603873747804E+00
 XY       0.9323925027674E+00
 XZ       0.1827885697402E+00
 YX      -0.8817279083017E+00
 YY       0.1689530918022E+00
 YZ      -0.1576125632722E+01
 ZX      -0.5095701003680E+00
 ZY       0.1845310714114E+01
 ZZ      -0.1490936543673E-01

 G-prime = -omega beta(real):
 XX      -0.1603873747804E+00
 XY       0.9323925027674E+00
 XZ       0.1827885697402E+00
 YX      -0.8817279083017E+00
 YY       0.1689530918022E+00
 YZ      -0.1576125632722E+01
 ZX      -0.5095701003680E+00
 ZY       0.1845310714114E+01
 ZZ      -0.1490936543673E-01

 beta im:
 XX      -0.6648065912075E-02
 XY       0.1347073006533E-01
 XZ       0.2411434244939E-02
 YX      -0.7583052805720E-02
 YY       0.5481786288288E-02
 YZ      -0.2438657156343E-01
 ZX      -0.1464574104272E-01
 ZY       0.3927122335281E-01
 ZZ       0.2153388107871E-03

 G-prime = -omega beta(imag):
 XX      -0.6648065912075E-02
 XY       0.1347073006533E-01
 XZ       0.2411434244939E-02
 YX      -0.7583052805720E-02
 YY       0.5481786288288E-02
 YZ      -0.2438657156343E-01
 ZX      -0.1464574104272E-01
 ZY       0.3927122335281E-01
 ZZ       0.2153388107871E-03

 dipole-quadrupole real (Cartesian):
 XXX      0.7835616799155E+02
 XXY     -0.6310904743639E+01
 XXZ     -0.2758400633227E+02
 XYY     -0.4611729989281E+01
 XYZ      0.8761140127299E+00
 XZZ      0.9880338065176E+01
 YXX     -0.1144383404934E+02
 YXY      0.2601993866868E+02
 YXZ      0.3176744691240E+01
 YYY      0.2268558460340E+02
 YYZ     -0.2190930741348E+02
 YZZ      0.3217693536836E+01
 ZXX     -0.7163800866297E+01
 ZXY      0.1367723051915E+01
 ZXZ      0.3991918778216E+02
 ZYY     -0.7249961874863E+00
 ZYZ      0.1316473622727E+02
 ZZZ     -0.3910051434604E+02

 dipole-quadrupole imag (Cartesian):
 XXX      0.2764323748860E+00
 XXY     -0.3498483876686E-01
 XXZ     -0.7685806537529E-01
 XYY     -0.2994359878398E-01
 XYZ      0.1477570813246E-03
 XZZ      0.6547587876363E-01
 YXX     -0.5487660974906E-01
 YXY      0.6441876097644E-01
 YXZ      0.1825146097002E-01
 YYY      0.8895995094200E-01
 YYZ     -0.6386866119437E-01
 YZZ      0.4783788018195E-02
 ZXX     -0.3731202983045E-01
 ZXY      0.1549103431294E-02
 ZXZ      0.1498348698962E+00
 ZYY      0.9720828465752E-03
 ZYZ      0.6148584880502E-01
 ZZZ     -0.8468738504537E-01

 dipole-quadrupole (traceless):
 XXX      0.7572186395360E+02
 XXY     -0.9466357115459E+01
 XXZ     -0.4137600949840E+02
 XYY     -0.4872998301764E+02
 XYZ      0.1314171019095E+01
 XZZ     -0.2699188093596E+02
 YXX     -0.2439547311946E+02
 YXY      0.3902990800302E+02
 YXZ      0.4765117036860E+01
 YYY      0.2679865485966E+02
 YYZ     -0.3286396112023E+02
 YZZ     -0.2403181740193E+01
 ZXX      0.1274895440047E+02
 ZXY      0.2051584577873E+01
 ZXZ      0.5987878167325E+02
 ZYY      0.2240716141868E+02
 ZYZ      0.1974710434091E+02
 ZZZ     -0.3515611581915E+02

 roa end


 Electric Dipole Response Matrix (nonzero elements):

              1        2        3      
    1   41.1569  -5.1873  -3.0902
    2   -5.1873  44.2344   3.2388
    3   -3.0902   3.2388  41.3626
 
 Imaginary part:

              1        2        3      
    1    0.1123  -0.0301  -0.0114
    2   -0.0301   0.1306   0.0187
    3   -0.0114   0.0187   0.1223

 ------------------------------------------
 average:        42.25129 + I       0.12172


 DFT Linear Response polarizability / au 
 Frequency  =       0.0931960 / au
 Wavelength =     488.8981609 / nm
              X              Y              Z
 -----------------------------------------------
 X      41.1569281     -5.1873321     -3.0902415
 Y      -5.1873321     44.2343640      3.2387869
 Z      -3.0902415      3.2387869     41.3625765
 -----------------------------------------------
 Eigenvalues =      37.1635395     50.3172889     39.2730401
 Isotropic   =      42.2512895
 Anisotropic =       9.9907716
 -----------------------------------------------
 *************************

 DFT Linear Response IMAG polarizability / au 
 Frequency  =       0.0931960 / au
 Wavelength =     488.8981609 / nm
              X              Y              Z
 -----------------------------------------------
 X       0.1122573     -0.0301406     -0.0114191
 Y      -0.0301406      0.1306257      0.0187308
 Z      -0.0114191      0.0187308      0.1222681
 -----------------------------------------------
 Eigenvalues =       0.0897767      0.1643168      0.1110577
 Isotropic   =       0.1217171
 Anisotropic =       0.0543005
 -----------------------------------------------
 *************************

 Magnetic Dipole Response Matrix (nonzero elements):
 Optical rotation tensor Beta
 (Buckingham-Dunn version including dipole-quadrupole terms)

              1        2        3      
    1    2.6255  -0.4628   0.5497
    2   -0.4628  -1.5671  -1.5924
    3    0.5497  -1.5924  -0.9903
 
 Imaginary part:

              1        2        3      
    1    0.0713  -0.1445  -0.0259
    2    0.0814  -0.0588   0.2617
    3    0.1571  -0.4214  -0.0023

 ------------------------------------------
 average:         0.02269 + I       0.00340

 Principal components and PAS (Real part)
                 -2.89700
                  2.83260
                  0.13247
 ------------------------
 average:         0.02269

              1        2        3      
    1    0.0005   0.9609  -0.2770
    2    0.7676  -0.1779  -0.6157
    3    0.6409   0.2123   0.7377

 Chiral response tensor (Real part):

              1        2        3      
    1   -1.2787   0.2314  -0.2748
    2    0.2314   0.8176   0.7962
    3   -0.2748   0.7962   0.5292
 
 Principal components and PAS (Real part)
                  1.48253
                 -1.38227
                 -0.03220
 ------------------------
 average:         0.02269

              1        2        3      
    1    0.0005   0.9609  -0.2770
    2    0.7676  -0.1779  -0.6157
    3    0.6409   0.2123   0.7377
 Exiting AOResponse driver routine

 Task  times  cpu:      401.0s     wall:      409.6s
 
 
                                NWChem Input Module
                                -------------------
 
 
 Summary of allocated global arrays
-----------------------------------
  No active global arrays



                         GA Statistics for process    0
                         ------------------------------

       create   destroy   get      put      acc     scatter   gather  read&inc
calls: 3294     3294     8.30e+06 3.14e+06 7.81e+05 2694        0     1118     
number of processes/call 1.01e+00 1.03e+00 1.44e+00 0.00e+00 0.00e+00
bytes total:             1.85e+09 1.26e+08 1.85e+09 1.84e+02 0.00e+00 8.94e+03
bytes remote:            8.00e+08 3.29e+07 1.09e+09 0.00e+00 0.00e+00 0.00e+00
Max memory consumed for GA by this process: 11242192 bytes
 
MA_summarize_allocated_blocks: starting scan ...
MA_summarize_allocated_blocks: scan completed: 0 heap blocks, 0 stack blocks
MA usage statistics:

	allocation statistics:
					      heap	     stack
					      ----	     -----
	current number of blocks	         0	         0
	maximum number of blocks	        24	        52
	current total bytes		         0	         0
	maximum total bytes		   7519856	  48969448
	maximum total K-bytes		      7520	     48970
	maximum total M-bytes		         8	        49
 
 
                                     CITATION
                                     --------
                Please cite the following reference when publishing
                           results obtained with NWChem:
 
                 M. Valiev, E.J. Bylaska, N. Govind, K. Kowalski,
              T.P. Straatsma, H.J.J. van Dam, D. Wang, J. Nieplocha,
                        E. Apra, T.L. Windus, W.A. de Jong
                 "NWChem: a comprehensive and scalable open-source
                  solution for large scale molecular simulations"
                      Comput. Phys. Commun. 181, 1477 (2010)
                           doi:10.1016/j.cpc.2010.04.018
 
                                      AUTHORS
                                      -------
          E. Apra, E. J. Bylaska, W. A. de Jong, N. Govind, K. Kowalski,
       T. P. Straatsma, M. Valiev, H. J. J. van Dam, D. Wang, T. L. Windus,
        J. Hammond, J. Autschbach, K. Bhaskaran-Nair, J. Brabec, K. Lopata,
    S. A. Fischer, S. Krishnamoorthy, M. Jacquelin, W. Ma, M. Klemm, O. Villa,
      Y. Chen, V. Anisimov, F. Aquino, S. Hirata, M. T. Hackler, V. Konjkov,
            D. Mejia-Rodriguez, T. Risthaus, M. Malagoli, A. Marenich,
   A. Otero-de-la-Roza, J. Mullin, P. Nichols, R. Peverati, J. Pittner, Y. Zhao,
        P.-D. Fan, A. Fonari, M. J. Williamson, R. J. Harrison, J. R. Rehr,
      M. Dupuis, D. Silverstein, D. M. A. Smith, J. Nieplocha, V. Tipparaju,
    M. Krishnan, B. E. Van Kuiken, A. Vazquez-Mayagoitia, L. Jensen, M. Swart,
      Q. Wu, T. Van Voorhis, A. A. Auer, M. Nooijen, L. D. Crosby, E. Brown,
      G. Cisneros, G. I. Fann, H. Fruchtl, J. Garza, K. Hirao, R. A. Kendall,
      J. A. Nichols, K. Tsemekhman, K. Wolinski, J. Anchell, D. E. Bernholdt,
      P. Borowski, T. Clark, D. Clerc, H. Dachsel, M. J. O. Deegan, K. Dyall,
    D. Elwood, E. Glendening, M. Gutowski, A. C. Hess, J. Jaffe, B. G. Johnson,
     J. Ju, R. Kobayashi, R. Kutteh, Z. Lin, R. Littlefield, X. Long, B. Meng,
      T. Nakajima, S. Niu, L. Pollack, M. Rosing, K. Glaesemann, G. Sandrone,
      M. Stave, H. Taylor, G. Thomas, J. H. van Lenthe, A. T. Wong, Z. Zhang.

 Total times  cpu:      452.7s     wall:      461.6s
