 argument  1 = methyloxirane_blyp-def2-tzvp_488.9_30.inp
 


============================== echo of input deck ==============================
echo
start methyloxirane_blyp-def2-tzvp_488.9_30.inp
title "methyloxirane roa calculations at 488.9 nm, input generated in va  with delta_type=2"
charge 0



geometry units angstrom nocenter noautoz noautosym nucleus point;symmetry c1
 O -0.877038 -0.177178  0.204379
 C  0.575450 -0.159843  0.121470
 C -0.187998  1.086319  0.337787
 C  1.184133 -0.522079 -1.208381
 H  1.060607 -0.594099  1.002854
 H -0.210475  1.527192  1.338579
 H -0.344222  1.788600 -0.485823
 H  2.238072 -0.209411 -1.240719
 H  1.146338 -1.605590 -1.386366
 H  0.647857 -0.018721 -2.022504
end

basis spherical
* library def2-TZVP
end

 set prop:newaoresp 1
 set aor:roadata T
 set cphf:maxsub 100
 set cphf:acc 1.0d-10
 set cphf:maxiter 100

property
    response 1   0.093196
    bdtensor
    convergence 1e-7
    damping 0.0037
    giao
end

dft
 direct
 mult 1
 xc becke88 lyp
 iterations 250
 tolerances tight
 grid xfine
 convergence nolevelshifting
 convergence energy 1e-8
 convergence gradient 1e-7


end

task dft gradient
task dft property
================================================================================


                                         
                                         
 
 
              Northwest Computational Chemistry Package (NWChem) 6.8
              ------------------------------------------------------
 
 
                    Environmental Molecular Sciences Laboratory
                       Pacific Northwest National Laboratory
                                Richland, WA 99352
 
                              Copyright (c) 1994-2017
                       Pacific Northwest National Laboratory
                            Battelle Memorial Institute
 
             NWChem is an open-source computational chemistry package
                        distributed under the terms of the
                      Educational Community License (ECL) 2.0
             A copy of the license is included with this distribution
                              in the LICENSE.TXT file
 
                                  ACKNOWLEDGMENT
                                  --------------

            This software and its documentation were developed at the
            EMSL at Pacific Northwest National Laboratory, a multiprogram
            national laboratory, operated for the U.S. Department of Energy
            by Battelle under Contract Number DE-AC05-76RL01830. Support
            for this work was provided by the Department of Energy Office
            of Biological and Environmental Research, Office of Basic
            Energy Sciences, and the Office of Advanced Scientific Computing.


           Job information
           ---------------

    hostname        = cpn-f11-17-02.cbls.ccr.buffalo.edu
    program         = /util/academic/nwchem/nwchem-6.8/bin/LINUX64/nwchem
    date            = Fri Mar  1 10:27:17 2019

    compiled        = Tue_Nov_06_14:59:08_2018
    source          = /util/academic/nwchem/nwchem-6.8
    nwchem branch   = 6.8
    nwchem revision = v6.8-47-gdf6c956
    ga revision     = ga-5.6.3
    use scalapack   = F
    input           = methyloxirane_blyp-def2-tzvp_488.9_30.inp
    prefix          = methyloxirane_blyp-def2-tzvp_488.9_30.inp.
    data base       = ./methyloxirane_blyp-def2-tzvp_488.9_30.inp.db
    status          = startup
    nproc           =        7
    time left       =     -1s



           Memory information
           ------------------

    heap     =   13107198 doubles =    100.0 Mbytes
    stack    =   13107195 doubles =    100.0 Mbytes
    global   =   26214400 doubles =    200.0 Mbytes (distinct from heap & stack)
    total    =   52428793 doubles =    400.0 Mbytes
    verify   = yes
    hardfail = no 


           Directory information
           ---------------------
 
  0 permanent = .
  0 scratch   = .
 
 
 
 
                                NWChem Input Module
                                -------------------
 
 
                    methyloxirane roa calculations at 488.9 nm, input generated in va  with delta_type=2
                    ------------------------------------------

 Scaling coordinates for geometry "geometry" by  1.889725989
 (inverse scale =  0.529177249)

 
 
                             Geometry "geometry" -> ""
                             -------------------------
 
 Output coordinates in angstroms (scale by  1.889725989 to convert to a.u.)
 
  No.       Tag          Charge          X              Y              Z
 ---- ---------------- ---------- -------------- -------------- --------------
    1 O                    8.0000    -0.87703800    -0.17717800     0.20437900
    2 C                    6.0000     0.57545000    -0.15984300     0.12147000
    3 C                    6.0000    -0.18799800     1.08631900     0.33778700
    4 C                    6.0000     1.18413300    -0.52207900    -1.20838100
    5 H                    1.0000     1.06060700    -0.59409900     1.00285400
    6 H                    1.0000    -0.21047500     1.52719200     1.33857900
    7 H                    1.0000    -0.34422200     1.78860000    -0.48582300
    8 H                    1.0000     2.23807200    -0.20941100    -1.24071900
    9 H                    1.0000     1.14633800    -1.60559000    -1.38636600
   10 H                    1.0000     0.64785700    -0.01872100    -2.02250400
 
      Atomic Mass 
      ----------- 
 
      O                 15.994910
      C                 12.000000
      H                  1.007825
 

 Effective nuclear repulsion energy (a.u.)     123.7005738380

            Nuclear Dipole moment (a.u.) 
            ----------------------------
        X                 Y               Z
 ---------------- ---------------- ----------------
    13.1362091117     3.5846760298   -10.6839268141
 
 
            XYZ format geometry
            -------------------
    10
 geometry
 O                    -0.87703800    -0.17717800     0.20437900
 C                     0.57545000    -0.15984300     0.12147000
 C                    -0.18799800     1.08631900     0.33778700
 C                     1.18413300    -0.52207900    -1.20838100
 H                     1.06060700    -0.59409900     1.00285400
 H                    -0.21047500     1.52719200     1.33857900
 H                    -0.34422200     1.78860000    -0.48582300
 H                     2.23807200    -0.20941100    -1.24071900
 H                     1.14633800    -1.60559000    -1.38636600
 H                     0.64785700    -0.01872100    -2.02250400
 
 ==============================================================================
                                internuclear distances
 ------------------------------------------------------------------------------
       center one      |      center two      | atomic units |  angstroms
 ------------------------------------------------------------------------------
    2 C                |   1 O                |     2.74947  |     1.45496
    3 C                |   1 O                |     2.73129  |     1.44534
    3 C                |   2 C                |     2.79179  |     1.47735
    4 C                |   2 C                |     2.84729  |     1.50672
    5 H                |   2 C                |     2.07078  |     1.09581
    6 H                |   3 C                |     2.06703  |     1.09383
    7 H                |   3 C                |     2.06658  |     1.09359
    8 H                |   4 C                |     2.07835  |     1.09982
    9 H                |   4 C                |     2.07621  |     1.09868
   10 H                |   4 C                |     2.07333  |     1.09716
 ------------------------------------------------------------------------------
                         number of included internuclear distances:         10
 ==============================================================================



 ==============================================================================
                                 internuclear angles
 ------------------------------------------------------------------------------
        center 1       |       center 2       |       center 3       |  degrees
 ------------------------------------------------------------------------------
    2 C                |   1 O                |   3 C                |    61.24
    2 C                |   1 O                |   3 C                |    61.24
    1 O                |   2 C                |   4 C                |   116.79
    1 O                |   2 C                |   5 H                |   113.04
    3 C                |   2 C                |   4 C                |   122.74
    3 C                |   2 C                |   5 H                |   116.44
    4 C                |   2 C                |   5 H                |   115.83
    3 C                |   1 O                |   2 C                |    61.24
    1 O                |   3 C                |   6 H                |   115.28
    1 O                |   3 C                |   7 H                |   115.07
    2 C                |   3 C                |   6 H                |   118.98
    2 C                |   3 C                |   7 H                |   120.35
    6 H                |   3 C                |   7 H                |   115.30
    2 C                |   4 C                |   8 H                |   110.17
    2 C                |   4 C                |   9 H                |   111.48
    2 C                |   4 C                |  10 H                |   110.31
    8 H                |   4 C                |   9 H                |   107.97
    8 H                |   4 C                |  10 H                |   108.43
    9 H                |   4 C                |  10 H                |   108.39
 ------------------------------------------------------------------------------
                            number of included internuclear angles:         19
 ==============================================================================



  warning:::::::::::::: from_environment
  NWCHEM_BASIS_LIBRARY set to: <
 /util/academic/nwchem/nwchem-6.8/src/basis/libraries>
  but file does not exist !
  using .nwchemrc or compiled library


 Summary of "ao basis" -> "" (spherical)
 ------------------------------------------------------------------------------
       Tag                 Description            Shells   Functions and Types
 ---------------- ------------------------------  ------  ---------------------
 *                         def2-TZVP                  on all atoms 


 
                                 NWChem DFT Module
                                 -----------------
 
 
                    methyloxirane roa calculations at 488.9 nm, input generated in va  with delta_type=2
 
 
                      Basis "ao basis" -> "ao basis" (spherical)
                      -----
  O (Oxygen)
  ----------
            Exponent  Coefficients 
       -------------- ---------------------------------------------------------
  1 S  2.70323826E+04  0.000217
  1 S  4.05238714E+03  0.001684
  1 S  9.22327227E+02  0.008740
  1 S  2.61240710E+02  0.035240
  1 S  8.53546414E+01  0.111535
  1 S  3.10350352E+01  0.255890
 
  2 S  1.22608607E+01  0.397687
  2 S  4.99870760E+00  0.246278
 
  3 S  1.17031082E+00  1.000000
 
  4 S  4.64747410E-01  1.000000
 
  5 S  1.85045364E-01  1.000000
 
  6 P  6.32749548E+01  0.006069
  6 P  1.46270494E+01  0.041913
  6 P  4.45012235E+00  0.161538
  6 P  1.52757996E+00  0.357070
 
  7 P  5.29351179E-01  1.000000
 
  8 P  1.74784213E-01  1.000000
 
  9 D  2.31400000E+00  1.000000
 
 10 D  6.45000000E-01  1.000000
 
 11 F  1.42800000E+00  1.000000
 
  C (Carbon)
  ----------
            Exponent  Coefficients 
       -------------- ---------------------------------------------------------
  1 S  1.35753497E+04  0.000222
  1 S  2.03523337E+03  0.001723
  1 S  4.63225624E+02  0.008926
  1 S  1.31200196E+02  0.035728
  1 S  4.28530159E+01  0.110763
  1 S  1.55841858E+01  0.242956
 
  2 S  6.20671385E+00  0.414403
  2 S  2.57648965E+00  0.237450
 
  3 S  5.76963394E-01  1.000000
 
  4 S  2.29728314E-01  1.000000
 
  5 S  9.51644400E-02  1.000000
 
  6 P  3.46972322E+01  0.005333
  6 P  7.95826228E+00  0.035864
  6 P  2.37808269E+00  0.142159
  6 P  8.14332082E-01  0.342705
 
  7 P  2.88875473E-01  1.000000
 
  8 P  1.00568237E-01  1.000000
 
  9 D  1.09700000E+00  1.000000
 
 10 D  3.18000000E-01  1.000000
 
 11 F  7.61000000E-01  1.000000
 
  H (Hydrogen)
  ------------
            Exponent  Coefficients 
       -------------- ---------------------------------------------------------
  1 S  3.40613410E+01  0.006025
  1 S  5.12357460E+00  0.045021
  1 S  1.16466260E+00  0.201897
 
  2 S  3.27230410E-01  1.000000
 
  3 S  1.03072410E-01  1.000000
 
  4 P  8.00000000E-01  1.000000
 


 Summary of "ao basis" -> "ao basis" (spherical)
 ------------------------------------------------------------------------------
       Tag                 Description            Shells   Functions and Types
 ---------------- ------------------------------  ------  ---------------------
 O                         def2-TZVP                11       31   5s3p2d1f
 C                         def2-TZVP                11       31   5s3p2d1f
 H                         def2-TZVP                 4        6   3s1p




 Summary of "ao basis" -> "ao basis" (spherical)
 ------------------------------------------------------------------------------
       Tag                 Description            Shells   Functions and Types
 ---------------- ------------------------------  ------  ---------------------
 O                         def2-TZVP                11       31   5s3p2d1f
 C                         def2-TZVP                11       31   5s3p2d1f
 H                         def2-TZVP                 4        6   3s1p


  Caching 1-el integrals 
  itol2e modified to match energy
  convergence criterion.
  tol_rho modified to match energy
  convergence criterion.
 
            General Information
            -------------------
          SCF calculation type: DFT
          Wavefunction type:  closed shell.
          No. of atoms     :    10
          No. of electrons :    32
           Alpha electrons :    16
            Beta electrons :    16
          Charge           :     0
          Spin multiplicity:     1
          Use of symmetry is: off; symmetry adaption is: off
          Maximum number of iterations: 250
          This is a Direct SCF calculation.
          AO basis - number of functions:   160
                     number of shells:    68
          Convergence on energy requested:  1.00D-08
          Convergence on density requested:  1.00D-05
          Convergence on gradient requested:  1.00D-07
 
              XC Information
              --------------
                    Becke 1988 Exchange Functional  1.000          
              Lee-Yang-Parr Correlation Functional  1.000          
 
             Grid Information
             ----------------
          Grid used for XC integration:  xfine     
          Radial quadrature: Mura-Knowles        
          Angular quadrature: Lebedev. 
          Tag              B.-S. Rad. Rad. Pts. Rad. Cut. Ang. Pts.
          ---              ---------- --------- --------- ---------
          O                   0.60      100          11.0      1454
          C                   0.70      100          11.0      1454
          H                   0.35      100          12.0      1202
          Grid pruning is: on 
          Number of quadrature shells:  1000
          Spatial weights used:  Erf1
 
          Convergence Information
          -----------------------
          Convergence aids based upon iterative change in 
          total energy or number of iterations. 
          Levelshifting, if invoked, occurs when the 
          HOMO/LUMO gap drops below (HL_TOL):  1.00D-02
          DIIS, if invoked, will attempt to extrapolate 
          using up to (NFOCK): 10 stored Fock matrices.

                    Damping( 0%)  Levelshifting(0.0)       DIIS
                  --------------- ------------------- ---------------
          dE  on:    start             N/A                start   
          dE off:    2 iters           N/A              250 iters 

 
      Screening Tolerance Information
      -------------------------------
          Density screening/tol_rho:  1.00D-11
          AO Gaussian exp screening on grid/accAOfunc:  18
          CD Gaussian exp screening on grid/accCDfunc:  20
          XC Gaussian exp screening on grid/accXCfunc:  20
          Schwarz screening/accCoul:  1.00D-09

 
      Superposition of Atomic Density Guess
      -------------------------------------
 
 Sum of atomic energies:        -190.79714706
 
      Non-variational initial energy
      ------------------------------

 Total energy =    -193.179154
 1-e energy   =    -502.352960
 2-e energy   =     185.473232
 HOMO         =      -0.348925
 LUMO         =       0.091607
 
   Time after variat. SCF:      0.6
   Time prior to 1st pass:      0.6

 Grid_pts file          = ./methyloxirane_blyp-def2-tzvp_488.9_30.inp.gridpts.0
 Record size in doubles =  12289        No. of grid_pts per rec  =   3070
 Max. records in memory =     76        Max. recs in file   =    554552


           Memory utilization after 1st SCF pass: 
           Heap Space remaining (MW):       12.17            12167542
          Stack Space remaining (MW):       13.11            13106116

   convergence    iter        energy       DeltaE   RMS-Dens  Diis-err    time
 ---------------- ----- ----------------- --------- --------- ---------  ------
 d= 0,ls=0.0,diis     1   -193.0206622277 -3.17D+02  9.11D-03  1.06D+00     6.4
 d= 0,ls=0.0,diis     2   -192.8662999348  1.54D-01  7.54D-03  2.48D+00    11.9
 d= 0,ls=0.0,diis     3   -193.0769108342 -2.11D-01  1.82D-03  3.89D-01    17.4
 d= 0,ls=0.0,diis     4   -193.1072364816 -3.03D-02  6.72D-04  1.78D-02    23.0
 d= 0,ls=0.0,diis     5   -193.1088706816 -1.63D-03  2.89D-04  2.65D-03    28.5
 d= 0,ls=0.0,diis     6   -193.1092005564 -3.30D-04  3.02D-05  3.37D-05    34.0
 d= 0,ls=0.0,diis     7   -193.1092046178 -4.06D-06  8.86D-06  3.48D-06    39.5
 d= 0,ls=0.0,diis     8   -193.1092050139 -3.96D-07  1.87D-06  2.69D-07    45.1
 d= 0,ls=0.0,diis     9   -193.1092050442 -3.04D-08  5.66D-07  1.54D-08    50.6
 d= 0,ls=0.0,diis    10   -193.1092050460 -1.75D-09  1.58D-07  1.37D-09    56.1


         Total DFT energy =     -193.109205045990
      One electron energy =     -506.008403460107
           Coulomb energy =      216.222975956302
    Exchange-Corr. energy =      -27.024351380221
 Nuclear repulsion energy =      123.700573838035

 Numeric. integr. density =       32.000000006042

     Total iterative time =     55.5s


 
                       DFT Final Molecular Orbital Analysis
                       ------------------------------------
 
 Vector    1  Occ=2.000000D+00  E=-1.877984D+01
              MO Center= -8.8D-01, -1.8D-01,  2.0D-01, r^2= 1.5D-02
   Bfn.  Coefficient  Atom+Function         Bfn.  Coefficient  Atom+Function  
  ----- ------------  ---------------      ----- ------------  ---------------
     2      0.638473   1 O  s                 1      0.435422   1 O  s         
     3      0.039924   1 O  s                 4     -0.033368   1 O  s         
 
 Vector    2  Occ=2.000000D+00  E=-9.962975D+00
              MO Center=  5.8D-01, -1.6D-01,  1.2D-01, r^2= 2.8D-02
   Bfn.  Coefficient  Atom+Function         Bfn.  Coefficient  Atom+Function  
  ----- ------------  ---------------      ----- ------------  ---------------
    33      0.606913   2 C  s                32      0.467262   2 C  s         
    34      0.042483   2 C  s                36      0.037251   2 C  s         
    35     -0.027101   2 C  s         
 
 Vector    3  Occ=2.000000D+00  E=-9.955372D+00
              MO Center= -1.9D-01,  1.1D+00,  3.4D-01, r^2= 2.8D-02
   Bfn.  Coefficient  Atom+Function         Bfn.  Coefficient  Atom+Function  
  ----- ------------  ---------------      ----- ------------  ---------------
    64      0.607023   3 C  s                63      0.467225   3 C  s         
    65      0.039666   3 C  s         
 
 Vector    4  Occ=2.000000D+00  E=-9.907740D+00
              MO Center=  1.2D+00, -5.2D-01, -1.2D+00, r^2= 2.8D-02
   Bfn.  Coefficient  Atom+Function         Bfn.  Coefficient  Atom+Function  
  ----- ------------  ---------------      ----- ------------  ---------------
    95      0.606955   4 C  s                94      0.467214   4 C  s         
    96      0.040575   4 C  s                98      0.035816   4 C  s         
 
 Vector    5  Occ=2.000000D+00  E=-9.645759D-01
              MO Center= -4.7D-01,  5.9D-02,  2.1D-01, r^2= 6.4D-01
   Bfn.  Coefficient  Atom+Function         Bfn.  Coefficient  Atom+Function  
  ----- ------------  ---------------      ----- ------------  ---------------
     4      0.375141   1 O  s                 3      0.277362   1 O  s         
     2     -0.192793   1 O  s                65      0.139838   3 C  s         
    34      0.139123   2 C  s                 5      0.122432   1 O  s         
    35      0.104847   2 C  s                 6      0.093557   1 O  px        
    66      0.092993   3 C  s                69     -0.092165   3 C  py        
 
 Vector    6  Occ=2.000000D+00  E=-6.705542D-01
              MO Center=  9.4D-01, -3.9D-01, -7.7D-01, r^2= 1.5D+00
   Bfn.  Coefficient  Atom+Function         Bfn.  Coefficient  Atom+Function  
  ----- ------------  ---------------      ----- ------------  ---------------
    97      0.285329   4 C  s                96      0.276452   4 C  s         
    35      0.185464   2 C  s                34      0.175191   2 C  s         
    95     -0.174112   4 C  s                 4     -0.146378   1 O  s         
    33     -0.109469   2 C  s                 3     -0.102242   1 O  s         
    94     -0.083427   4 C  s                 5     -0.072503   1 O  s         
 
 Vector    7  Occ=2.000000D+00  E=-5.889756D-01
              MO Center= -1.3D-01,  7.2D-01,  2.2D-01, r^2= 1.9D+00
   Bfn.  Coefficient  Atom+Function         Bfn.  Coefficient  Atom+Function  
  ----- ------------  ---------------      ----- ------------  ---------------
    66      0.326126   3 C  s                65      0.277472   3 C  s         
     4     -0.239224   1 O  s                64     -0.171598   3 C  s         
     3     -0.168494   1 O  s                 5     -0.148771   1 O  s         
     2      0.111302   1 O  s                38      0.104145   2 C  py        
   132      0.103544   6 H  s                97     -0.098563   4 C  s         
 
 Vector    8  Occ=2.000000D+00  E=-5.303464D-01
              MO Center=  4.1D-01,  2.0D-02, -9.7D-02, r^2= 2.7D+00
   Bfn.  Coefficient  Atom+Function         Bfn.  Coefficient  Atom+Function  
  ----- ------------  ---------------      ----- ------------  ---------------
    35      0.301636   2 C  s                34      0.224359   2 C  s         
    97     -0.155104   4 C  s                66     -0.152905   3 C  s         
    33     -0.137950   2 C  s               126      0.132349   5 H  s         
    96     -0.128597   4 C  s                 6      0.107338   1 O  px        
   125      0.105859   5 H  s                65     -0.099978   3 C  s         
 
 Vector    9  Occ=2.000000D+00  E=-4.477283D-01
              MO Center=  1.2D-01,  2.6D-01,  2.3D-01, r^2= 2.5D+00
   Bfn.  Coefficient  Atom+Function         Bfn.  Coefficient  Atom+Function  
  ----- ------------  ---------------      ----- ------------  ---------------
    70      0.208503   3 C  pz               39      0.156951   2 C  pz        
   132      0.142582   6 H  s                73      0.131266   3 C  pz        
     8      0.129058   1 O  pz              126      0.115281   5 H  s         
     6     -0.112074   1 O  px              131      0.105680   6 H  s         
    11      0.104522   1 O  pz               37      0.104018   2 C  px        
 
 Vector   10  Occ=2.000000D+00  E=-4.141033D-01
              MO Center=  4.5D-02,  2.8D-01, -2.4D-01, r^2= 2.6D+00
   Bfn.  Coefficient  Atom+Function         Bfn.  Coefficient  Atom+Function  
  ----- ------------  ---------------      ----- ------------  ---------------
    69      0.215344   3 C  py              101      0.155697   4 C  pz        
   138      0.153742   7 H  s                 6     -0.145079   1 O  px        
    38     -0.140439   2 C  py               37      0.130197   2 C  px        
     7     -0.121523   1 O  py               72      0.121317   3 C  py        
     9     -0.116046   1 O  px               70     -0.115034   3 C  pz        
 
 Vector   11  Occ=2.000000D+00  E=-3.774420D-01
              MO Center=  8.9D-01, -3.2D-01, -7.3D-01, r^2= 2.7D+00
   Bfn.  Coefficient  Atom+Function         Bfn.  Coefficient  Atom+Function  
  ----- ------------  ---------------      ----- ------------  ---------------
    99      0.206111   4 C  px              144      0.183323   8 H  s         
   100      0.167268   4 C  py              150     -0.141665   9 H  s         
   102      0.132203   4 C  px               37      0.128997   2 C  px        
   143      0.128320   8 H  s                 7      0.121341   1 O  py        
     6     -0.116826   1 O  px              103      0.110376   4 C  py        
 
 Vector   12  Occ=2.000000D+00  E=-3.566678D-01
              MO Center=  5.8D-01, -3.2D-01, -8.5D-01, r^2= 2.9D+00
   Bfn.  Coefficient  Atom+Function         Bfn.  Coefficient  Atom+Function  
  ----- ------------  ---------------      ----- ------------  ---------------
   100      0.254862   4 C  py              150     -0.184731   9 H  s         
   156      0.173250  10 H  s                 7     -0.170211   1 O  py        
   103      0.165057   4 C  py               10     -0.136186   1 O  py        
   149     -0.128762   9 H  s               155      0.122745  10 H  s         
    70      0.121418   3 C  pz              106      0.102706   4 C  py        
 
 Vector   13  Occ=2.000000D+00  E=-3.292340D-01
              MO Center=  3.2D-01,  2.4D-01, -2.3D-01, r^2= 2.8D+00
   Bfn.  Coefficient  Atom+Function         Bfn.  Coefficient  Atom+Function  
  ----- ------------  ---------------      ----- ------------  ---------------
    39      0.210999   2 C  pz              101     -0.189119   4 C  pz        
     7     -0.177168   1 O  py               70     -0.168063   3 C  pz        
   138      0.160274   7 H  s                10     -0.142828   1 O  py        
    42      0.142863   2 C  pz               99      0.138888   4 C  px        
   104     -0.132716   4 C  pz              137      0.107743   7 H  s         
 
 Vector   14  Occ=2.000000D+00  E=-3.217135D-01
              MO Center=  4.5D-01, -5.9D-02, -2.6D-01, r^2= 3.0D+00
   Bfn.  Coefficient  Atom+Function         Bfn.  Coefficient  Atom+Function  
  ----- ------------  ---------------      ----- ------------  ---------------
     7      0.192496   1 O  py              126      0.166293   5 H  s         
   156      0.159932  10 H  s                10      0.158035   1 O  py        
    99     -0.156654   4 C  px                6     -0.140648   1 O  px        
    39      0.139944   2 C  pz              101     -0.131397   4 C  pz        
   144     -0.130123   8 H  s                37      0.126902   2 C  px        
 
 Vector   15  Occ=2.000000D+00  E=-2.626398D-01
              MO Center=  1.2D-02,  1.5D-01,  3.0D-02, r^2= 2.3D+00
   Bfn.  Coefficient  Atom+Function         Bfn.  Coefficient  Atom+Function  
  ----- ------------  ---------------      ----- ------------  ---------------
    68      0.262940   3 C  px               38      0.256331   2 C  py        
     6     -0.238479   1 O  px               41      0.200611   2 C  py        
    71      0.195107   3 C  px                9     -0.186611   1 O  px        
    12     -0.158087   1 O  px              150      0.114942   9 H  s         
   100     -0.110533   4 C  py               67      0.106946   3 C  s         
 
 Vector   16  Occ=2.000000D+00  E=-2.197530D-01
              MO Center= -5.7D-01, -1.5D-02,  2.1D-01, r^2= 1.6D+00
   Bfn.  Coefficient  Atom+Function         Bfn.  Coefficient  Atom+Function  
  ----- ------------  ---------------      ----- ------------  ---------------
     8      0.447298   1 O  pz               11      0.356476   1 O  pz        
    14      0.294745   1 O  pz              133     -0.136240   6 H  s         
   139      0.114813   7 H  s               132     -0.108274   6 H  s         
   138      0.103216   7 H  s               145     -0.102550   8 H  s         
   126     -0.097797   5 H  s                98      0.090609   4 C  s         
 
 Vector   17  Occ=0.000000D+00  E= 2.574629D-02
              MO Center=  1.2D+00, -9.2D-02, -5.9D-01, r^2= 7.3D+00
   Bfn.  Coefficient  Atom+Function         Bfn.  Coefficient  Atom+Function  
  ----- ------------  ---------------      ----- ------------  ---------------
    98      4.493581   4 C  s               145     -1.533158   8 H  s         
   151     -1.488622   9 H  s               157     -1.345659  10 H  s         
   127     -1.254544   5 H  s                45      1.146524   2 C  pz        
   139     -0.865519   7 H  s                67      0.681690   3 C  s         
   133     -0.623247   6 H  s                75      0.337548   3 C  py        
 
 Vector   18  Occ=0.000000D+00  E= 4.453772D-02
              MO Center= -1.2D-01,  6.4D-01,  7.8D-02, r^2= 4.6D+00
   Bfn.  Coefficient  Atom+Function         Bfn.  Coefficient  Atom+Function  
  ----- ------------  ---------------      ----- ------------  ---------------
    98     -2.275124   4 C  s                36      2.255444   2 C  s         
     5     -1.239939   1 O  s                74     -0.974068   3 C  px        
   151      0.850360   9 H  s                67     -0.567934   3 C  s         
   157      0.505961  10 H  s                45     -0.457485   2 C  pz        
    13     -0.423026   1 O  py               44      0.420129   2 C  py        
 
 Vector   19  Occ=0.000000D+00  E= 5.002391D-02
              MO Center=  3.2D-01,  6.8D-01, -1.4D-01, r^2= 6.5D+00
   Bfn.  Coefficient  Atom+Function         Bfn.  Coefficient  Atom+Function  
  ----- ------------  ---------------      ----- ------------  ---------------
    67      3.229192   3 C  s                36     -2.264215   2 C  s         
   139     -1.675787   7 H  s               127      1.432381   5 H  s         
   145      0.737029   8 H  s                44     -0.659611   2 C  py        
   133     -0.618424   6 H  s                45     -0.613078   2 C  pz        
     5     -0.608548   1 O  s               157     -0.555797  10 H  s         
 
 Vector   20  Occ=0.000000D+00  E= 5.050509D-02
              MO Center=  6.5D-01,  3.7D-01,  4.4D-01, r^2= 7.5D+00
   Bfn.  Coefficient  Atom+Function         Bfn.  Coefficient  Atom+Function  
  ----- ------------  ---------------      ----- ------------  ---------------
    98      3.290207   4 C  s                67     -2.031761   3 C  s         
   133      1.730248   6 H  s               127      1.564093   5 H  s         
    36     -1.316378   2 C  s               157     -1.243814  10 H  s         
   145     -1.028129   8 H  s                44      0.991773   2 C  py        
    43     -0.746892   2 C  px              151     -0.635554   9 H  s         
 
 Vector   21  Occ=0.000000D+00  E= 6.458019D-02
              MO Center=  2.6D-01,  1.1D-01, -1.8D-01, r^2= 4.9D+00
   Bfn.  Coefficient  Atom+Function         Bfn.  Coefficient  Atom+Function  
  ----- ------------  ---------------      ----- ------------  ---------------
    98      1.261849   4 C  s               139      1.249175   7 H  s         
    67     -0.989973   3 C  s               151     -0.981506   9 H  s         
     5     -0.902364   1 O  s                43     -0.845516   2 C  px        
   133      0.593075   6 H  s                75     -0.589070   3 C  py        
    12     -0.486707   1 O  px               45      0.385000   2 C  pz        
 
 Vector   22  Occ=0.000000D+00  E= 8.634912D-02
              MO Center=  1.3D+00,  1.6D-01, -5.7D-01, r^2= 6.9D+00
   Bfn.  Coefficient  Atom+Function         Bfn.  Coefficient  Atom+Function  
  ----- ------------  ---------------      ----- ------------  ---------------
    36      2.777220   2 C  s               145      2.085379   8 H  s         
    67     -1.417929   3 C  s               157     -1.379558  10 H  s         
   127     -1.272478   5 H  s               105     -1.091815   4 C  px        
   107     -1.077262   4 C  pz              133      1.069097   6 H  s         
    98     -0.852080   4 C  s                75      0.772981   3 C  py        
 
 Vector   23  Occ=0.000000D+00  E= 9.148362D-02
              MO Center=  1.1D+00, -6.0D-01, -5.0D-01, r^2= 6.7D+00
   Bfn.  Coefficient  Atom+Function         Bfn.  Coefficient  Atom+Function  
  ----- ------------  ---------------      ----- ------------  ---------------
    36      2.597921   2 C  s               151      2.053484   9 H  s         
   145     -1.470070   8 H  s                98     -1.268822   4 C  s         
   106      1.161907   4 C  py              105      1.032485   4 C  px        
   133      1.005005   6 H  s                67     -0.993079   3 C  s         
   127     -0.890438   5 H  s               107     -0.718593   4 C  pz        
 
 Vector   24  Occ=0.000000D+00  E= 1.033358D-01
              MO Center=  3.9D-01,  4.8D-01, -1.0D+00, r^2= 7.0D+00
   Bfn.  Coefficient  Atom+Function         Bfn.  Coefficient  Atom+Function  
  ----- ------------  ---------------      ----- ------------  ---------------
   157      1.959581  10 H  s               133      1.688671   6 H  s         
   139     -1.571886   7 H  s                36      1.546682   2 C  s         
    98     -1.533189   4 C  s               106     -1.477123   4 C  py        
   151     -1.403694   9 H  s                76     -1.227675   3 C  pz        
   105      0.935634   4 C  px               45     -0.470143   2 C  pz        
 
 Vector   25  Occ=0.000000D+00  E= 1.387980D-01
              MO Center=  8.3D-01,  1.4D-01, -4.7D-01, r^2= 7.8D+00
   Bfn.  Coefficient  Atom+Function         Bfn.  Coefficient  Atom+Function  
  ----- ------------  ---------------      ----- ------------  ---------------
    36      4.610272   2 C  s                98     -3.652481   4 C  s         
    45     -3.454266   2 C  pz              127      2.731161   5 H  s         
    67     -2.660520   3 C  s               105      2.126610   4 C  px        
    76      2.111298   3 C  pz              133     -1.730119   6 H  s         
   139      1.634635   7 H  s               107     -1.598533   4 C  pz        
 
 Vector   26  Occ=0.000000D+00  E= 1.706048D-01
              MO Center=  4.4D-01,  5.3D-01, -1.0D-01, r^2= 7.3D+00
   Bfn.  Coefficient  Atom+Function         Bfn.  Coefficient  Atom+Function  
  ----- ------------  ---------------      ----- ------------  ---------------
    75      2.316300   3 C  py              107      1.584420   4 C  pz        
    36      1.563436   2 C  s                67     -1.508835   3 C  s         
   139     -1.206296   7 H  s               157      1.048855  10 H  s         
    74     -0.991781   3 C  px               44      0.702055   2 C  py        
    43     -0.582550   2 C  px              106     -0.576339   4 C  py        
 
 Vector   27  Occ=0.000000D+00  E= 1.983602D-01
              MO Center=  8.7D-01, -4.9D-02, -9.9D-01, r^2= 5.1D+00
   Bfn.  Coefficient  Atom+Function         Bfn.  Coefficient  Atom+Function  
  ----- ------------  ---------------      ----- ------------  ---------------
    67      3.234045   3 C  s                44     -2.593228   2 C  py        
   106      2.100264   4 C  py               36     -1.655475   2 C  s         
    43      0.959492   2 C  px               74      0.706957   3 C  px        
   157     -0.693539  10 H  s               150      0.662244   9 H  s         
    45     -0.610369   2 C  pz              105      0.610536   4 C  px        
 
 Vector   28  Occ=0.000000D+00  E= 2.016023D-01
              MO Center=  9.1D-01, -4.9D-01, -7.4D-01, r^2= 6.6D+00
   Bfn.  Coefficient  Atom+Function         Bfn.  Coefficient  Atom+Function  
  ----- ------------  ---------------      ----- ------------  ---------------
    36      2.632656   2 C  s                75      1.686934   3 C  py        
   105     -1.504054   4 C  px              133     -1.184407   6 H  s         
   107     -0.854893   4 C  pz               45      0.773635   2 C  pz        
   156     -0.721169  10 H  s               139     -0.717189   7 H  s         
    76      0.673295   3 C  pz              106      0.661682   4 C  py        
 
 Vector   29  Occ=0.000000D+00  E= 2.361874D-01
              MO Center= -2.7D-01,  3.3D-01, -5.6D-02, r^2= 5.4D+00
   Bfn.  Coefficient  Atom+Function         Bfn.  Coefficient  Atom+Function  
  ----- ------------  ---------------      ----- ------------  ---------------
    67      4.328846   3 C  s                36     -3.148213   2 C  s         
   139     -1.560557   7 H  s                66     -1.470847   3 C  s         
    98      1.381459   4 C  s               133     -1.248035   6 H  s         
   107      1.089929   4 C  pz               74     -0.790330   3 C  px        
    44      0.772408   2 C  py              106      0.715938   4 C  py        
 
 Vector   30  Occ=0.000000D+00  E= 2.476565D-01
              MO Center=  5.2D-01,  5.6D-02, -6.5D-02, r^2= 5.9D+00
   Bfn.  Coefficient  Atom+Function         Bfn.  Coefficient  Atom+Function  
  ----- ------------  ---------------      ----- ------------  ---------------
    67      6.113506   3 C  s                43      4.225349   2 C  px        
    75     -3.075080   3 C  py               44     -2.614672   2 C  py        
    36     -2.259305   2 C  s               107     -2.059657   4 C  pz        
   157     -1.845033  10 H  s                45     -1.485464   2 C  pz        
    98     -1.358520   4 C  s               105     -1.169054   4 C  px        
 
 Vector   31  Occ=0.000000D+00  E= 2.698500D-01
              MO Center=  2.2D-01, -2.2D-01,  2.6D-01, r^2= 5.6D+00
   Bfn.  Coefficient  Atom+Function         Bfn.  Coefficient  Atom+Function  
  ----- ------------  ---------------      ----- ------------  ---------------
    36      4.652136   2 C  s                 5     -2.414761   1 O  s         
    67      2.052446   3 C  s                43     -1.701385   2 C  px        
   105      1.487934   4 C  px               66     -1.168712   3 C  s         
    98     -1.118494   4 C  s               133     -0.943407   6 H  s         
   139     -0.910124   7 H  s               106     -0.875169   4 C  py        
 
 Vector   32  Occ=0.000000D+00  E= 2.798619D-01
              MO Center=  4.7D-01,  4.5D-01,  3.1D-01, r^2= 4.1D+00
   Bfn.  Coefficient  Atom+Function         Bfn.  Coefficient  Atom+Function  
  ----- ------------  ---------------      ----- ------------  ---------------
    36      1.871037   2 C  s                67     -1.714747   3 C  s         
     5     -1.501375   1 O  s                43     -1.117228   2 C  px        
    74     -0.763041   3 C  px               45     -0.607953   2 C  pz        
   145      0.577405   8 H  s                 4      0.478820   1 O  s         
    98     -0.469022   4 C  s                66      0.460893   3 C  s         
 
 Vector   33  Occ=0.000000D+00  E= 3.019754D-01
              MO Center=  4.2D-01,  3.5D-01, -4.0D-01, r^2= 4.9D+00
   Bfn.  Coefficient  Atom+Function         Bfn.  Coefficient  Atom+Function  
  ----- ------------  ---------------      ----- ------------  ---------------
   106      1.810862   4 C  py               43      1.776305   2 C  px        
   151      1.714181   9 H  s                36     -1.464759   2 C  s         
    98     -1.434945   4 C  s                76      1.393537   3 C  pz        
    44     -1.231815   2 C  py               66      0.985637   3 C  s         
   139      0.931032   7 H  s               107     -0.878863   4 C  pz        
 
 Vector   34  Occ=0.000000D+00  E= 3.387423D-01
              MO Center=  8.9D-02,  4.4D-01, -3.9D-01, r^2= 5.8D+00
   Bfn.  Coefficient  Atom+Function         Bfn.  Coefficient  Atom+Function  
  ----- ------------  ---------------      ----- ------------  ---------------
    67      4.279164   3 C  s                76     -4.007322   3 C  pz        
   139     -3.203412   7 H  s                36     -2.176202   2 C  s         
   133      2.052610   6 H  s               157     -1.797121  10 H  s         
   107     -1.762068   4 C  pz               98      1.430132   4 C  s         
    43      1.315977   2 C  px               44     -1.035545   2 C  py        
 
 Vector   35  Occ=0.000000D+00  E= 3.615455D-01
              MO Center=  7.1D-01,  3.8D-02, -2.8D-01, r^2= 6.6D+00
   Bfn.  Coefficient  Atom+Function         Bfn.  Coefficient  Atom+Function  
  ----- ------------  ---------------      ----- ------------  ---------------
    98      7.283967   4 C  s                76      3.238910   3 C  pz        
   145     -3.104236   8 H  s                97     -2.952725   4 C  s         
   133     -2.339296   6 H  s               151     -1.712980   9 H  s         
   139      1.647065   7 H  s                45     -1.578482   2 C  pz        
    44      1.494214   2 C  py              157     -1.334340  10 H  s         
 
 Vector   36  Occ=0.000000D+00  E= 3.709754D-01
              MO Center=  5.5D-01,  2.5D-01, -1.3D-01, r^2= 6.5D+00
   Bfn.  Coefficient  Atom+Function         Bfn.  Coefficient  Atom+Function  
  ----- ------------  ---------------      ----- ------------  ---------------
    36     12.876612   2 C  s                98     -9.329066   4 C  s         
    67     -8.526281   3 C  s               127     -2.895610   5 H  s         
    97      2.590323   4 C  s               157      2.336414  10 H  s         
    44      2.070895   2 C  py              151      1.839441   9 H  s         
    35     -1.802700   2 C  s                75      1.656640   3 C  py        
 
 Vector   37  Occ=0.000000D+00  E= 3.836161D-01
              MO Center=  9.4D-01, -4.0D-01, -8.6D-02, r^2= 6.2D+00
   Bfn.  Coefficient  Atom+Function         Bfn.  Coefficient  Atom+Function  
  ----- ------------  ---------------      ----- ------------  ---------------
    36      5.978213   2 C  s                98      4.852178   4 C  s         
   127     -4.401705   5 H  s                45      3.377913   2 C  pz        
    67     -2.524048   3 C  s                35     -2.266904   2 C  s         
   151     -2.240456   9 H  s               145     -2.160945   8 H  s         
    76     -2.112172   3 C  pz              133      1.616678   6 H  s         
 
 Vector   38  Occ=0.000000D+00  E= 3.952499D-01
              MO Center=  3.3D-01,  2.2D-01, -3.9D-02, r^2= 6.5D+00
   Bfn.  Coefficient  Atom+Function         Bfn.  Coefficient  Atom+Function  
  ----- ------------  ---------------      ----- ------------  ---------------
    98     11.372369   4 C  s                67     -7.833340   3 C  s         
    45      4.342351   2 C  pz               44      3.087491   2 C  py        
   133      2.668091   6 H  s                76     -2.606455   3 C  pz        
   157     -2.561479  10 H  s                43     -2.413337   2 C  px        
    75      2.075757   3 C  py               97     -1.874234   4 C  s         
 
 Vector   39  Occ=0.000000D+00  E= 4.014620D-01
              MO Center= -3.0D-01,  1.5D-01,  9.0D-02, r^2= 6.4D+00
   Bfn.  Coefficient  Atom+Function         Bfn.  Coefficient  Atom+Function  
  ----- ------------  ---------------      ----- ------------  ---------------
    36     12.021949   2 C  s                67    -11.092225   3 C  s         
    98     -6.350232   4 C  s                45     -5.800273   2 C  pz        
    44      3.279915   2 C  py              127      2.780165   5 H  s         
    66      2.643614   3 C  s               105      2.615403   4 C  px        
   139      2.557384   7 H  s                43     -2.035210   2 C  px        
 
 Vector   40  Occ=0.000000D+00  E= 4.156675D-01
              MO Center=  7.7D-01, -4.0D-01, -8.3D-01, r^2= 5.9D+00
   Bfn.  Coefficient  Atom+Function         Bfn.  Coefficient  Atom+Function  
  ----- ------------  ---------------      ----- ------------  ---------------
    98      6.796372   4 C  s                36     -2.945577   2 C  s         
    45      2.732228   2 C  pz              151     -2.467092   9 H  s         
   105     -2.409719   4 C  px              157     -1.911878  10 H  s         
   145      1.715170   8 H  s                97     -1.200197   4 C  s         
   144     -0.951497   8 H  s                35      0.870507   2 C  s         
 
 Vector   41  Occ=0.000000D+00  E= 4.280835D-01
              MO Center=  4.5D-01,  2.1D-01, -1.4D-01, r^2= 6.8D+00
   Bfn.  Coefficient  Atom+Function         Bfn.  Coefficient  Atom+Function  
  ----- ------------  ---------------      ----- ------------  ---------------
    36      9.297199   2 C  s                67     -4.847573   3 C  s         
    98     -4.082041   4 C  s                44      2.616656   2 C  py        
    75      2.542188   3 C  py              151      2.354671   9 H  s         
    43     -1.803130   2 C  px               45     -1.625791   2 C  pz        
    74     -1.441057   3 C  px              132      1.316574   6 H  s         
 
 Vector   42  Occ=0.000000D+00  E= 4.473615D-01
              MO Center=  1.2D-01, -9.3D-02, -1.6D-01, r^2= 6.1D+00
   Bfn.  Coefficient  Atom+Function         Bfn.  Coefficient  Atom+Function  
  ----- ------------  ---------------      ----- ------------  ---------------
    36      9.984075   2 C  s                98     -9.517084   4 C  s         
    45     -5.845591   2 C  pz              127      2.938455   5 H  s         
    67     -2.914999   3 C  s                76      2.678859   3 C  pz        
   157      2.162006  10 H  s                44      2.137011   2 C  py        
   106     -2.086329   4 C  py              133     -2.055463   6 H  s         
 
 Vector   43  Occ=0.000000D+00  E= 4.598951D-01
              MO Center=  9.8D-02,  7.7D-01, -5.9D-01, r^2= 5.2D+00
   Bfn.  Coefficient  Atom+Function         Bfn.  Coefficient  Atom+Function  
  ----- ------------  ---------------      ----- ------------  ---------------
   139      3.202533   7 H  s               157     -2.517401  10 H  s         
   107     -2.302987   4 C  pz               75     -2.252246   3 C  py        
    44     -1.712368   2 C  py               43      1.698249   2 C  px        
    45     -1.625498   2 C  pz              138     -1.413200   7 H  s         
    76      1.015924   3 C  pz               74      0.884957   3 C  px        
 
 Vector   44  Occ=0.000000D+00  E= 4.683784D-01
              MO Center=  4.7D-01,  2.0D-01,  4.3D-03, r^2= 5.6D+00
   Bfn.  Coefficient  Atom+Function         Bfn.  Coefficient  Atom+Function  
  ----- ------------  ---------------      ----- ------------  ---------------
    98     -5.172582   4 C  s                36      5.098555   2 C  s         
    45     -2.201664   2 C  pz              145      1.688651   8 H  s         
    67     -1.648819   3 C  s               107     -1.573411   4 C  pz        
   133      1.504121   6 H  s                35     -1.305601   2 C  s         
   132     -1.124817   6 H  s               126      1.079367   5 H  s         
 
 Vector   45  Occ=0.000000D+00  E= 5.076871D-01
              MO Center=  8.9D-01, -3.7D-01, -9.2D-01, r^2= 4.8D+00
   Bfn.  Coefficient  Atom+Function         Bfn.  Coefficient  Atom+Function  
  ----- ------------  ---------------      ----- ------------  ---------------
    98     11.454139   4 C  s                36     -7.326235   2 C  s         
    45      4.624404   2 C  pz              107      3.083068   4 C  pz        
   106      1.342916   4 C  py              144     -1.345634   8 H  s         
   156     -1.218744  10 H  s               127     -1.149317   5 H  s         
    14     -1.060603   1 O  pz              150     -1.065507   9 H  s         
 
 Vector   46  Occ=0.000000D+00  E= 5.378336D-01
              MO Center=  1.1D-01, -3.9D-01, -4.8D-01, r^2= 4.4D+00
   Bfn.  Coefficient  Atom+Function         Bfn.  Coefficient  Atom+Function  
  ----- ------------  ---------------      ----- ------------  ---------------
    98      7.107553   4 C  s                36     -6.349054   2 C  s         
    45      3.545734   2 C  pz               76     -3.205859   3 C  pz        
   133      1.821703   6 H  s               105     -1.463153   4 C  px        
   139     -1.450913   7 H  s               107      1.419915   4 C  pz        
    14      1.173511   1 O  pz                5      1.142396   1 O  s         
 
 Vector   47  Occ=0.000000D+00  E= 6.592375D-01
              MO Center= -3.9D-01,  4.2D-02, -3.6D-02, r^2= 4.3D+00
   Bfn.  Coefficient  Atom+Function         Bfn.  Coefficient  Atom+Function  
  ----- ------------  ---------------      ----- ------------  ---------------
    36     11.867025   2 C  s                67     -9.098349   3 C  s         
    98     -4.329310   4 C  s                43     -2.574002   2 C  px        
    75      2.468700   3 C  py               13      2.303757   1 O  py        
    76      2.148925   3 C  pz              105      1.617294   4 C  px        
   139      1.551601   7 H  s                44      1.426813   2 C  py        
 
 Vector   48  Occ=0.000000D+00  E= 6.758880D-01
              MO Center= -2.3D-01,  3.5D-01,  1.2D-01, r^2= 3.9D+00
   Bfn.  Coefficient  Atom+Function         Bfn.  Coefficient  Atom+Function  
  ----- ------------  ---------------      ----- ------------  ---------------
    36      7.248386   2 C  s                67     -7.230315   3 C  s         
     5      3.110741   1 O  s                75      2.386993   3 C  py        
    13      1.973251   1 O  py               98     -1.935246   4 C  s         
    45     -1.199554   2 C  pz                4     -1.127479   1 O  s         
    43     -1.055577   2 C  px               44      0.820354   2 C  py        
 
 Vector   49  Occ=0.000000D+00  E= 7.050178D-01
              MO Center=  1.2D-01, -3.1D-01, -2.4D-01, r^2= 4.6D+00
   Bfn.  Coefficient  Atom+Function         Bfn.  Coefficient  Atom+Function  
  ----- ------------  ---------------      ----- ------------  ---------------
    67      9.985327   3 C  s                36     -8.014954   2 C  s         
    43      3.801449   2 C  px               44     -3.605073   2 C  py        
    75     -2.911754   3 C  py                5      2.207741   1 O  s         
    98     -2.120524   4 C  s                12      1.726796   1 O  px        
   106      1.705194   4 C  py               13     -1.425667   1 O  py        
 
 Vector   50  Occ=0.000000D+00  E= 7.617688D-01
              MO Center=  6.3D-01, -1.8D-03, -3.4D-01, r^2= 4.0D+00
   Bfn.  Coefficient  Atom+Function         Bfn.  Coefficient  Atom+Function  
  ----- ------------  ---------------      ----- ------------  ---------------
    45      2.382300   2 C  pz               36      1.709047   2 C  s         
   127     -1.660237   5 H  s               105     -1.590328   4 C  px        
     5     -1.491663   1 O  s                43      1.363942   2 C  px        
   126     -1.328496   5 H  s               144      1.267958   8 H  s         
    76     -1.025872   3 C  pz               66      0.963825   3 C  s         
 
 Vector   51  Occ=0.000000D+00  E= 7.967673D-01
              MO Center=  2.9D-01,  2.5D-02, -2.1D-01, r^2= 4.4D+00
   Bfn.  Coefficient  Atom+Function         Bfn.  Coefficient  Atom+Function  
  ----- ------------  ---------------      ----- ------------  ---------------
     5      4.132696   1 O  s                36     -2.412045   2 C  s         
    76     -2.423242   3 C  pz                4     -1.598234   1 O  s         
    45      1.397299   2 C  pz               12      1.343940   1 O  px        
   133      1.283691   6 H  s                43      1.174662   2 C  px        
    66     -1.030729   3 C  s                35     -1.014365   2 C  s         
 
 Vector   52  Occ=0.000000D+00  E= 8.328279D-01
              MO Center=  3.4D-01,  1.6D-01, -1.4D-02, r^2= 4.4D+00
   Bfn.  Coefficient  Atom+Function         Bfn.  Coefficient  Atom+Function  
  ----- ------------  ---------------      ----- ------------  ---------------
    36      6.455121   2 C  s                98     -4.004760   4 C  s         
     5     -3.801701   1 O  s                43     -2.539103   2 C  px        
   105      1.927430   4 C  px               35     -1.863042   2 C  s         
    45     -1.692183   2 C  pz               44      1.446248   2 C  py        
    66     -1.191803   3 C  s                97      1.114780   4 C  s         
 
 Vector   53  Occ=0.000000D+00  E= 8.557625D-01
              MO Center=  5.9D-01,  1.4D-01, -3.7D-01, r^2= 4.2D+00
   Bfn.  Coefficient  Atom+Function         Bfn.  Coefficient  Atom+Function  
  ----- ------------  ---------------      ----- ------------  ---------------
    98     -4.712664   4 C  s                45     -4.667940   2 C  pz        
    36      4.411315   2 C  s                76      2.162205   3 C  pz        
   127      1.837155   5 H  s               106     -1.519669   4 C  py        
   105      1.384008   4 C  px               44      1.371973   2 C  py        
   150     -1.238341   9 H  s               139      1.119631   7 H  s         
 
 Vector   54  Occ=0.000000D+00  E= 8.689835D-01
              MO Center=  1.7D-01, -3.7D-02, -1.2D-01, r^2= 4.2D+00
   Bfn.  Coefficient  Atom+Function         Bfn.  Coefficient  Atom+Function  
  ----- ------------  ---------------      ----- ------------  ---------------
     5      4.671634   1 O  s                36     -2.072073   2 C  s         
     4     -1.580792   1 O  s               138      1.408517   7 H  s         
    76      1.231846   3 C  pz               12      1.200490   1 O  px        
    66     -1.137917   3 C  s                67     -1.055798   3 C  s         
    43      0.933607   2 C  px               97      0.845511   4 C  s         
 
 Vector   55  Occ=0.000000D+00  E= 9.213875D-01
              MO Center=  5.1D-01,  3.0D-01, -4.8D-01, r^2= 4.5D+00
   Bfn.  Coefficient  Atom+Function         Bfn.  Coefficient  Atom+Function  
  ----- ------------  ---------------      ----- ------------  ---------------
    35      5.002422   2 C  s                36     -1.668844   2 C  s         
    67      1.472787   3 C  s               132     -1.336618   6 H  s         
    72      1.283178   3 C  py               66     -1.256416   3 C  s         
    84      1.176076   3 C  d  0            156     -1.171371  10 H  s         
    41      1.145066   2 C  py               98     -1.141143   4 C  s         
 
 Vector   56  Occ=0.000000D+00  E= 9.625743D-01
              MO Center=  4.5D-01,  3.0D-01, -5.3D-01, r^2= 4.7D+00
   Bfn.  Coefficient  Atom+Function         Bfn.  Coefficient  Atom+Function  
  ----- ------------  ---------------      ----- ------------  ---------------
    35      4.203219   2 C  s                67      2.520746   3 C  s         
   138     -2.353095   7 H  s                42     -1.782293   2 C  pz        
    76     -1.783742   3 C  pz               83     -1.645005   3 C  d -1      
   115     -1.477812   4 C  d  0             36     -1.408334   2 C  s         
   132      1.380524   6 H  s                98     -1.372050   4 C  s         
 
 Vector   57  Occ=0.000000D+00  E= 9.927698D-01
              MO Center=  3.4D-01,  4.7D-01, -1.2D-01, r^2= 4.1D+00
   Bfn.  Coefficient  Atom+Function         Bfn.  Coefficient  Atom+Function  
  ----- ------------  ---------------      ----- ------------  ---------------
    36      7.590007   2 C  s                98     -4.974965   4 C  s         
    67     -3.976528   3 C  s                45     -3.786968   2 C  pz        
    43     -2.320859   2 C  px               44      2.141168   2 C  py        
    66     -1.707867   3 C  s               127      1.566850   5 H  s         
    75      1.454615   3 C  py              126      1.364254   5 H  s         
 
 Vector   58  Occ=0.000000D+00  E= 1.012574D+00
              MO Center=  3.7D-01,  5.4D-01, -5.6D-02, r^2= 4.3D+00
   Bfn.  Coefficient  Atom+Function         Bfn.  Coefficient  Atom+Function  
  ----- ------------  ---------------      ----- ------------  ---------------
    36      5.503847   2 C  s                67     -4.491006   3 C  s         
    45     -2.162380   2 C  pz               44      1.838867   2 C  py        
    98     -1.733143   4 C  s               156     -1.475953  10 H  s         
   144      1.361092   8 H  s                43     -1.346858   2 C  px        
    82      1.352202   3 C  d -2             74     -1.316121   3 C  px        
 
 Vector   59  Occ=0.000000D+00  E= 1.042795D+00
              MO Center=  6.9D-01, -1.6D-01, -4.6D-01, r^2= 4.2D+00
   Bfn.  Coefficient  Atom+Function         Bfn.  Coefficient  Atom+Function  
  ----- ------------  ---------------      ----- ------------  ---------------
    36      2.864498   2 C  s                35      2.701415   2 C  s         
    66     -2.356845   3 C  s               150      1.964253   9 H  s         
     5     -1.932022   1 O  s               144     -1.893157   8 H  s         
   117      1.712254   4 C  d  2             41      1.555181   2 C  py        
    44      1.377105   2 C  py               67     -1.378634   3 C  s         
 
 Vector   60  Occ=0.000000D+00  E= 1.080837D+00
              MO Center=  6.7D-01,  8.6D-03, -7.8D-02, r^2= 4.1D+00
   Bfn.  Coefficient  Atom+Function         Bfn.  Coefficient  Atom+Function  
  ----- ------------  ---------------      ----- ------------  ---------------
    98      4.110551   4 C  s                66     -3.890918   3 C  s         
    45      3.783657   2 C  pz               97      3.743545   4 C  s         
    36     -3.197066   2 C  s               104      2.524429   4 C  pz        
    41      2.480351   2 C  py               42      2.379216   2 C  pz        
    72      2.245371   3 C  py               53     -2.153138   2 C  d  0      
 
 Vector   61  Occ=0.000000D+00  E= 1.103513D+00
              MO Center=  3.7D-01,  7.3D-02,  8.1D-02, r^2= 3.8D+00
   Bfn.  Coefficient  Atom+Function         Bfn.  Coefficient  Atom+Function  
  ----- ------------  ---------------      ----- ------------  ---------------
    36      7.989090   2 C  s                67     -5.464061   3 C  s         
    98     -3.294929   4 C  s                66      2.329455   3 C  s         
    45     -2.195879   2 C  pz              126     -2.037805   5 H  s         
    72     -1.702191   3 C  py              132      1.700553   6 H  s         
    97     -1.634418   4 C  s                53      1.597614   2 C  d  0      
 
 Vector   62  Occ=0.000000D+00  E= 1.145854D+00
              MO Center=  6.3D-01, -2.1D-02, -5.7D-02, r^2= 3.5D+00
   Bfn.  Coefficient  Atom+Function         Bfn.  Coefficient  Atom+Function  
  ----- ------------  ---------------      ----- ------------  ---------------
    67      4.947746   3 C  s                36     -3.683179   2 C  s         
    44     -2.332589   2 C  py               97     -1.854469   4 C  s         
   126      1.758379   5 H  s                54      1.578243   2 C  d  1      
    43      1.506578   2 C  px               55      1.500772   2 C  d  2      
    42     -1.452168   2 C  pz               75     -1.407331   3 C  py        
 
 Vector   63  Occ=0.000000D+00  E= 1.217528D+00
              MO Center=  5.6D-01,  2.0D-01, -1.4D-01, r^2= 3.8D+00
   Bfn.  Coefficient  Atom+Function         Bfn.  Coefficient  Atom+Function  
  ----- ------------  ---------------      ----- ------------  ---------------
    36      6.740169   2 C  s                66     -4.970007   3 C  s         
    97     -3.415696   4 C  s                67     -3.351242   3 C  s         
    35      3.136382   2 C  s                72      1.864765   3 C  py        
    51     -1.755665   2 C  d -2             52      1.696844   2 C  d -1      
   138      1.701843   7 H  s               104     -1.543006   4 C  pz        
 
 Vector   64  Occ=0.000000D+00  E= 1.349253D+00
              MO Center=  3.4D-01,  5.5D-01,  2.2D-01, r^2= 3.6D+00
   Bfn.  Coefficient  Atom+Function         Bfn.  Coefficient  Atom+Function  
  ----- ------------  ---------------      ----- ------------  ---------------
    66      4.768145   3 C  s                35      3.895465   2 C  s         
    67     -3.180719   3 C  s                36     -2.657495   2 C  s         
    65     -2.437478   3 C  s               132     -2.028742   6 H  s         
    34     -1.420798   2 C  s               133      1.421337   6 H  s         
    72      1.349289   3 C  py              139      1.117370   7 H  s         
 
 Vector   65  Occ=0.000000D+00  E= 1.416141D+00
              MO Center=  1.5D-01,  5.2D-01, -3.9D-02, r^2= 3.4D+00
   Bfn.  Coefficient  Atom+Function         Bfn.  Coefficient  Atom+Function  
  ----- ------------  ---------------      ----- ------------  ---------------
    36     -4.250832   2 C  s                35      3.902046   2 C  s         
    66     -3.795385   3 C  s                67      3.778382   3 C  s         
    73      2.314415   3 C  pz              138      2.235372   7 H  s         
   139     -2.192354   7 H  s               126     -1.757661   5 H  s         
    76     -1.678182   3 C  pz               34     -1.577444   2 C  s         
 
 Vector   66  Occ=0.000000D+00  E= 1.433311D+00
              MO Center=  1.1D+00, -4.6D-01, -1.1D+00, r^2= 3.5D+00
   Bfn.  Coefficient  Atom+Function         Bfn.  Coefficient  Atom+Function  
  ----- ------------  ---------------      ----- ------------  ---------------
    98     10.163601   4 C  s                97     -7.632680   4 C  s         
    96      3.079394   4 C  s                36     -2.615982   2 C  s         
   145     -2.424369   8 H  s               151     -2.286556   9 H  s         
   157     -2.117856  10 H  s               144      1.731568   8 H  s         
   150      1.631083   9 H  s               104      1.455808   4 C  pz        
 
 Vector   67  Occ=0.000000D+00  E= 1.443746D+00
              MO Center=  4.5D-01,  4.4D-02, -3.6D-01, r^2= 4.1D+00
   Bfn.  Coefficient  Atom+Function         Bfn.  Coefficient  Atom+Function  
  ----- ------------  ---------------      ----- ------------  ---------------
    66      4.302586   3 C  s                67     -2.951543   3 C  s         
    35     -2.489381   2 C  s                36      2.417428   2 C  s         
   133      1.643914   6 H  s                98      1.611776   4 C  s         
    65     -1.516506   3 C  s                76     -1.378530   3 C  pz        
     5     -1.336810   1 O  s               132     -1.283132   6 H  s         
 
 Vector   68  Occ=0.000000D+00  E= 1.445335D+00
              MO Center=  2.6D-01, -4.3D-02,  6.1D-02, r^2= 3.1D+00
   Bfn.  Coefficient  Atom+Function         Bfn.  Coefficient  Atom+Function  
  ----- ------------  ---------------      ----- ------------  ---------------
    98      5.623540   4 C  s                97     -2.954859   4 C  s         
    45      2.470613   2 C  pz               35     -2.297243   2 C  s         
    36     -1.925680   2 C  s                 5      1.703132   1 O  s         
   127     -1.696175   5 H  s                76     -1.438865   3 C  pz        
    96      1.263124   4 C  s               126      1.257614   5 H  s         
 
 Vector   69  Occ=0.000000D+00  E= 1.474711D+00
              MO Center=  9.6D-01, -2.5D-01, -9.6D-01, r^2= 3.5D+00
   Bfn.  Coefficient  Atom+Function         Bfn.  Coefficient  Atom+Function  
  ----- ------------  ---------------      ----- ------------  ---------------
    66      2.014923   3 C  s                36      1.945703   2 C  s         
    67     -1.413895   3 C  s               103      1.331392   4 C  py        
     5     -1.229937   1 O  s               156     -1.028999  10 H  s         
   150      0.989559   9 H  s                98     -0.940570   4 C  s         
    97      0.874211   4 C  s                65     -0.841133   3 C  s         
 
 Vector   70  Occ=0.000000D+00  E= 1.478398D+00
              MO Center=  9.3D-01, -4.0D-01, -9.9D-01, r^2= 3.4D+00
   Bfn.  Coefficient  Atom+Function         Bfn.  Coefficient  Atom+Function  
  ----- ------------  ---------------      ----- ------------  ---------------
   156     -2.554942  10 H  s                36      2.501608   2 C  s         
    66     -2.102336   3 C  s               102     -2.009274   4 C  px        
   157      1.968479  10 H  s               104     -1.704983   4 C  pz        
   126      1.611441   5 H  s               103      1.530883   4 C  py        
   144      1.291141   8 H  s               127     -1.264265   5 H  s         
 
 Vector   71  Occ=0.000000D+00  E= 1.513300D+00
              MO Center=  3.5D-01,  1.3D-01, -3.4D-01, r^2= 4.0D+00
   Bfn.  Coefficient  Atom+Function         Bfn.  Coefficient  Atom+Function  
  ----- ------------  ---------------      ----- ------------  ---------------
    98      2.740842   4 C  s               144      1.896056   8 H  s         
   102     -1.583763   4 C  px              145     -1.416589   8 H  s         
   103     -1.401707   4 C  py               45      1.337173   2 C  pz        
    97     -1.189329   4 C  s                36     -1.087992   2 C  s         
   150     -0.979679   9 H  s                66      0.965961   3 C  s         
 
 Vector   72  Occ=0.000000D+00  E= 1.542517D+00
              MO Center=  3.5D-01,  4.5D-01, -2.1D-01, r^2= 4.6D+00
   Bfn.  Coefficient  Atom+Function         Bfn.  Coefficient  Atom+Function  
  ----- ------------  ---------------      ----- ------------  ---------------
    36      4.463056   2 C  s                35     -3.739992   2 C  s         
    98     -3.691097   4 C  s                97      3.169951   4 C  s         
    67     -2.473270   3 C  s                73      2.143150   3 C  pz        
   132     -1.737853   6 H  s               133      1.436608   6 H  s         
   102     -1.377211   4 C  px              138      1.374011   7 H  s         
 
 Vector   73  Occ=0.000000D+00  E= 1.577225D+00
              MO Center=  4.6D-01,  7.4D-03, -2.9D-02, r^2= 3.2D+00
   Bfn.  Coefficient  Atom+Function         Bfn.  Coefficient  Atom+Function  
  ----- ------------  ---------------      ----- ------------  ---------------
    35      3.284338   2 C  s                36     -2.648351   2 C  s         
    40     -2.001031   2 C  px               97     -1.932300   4 C  s         
   126      1.872546   5 H  s                67      1.781957   3 C  s         
    72      1.552139   3 C  py               42     -1.541689   2 C  pz        
    34     -1.378402   2 C  s               127     -1.351230   5 H  s         
 
 Vector   74  Occ=0.000000D+00  E= 1.599403D+00
              MO Center=  3.4D-01,  3.9D-01, -1.4D-01, r^2= 3.4D+00
   Bfn.  Coefficient  Atom+Function         Bfn.  Coefficient  Atom+Function  
  ----- ------------  ---------------      ----- ------------  ---------------
    36     -5.265205   2 C  s                66     -5.147420   3 C  s         
    35      4.974787   2 C  s                67      3.941858   3 C  s         
    41      3.735993   2 C  py               71     -2.559927   3 C  px        
    72      2.360143   3 C  py               40     -2.128202   2 C  px        
    98      1.806367   4 C  s                82      1.677940   3 C  d -2      
 
 Vector   75  Occ=0.000000D+00  E= 1.643498D+00
              MO Center=  4.7D-01,  1.7D-01, -3.7D-02, r^2= 3.7D+00
   Bfn.  Coefficient  Atom+Function         Bfn.  Coefficient  Atom+Function  
  ----- ------------  ---------------      ----- ------------  ---------------
    66      2.706583   3 C  s                35      2.239761   2 C  s         
    98      1.955678   4 C  s                 5     -1.822569   1 O  s         
    97     -1.720402   4 C  s                67     -1.450753   3 C  s         
   104     -1.231741   4 C  pz              144      1.151037   8 H  s         
   150     -1.056370   9 H  s               103     -1.047052   4 C  py        
 
 Vector   76  Occ=0.000000D+00  E= 1.693841D+00
              MO Center=  3.9D-01,  3.5D-01, -3.6D-01, r^2= 4.0D+00
   Bfn.  Coefficient  Atom+Function         Bfn.  Coefficient  Atom+Function  
  ----- ------------  ---------------      ----- ------------  ---------------
    97      5.996575   4 C  s                35     -5.447363   2 C  s         
    42      3.198337   2 C  pz              104      3.188637   4 C  pz        
    72      2.187451   3 C  py                5      1.967032   1 O  s         
   102     -1.760083   4 C  px               34      1.655727   2 C  s         
   138     -1.602981   7 H  s                96     -1.563331   4 C  s         
 
 Vector   77  Occ=0.000000D+00  E= 1.699368D+00
              MO Center=  1.2D-01,  4.3D-02, -1.4D-01, r^2= 3.5D+00
   Bfn.  Coefficient  Atom+Function         Bfn.  Coefficient  Atom+Function  
  ----- ------------  ---------------      ----- ------------  ---------------
     5      3.512984   1 O  s                72      2.732178   3 C  py        
    66     -2.343065   3 C  s                36     -2.238708   2 C  s         
   138     -1.485013   7 H  s                12      1.371942   1 O  px        
    41      1.252373   2 C  py               43      1.090077   2 C  px        
    67      1.007221   3 C  s                44     -0.907840   2 C  py        
 
 Vector   78  Occ=0.000000D+00  E= 1.789696D+00
              MO Center=  4.1D-01,  2.9D-01,  9.8D-03, r^2= 3.5D+00
   Bfn.  Coefficient  Atom+Function         Bfn.  Coefficient  Atom+Function  
  ----- ------------  ---------------      ----- ------------  ---------------
    35      2.850336   2 C  s                97     -2.796120   4 C  s         
    36      1.705671   2 C  s                45     -1.285056   2 C  pz        
    67     -1.181837   3 C  s               104     -1.172401   4 C  pz        
    42     -1.101627   2 C  pz               72      0.978038   3 C  py        
   102      0.968557   4 C  px               96      0.906410   4 C  s         
 
 Vector   79  Occ=0.000000D+00  E= 1.815103D+00
              MO Center= -6.4D-01,  1.9D-01,  1.9D-01, r^2= 2.6D+00
   Bfn.  Coefficient  Atom+Function         Bfn.  Coefficient  Atom+Function  
  ----- ------------  ---------------      ----- ------------  ---------------
    35      4.111231   2 C  s                 5     -3.311419   1 O  s         
    40     -2.482985   2 C  px               41      2.112148   2 C  py        
    72      2.024595   3 C  py               66     -1.773578   3 C  s         
    71     -1.630784   3 C  px               12     -1.383121   1 O  px        
   132     -1.071144   6 H  s               138     -1.065624   7 H  s         
 
 Vector   80  Occ=0.000000D+00  E= 1.843220D+00
              MO Center=  9.7D-02,  2.6D-01, -7.3D-02, r^2= 3.7D+00
   Bfn.  Coefficient  Atom+Function         Bfn.  Coefficient  Atom+Function  
  ----- ------------  ---------------      ----- ------------  ---------------
    35      1.989123   2 C  s                36     -1.170930   2 C  s         
   156     -0.946408  10 H  s               104     -0.842757   4 C  pz        
    71     -0.782057   3 C  px               97     -0.766391   4 C  s         
    67      0.662824   3 C  s               157      0.644817  10 H  s         
   126     -0.628780   5 H  s               150      0.628656   9 H  s         
 
 Vector   81  Occ=0.000000D+00  E= 1.868674D+00
              MO Center=  5.1D-01,  1.8D-01, -4.3D-01, r^2= 4.0D+00
   Bfn.  Coefficient  Atom+Function         Bfn.  Coefficient  Atom+Function  
  ----- ------------  ---------------      ----- ------------  ---------------
    35      6.667403   2 C  s                66     -4.511984   3 C  s         
    72      3.522736   3 C  py               97     -3.328610   4 C  s         
    36      2.155284   2 C  s               104     -1.881809   4 C  pz        
    34     -1.663000   2 C  s                41      1.617919   2 C  py        
    67     -1.489889   3 C  s                45     -1.387624   2 C  pz        
 
 Vector   82  Occ=0.000000D+00  E= 1.926440D+00
              MO Center=  3.2D-01, -1.6D-01, -2.9D-01, r^2= 3.2D+00
   Bfn.  Coefficient  Atom+Function         Bfn.  Coefficient  Atom+Function  
  ----- ------------  ---------------      ----- ------------  ---------------
    98     -1.508194   4 C  s                36      1.437752   2 C  s         
   103     -1.227074   4 C  py               45     -1.210234   2 C  pz        
    97     -1.162673   4 C  s                42     -0.846547   2 C  pz        
    35      0.767144   2 C  s               150     -0.738890   9 H  s         
    40      0.729201   2 C  px              104     -0.653861   4 C  pz        
 
 Vector   83  Occ=0.000000D+00  E= 1.992155D+00
              MO Center=  9.6D-01, -3.1D-01, -6.1D-01, r^2= 3.4D+00
   Bfn.  Coefficient  Atom+Function         Bfn.  Coefficient  Atom+Function  
  ----- ------------  ---------------      ----- ------------  ---------------
    98      4.539514   4 C  s                35      3.707028   2 C  s         
    36     -2.746424   2 C  s                66     -2.599302   3 C  s         
    40     -1.928677   2 C  px               72      1.835618   3 C  py        
    41      1.659181   2 C  py              107      1.406768   4 C  pz        
    43     -1.370272   2 C  px               34     -1.168009   2 C  s         
 
 Vector   84  Occ=0.000000D+00  E= 1.993932D+00
              MO Center=  4.7D-01,  5.9D-04, -4.8D-01, r^2= 3.4D+00
   Bfn.  Coefficient  Atom+Function         Bfn.  Coefficient  Atom+Function  
  ----- ------------  ---------------      ----- ------------  ---------------
    36      3.709267   2 C  s                98     -2.602448   4 C  s         
    45     -1.945181   2 C  pz               67     -1.889769   3 C  s         
    40     -1.205956   2 C  px                5     -1.152842   1 O  s         
   156      0.906327  10 H  s               104      0.838175   4 C  pz        
    44      0.819356   2 C  py               43     -0.778166   2 C  px        
 
 Vector   85  Occ=0.000000D+00  E= 2.089037D+00
              MO Center= -2.5D-02,  1.5D-01, -3.9D-02, r^2= 3.5D+00
   Bfn.  Coefficient  Atom+Function         Bfn.  Coefficient  Atom+Function  
  ----- ------------  ---------------      ----- ------------  ---------------
    36      2.314984   2 C  s                98     -2.249924   4 C  s         
   138     -0.747152   7 H  s               156      0.735468  10 H  s         
    14     -0.637199   1 O  pz               35     -0.616998   2 C  s         
   144      0.575177   8 H  s                45     -0.501059   2 C  pz        
   107     -0.501047   4 C  pz              150      0.501304   9 H  s         
 
 Vector   86  Occ=0.000000D+00  E= 2.097517D+00
              MO Center= -3.5D-01,  5.9D-02,  4.5D-02, r^2= 3.0D+00
   Bfn.  Coefficient  Atom+Function         Bfn.  Coefficient  Atom+Function  
  ----- ------------  ---------------      ----- ------------  ---------------
    36      5.981853   2 C  s                67     -5.734351   3 C  s         
    35     -3.278630   2 C  s                66      3.177695   3 C  s         
    41     -3.033613   2 C  py               71      2.708455   3 C  px        
    13      1.880953   1 O  py               82     -1.445661   3 C  d -2      
    43     -1.382741   2 C  px               75      1.363467   3 C  py        
 
 Vector   87  Occ=0.000000D+00  E= 2.168436D+00
              MO Center=  4.9D-01, -4.9D-02, -5.0D-01, r^2= 3.2D+00
   Bfn.  Coefficient  Atom+Function         Bfn.  Coefficient  Atom+Function  
  ----- ------------  ---------------      ----- ------------  ---------------
    67      1.902625   3 C  s                98     -1.897309   4 C  s         
    35      1.263645   2 C  s                36     -1.085709   2 C  s         
    73     -1.007610   3 C  pz               44     -0.879463   2 C  py        
    40     -0.859155   2 C  px               43      0.849391   2 C  px        
    42      0.828995   2 C  pz              156      0.827443  10 H  s         
 
 Vector   88  Occ=0.000000D+00  E= 2.200253D+00
              MO Center=  4.5D-01,  1.7D-01, -3.0D-01, r^2= 3.7D+00
   Bfn.  Coefficient  Atom+Function         Bfn.  Coefficient  Atom+Function  
  ----- ------------  ---------------      ----- ------------  ---------------
    98      2.097698   4 C  s                45      0.990477   2 C  pz        
    42     -0.848589   2 C  pz               76     -0.832222   3 C  pz        
   132      0.804762   6 H  s               103     -0.722839   4 C  py        
    97     -0.690474   4 C  s                36     -0.685742   2 C  s         
   117     -0.682514   4 C  d  2            138     -0.592055   7 H  s         
 
 Vector   89  Occ=0.000000D+00  E= 2.231832D+00
              MO Center=  6.3D-01,  5.5D-03, -8.8D-02, r^2= 3.6D+00
   Bfn.  Coefficient  Atom+Function         Bfn.  Coefficient  Atom+Function  
  ----- ------------  ---------------      ----- ------------  ---------------
    36      3.344693   2 C  s                98     -1.830898   4 C  s         
    67     -1.596944   3 C  s                 5     -1.105521   1 O  s         
    42     -0.959398   2 C  pz               45     -0.963129   2 C  pz        
   150      0.749785   9 H  s                43     -0.724969   2 C  px        
    72     -0.719498   3 C  py               76      0.720455   3 C  pz        
 
 Vector   90  Occ=0.000000D+00  E= 2.243678D+00
              MO Center=  7.9D-01, -2.5D-01, -8.0D-01, r^2= 3.6D+00
   Bfn.  Coefficient  Atom+Function         Bfn.  Coefficient  Atom+Function  
  ----- ------------  ---------------      ----- ------------  ---------------
   150      1.288412   9 H  s                36      1.132640   2 C  s         
   144     -0.930373   8 H  s                66     -0.847984   3 C  s         
    67     -0.799773   3 C  s                72      0.775030   3 C  py        
    98     -0.757425   4 C  s               117      0.730193   4 C  d  2      
    83      0.526374   3 C  d -1            149     -0.527145   9 H  s         
 
 Vector   91  Occ=0.000000D+00  E= 2.267439D+00
              MO Center=  9.3D-01, -2.6D-01, -1.1D+00, r^2= 3.0D+00
   Bfn.  Coefficient  Atom+Function         Bfn.  Coefficient  Atom+Function  
  ----- ------------  ---------------      ----- ------------  ---------------
    66      2.246748   3 C  s                36      1.841011   2 C  s         
    41     -1.487490   2 C  py               67     -1.285776   3 C  s         
    98     -1.173662   4 C  s                35     -1.127810   2 C  s         
    72     -1.009498   3 C  py              156      0.989507  10 H  s         
   126     -0.886099   5 H  s                71      0.857939   3 C  px        
 
 Vector   92  Occ=0.000000D+00  E= 2.285821D+00
              MO Center=  5.1D-01,  1.8D-01, -1.6D-01, r^2= 3.5D+00
   Bfn.  Coefficient  Atom+Function         Bfn.  Coefficient  Atom+Function  
  ----- ------------  ---------------      ----- ------------  ---------------
    98      3.633086   4 C  s                66      2.425162   3 C  s         
[...]
    21     -0.872439   1 O  d -1             42     -0.827986   2 C  pz        
    97     -0.760151   4 C  s                45     -0.717122   2 C  pz        
    98     -0.545596   4 C  s                67     -0.522466   3 C  s         
   102      0.517733   4 C  px               83     -0.497798   3 C  d -1      
 
 Vector  154  Occ=0.000000D+00  E= 6.678301D+00
              MO Center= -8.7D-01, -1.8D-01,  2.0D-01, r^2= 5.7D-01
   Bfn.  Coefficient  Atom+Function         Bfn.  Coefficient  Atom+Function  
  ----- ------------  ---------------      ----- ------------  ---------------
    18      1.060720   1 O  d  1             23     -1.038554   1 O  d  1      
    97     -0.889294   4 C  s                42     -0.796650   2 C  pz        
    35      0.775995   2 C  s               102      0.649331   4 C  px        
    54     -0.541056   2 C  d  1             14      0.409278   1 O  pz        
    16     -0.396512   1 O  d -1             11      0.394105   1 O  pz        
 
 Vector  155  Occ=0.000000D+00  E= 6.842510D+00
              MO Center= -8.8D-01, -1.8D-01,  2.0D-01, r^2= 5.9D-01
   Bfn.  Coefficient  Atom+Function         Bfn.  Coefficient  Atom+Function  
  ----- ------------  ---------------      ----- ------------  ---------------
     5      2.087517   1 O  s                40      1.741624   2 C  px        
     9      1.350935   1 O  px               97     -1.324490   4 C  s         
     4      1.198928   1 O  s                20      1.054147   1 O  d -2      
    42     -0.994773   2 C  pz               12      0.836080   1 O  px        
    15     -0.836793   1 O  d -2            104     -0.839928   4 C  pz        
 
 Vector  156  Occ=0.000000D+00  E= 7.056013D+00
              MO Center= -8.8D-01, -1.8D-01,  2.0D-01, r^2= 6.3D-01
   Bfn.  Coefficient  Atom+Function         Bfn.  Coefficient  Atom+Function  
  ----- ------------  ---------------      ----- ------------  ---------------
    66     -3.167677   3 C  s                35      3.024651   2 C  s         
    40     -2.739987   2 C  px               72      2.685257   3 C  py        
    24     -1.583474   1 O  d  2             36      1.498989   2 C  s         
    67     -1.331374   3 C  s                10      1.287151   1 O  py        
    19      1.017987   1 O  d  2             13      0.873537   1 O  py        
 
 Vector  157  Occ=0.000000D+00  E= 2.194833D+01
              MO Center=  7.0D-02,  7.9D-01,  5.5D-02, r^2= 1.2D+00
   Bfn.  Coefficient  Atom+Function         Bfn.  Coefficient  Atom+Function  
  ----- ------------  ---------------      ----- ------------  ---------------
    64      1.587475   3 C  s                65     -1.348598   3 C  s         
    67     -1.284211   3 C  s                63     -1.250765   3 C  s         
    98      1.050584   4 C  s                95     -0.751070   4 C  s         
    96      0.611762   4 C  s                94      0.593958   4 C  s         
    40     -0.491407   2 C  px               35      0.430315   2 C  s         
 
 Vector  158  Occ=0.000000D+00  E= 2.198295D+01
              MO Center=  8.9D-01, -2.6D-01, -7.1D-01, r^2= 1.1D+00
   Bfn.  Coefficient  Atom+Function         Bfn.  Coefficient  Atom+Function  
  ----- ------------  ---------------      ----- ------------  ---------------
    95      1.421847   4 C  s                96     -1.313785   4 C  s         
    98     -1.135272   4 C  s                94     -1.118487   4 C  s         
    34     -0.981308   2 C  s                36     -0.924144   2 C  s         
    33      0.891128   2 C  s                32     -0.696282   2 C  s         
    65     -0.624870   3 C  s                67      0.594914   3 C  s         
 
 Vector  159  Occ=0.000000D+00  E= 2.210654D+01
              MO Center=  6.2D-01, -1.2D-01, -8.6D-02, r^2= 7.1D-01
   Bfn.  Coefficient  Atom+Function         Bfn.  Coefficient  Atom+Function  
  ----- ------------  ---------------      ----- ------------  ---------------
    36      2.175990   2 C  s                33     -1.532163   2 C  s         
    34      1.512740   2 C  s                98     -1.319831   4 C  s         
    35     -1.312518   2 C  s                32      1.199688   2 C  s         
    67     -1.133319   3 C  s                95      0.737423   4 C  s         
    97      0.667903   4 C  s                96     -0.657867   4 C  s         
 
 Vector  160  Occ=0.000000D+00  E= 4.341739D+01
              MO Center= -8.7D-01, -1.8D-01,  2.0D-01, r^2= 1.2D-01
   Bfn.  Coefficient  Atom+Function         Bfn.  Coefficient  Atom+Function  
  ----- ------------  ---------------      ----- ------------  ---------------
     4      2.518397   1 O  s                 3     -1.877403   1 O  s         
     2      1.731739   1 O  s                 1     -1.395875   1 O  s         
     5     -0.871407   1 O  s                36      0.817798   2 C  s         
     9      0.565193   1 O  px               66     -0.525581   3 C  s         
    72      0.470851   3 C  py               40      0.464249   2 C  px        
 

 center of mass
 --------------
 x =   0.30619366 y =   0.09486541 z =  -0.27792493

 moments of inertia (a.u.)
 ------------------
         199.325307383390          45.990511198199          83.355709351435
          45.990511198199         247.281881386176         -52.557293134711
          83.355709351435         -52.557293134711         238.418212352630
 
     Multipole analysis of the density
     ---------------------------------
 
     L   x y z        total         alpha         beta         nuclear
     -   - - -        -----         -----         ----         -------
     0   0 0 0     -0.000000    -16.000000    -16.000000     32.000000
 
     1   1 0 0      0.686384     -6.224912     -6.224912     13.136209
     1   0 1 0      0.322132     -1.631272     -1.631272      3.584676
     1   0 0 1     -0.058868      5.312529      5.312529    -10.683927
 
     2   2 0 0    -20.010100    -54.279031    -54.279031     88.547961
     2   1 1 0     -1.111776     13.963964     13.963964    -29.039705
     2   1 0 1      0.176489     26.350095     26.350095    -52.523702
     2   0 2 0    -17.853166    -40.399890    -40.399890     62.946613
     2   0 1 1      0.239130    -15.385726    -15.385726     31.010582
     2   0 0 2    -18.210073    -45.626052    -45.626052     73.042031
 
 *** CALLING NEW AORESP DRIVER FOR CLOSED AND OPEN SHELLS ***
 Entering AOResponse driver routine


--------------------------------------------------------------------------------

          ****************
          *** RESPONSE ***
          ****************

 Response module for NWChem and dynamic CPKS solver
 developed by J. Autschbach and coworkers, SUNY Buffalo
 The methodology used in this program is described in 
 ChemPhysChem 12 (2011), 3224-3235 (main reference)
 J. Chem. Phys. 123 (2005), 114103
 J. Chem. Phys. 122 (2005), 224115
 J. Chem. Phys. 122 (2005), 074105
 Comp. Lett. 3 (2007), 131-150 (contact JA for a copy)
 Please cite this work in publications based on results
 obtained with this code. Thank you!

 For extension of response module to open shell
 calculations please acknowledge:
 F. Aquino, Northwestern University, Schatz Rsrch Group
 The update to the methodology is described in
 J. Phys. Chem. A 118 (2014) 517-525



          -----------------------------------------------
          Solving response equations for perturbing field
          -----------------------------------------------

 number of frequencies:     1
 frequency in a.u.:  0.9319600E-01
 Perturbing field: electric
 Using GIAO formalism for OptRot
 Adding quadrupole terms to OptRot
 to create an origin in dependent tensor.
 Using El. Dipole Length Gauge
 
 Applying DAMPING constant of  0.003700 a.u.
 
 Setting up CPKS
 with frequency omega =      0.09319600 a.u.
 and a damping of            0.00370000 a.u.

 
                            NWChem Dynamic CPHF Module
                            --------------------------
 
 
    scftype = RHF 
    nclosed =   16
      nopen =    0
  variables =     9216
  num. vecs =        3
  tolerance =   1.0D-07
  max. iter =  100

 SCF residual:   3.276120183705364E-006


Iterative solution of linear equations
  No. of variables     4608
  No. of equations        3
  Maximum subspace       99
       Convergence  1.0D-07
        Start time     86.2


   iter   nsub   residual    time 
   ----  ------  --------  --------- 
 dft_CPHF2_read: failed to open
 ./methyloxirane_blyp-def2-tzvp_488.9_30.inp.aoresp_fiao_f1
     1      3    3.75D+00     129.8
     2      6    2.65D+00     173.2
     3      9    2.44D-01     216.8
     4     12    5.45D-02     260.4
     5     15    1.04D-02     304.0
     6     18    1.29D-03     347.5
     7     21    1.45D-04     391.0
     8     24    1.47D-05     434.5
     9     27    1.36D-06     477.9
    10     30    5.06D-07     521.5
    11     33    1.67D-08     565.2

 Calculating some arrays needed for GIAO optical rotation

    0 giaofock schwarz done =      93.89%
    0 giaofock schwarz done =      93.11%
 aor_r1_tensor_giao: roadata output requested
 dip-quad polarizability Re:

              1        2        3        4        5        6      
    1   77.2789  -6.0074 -27.4991  -4.6613   1.5627   9.3095
    2  -11.7219  25.5361   3.7401  23.7035 -21.9256   3.8446
    3   -6.6499   1.5595  39.3955  -0.5595  14.0865 -39.9783
 traceless dip-quad polarizability:

              1        2        3      
    1   74.9547  -9.0111 -41.2487
    2   -9.0111 -47.9555   2.3440
    3  -41.2487   2.3440 -26.9992

              1        2        3      
    1  -25.4960  38.3042   5.6101
    2   38.3042  27.6422 -32.8884
    3    5.6101 -32.8884  -2.1462

              1        2        3      
    1   13.6190   2.3392  59.0933
    2    2.3392  22.7546  21.1297
    3   59.0933  21.1297 -36.3736

 roa begin

 alpha real:
 XX       0.4097214784970E+02
 XY      -0.5277222130951E+01
 XZ      -0.2903673899459E+01
 YX      -0.5277222145814E+01
 YY       0.4399061392892E+02
 YZ       0.3260390404922E+01
 ZX      -0.2903673912598E+01
 ZY       0.3260390397047E+01
 ZZ       0.4148966402732E+02

 alpha im:
 XX       0.1111199550238E+00
 XY      -0.3043388975873E-01
 XZ      -0.1051267256005E-01
 YX      -0.3043388457111E-01
 YY       0.1291300494875E+00
 YZ       0.1912242642596E-01
 ZX      -0.1051266676015E-01
 ZY       0.1912242476984E-01
 ZZ       0.1235758146804E+00

 beta real:
 XX      -0.1552951730603E+00
 XY       0.9424797243799E+00
 XZ       0.2041618373189E+00
 YX      -0.8906842442042E+00
 YY       0.1553378936604E+00
 YZ      -0.1556464530269E+01
 ZX      -0.4957278844988E+00
 ZY       0.1871857351447E+01
 ZZ      -0.4732314169683E-02

 G-prime = -omega beta(real):
 XX      -0.1552951730603E+00
 XY       0.9424797243799E+00
 XZ       0.2041618373189E+00
 YX      -0.8906842442042E+00
 YY       0.1553378936604E+00
 YZ      -0.1556464530269E+01
 ZX      -0.4957278844988E+00
 ZY       0.1871857351447E+01
 ZZ      -0.4732314169683E-02

 beta im:
 XX      -0.6686960244604E-02
 XY       0.1356052072868E-01
 XZ       0.2925633352965E-02
 YX      -0.7965000259964E-02
 YY       0.5152436796380E-02
 YZ      -0.2398252711138E-01
 ZX      -0.1398908800865E-01
 ZY       0.4033131863604E-01
 ZZ       0.7526035756484E-03

 G-prime = -omega beta(imag):
 XX      -0.6686960244604E-02
 XY       0.1356052072868E-01
 XZ       0.2925633352965E-02
 YX      -0.7965000259964E-02
 YY       0.5152436796380E-02
 YZ      -0.2398252711138E-01
 ZX      -0.1398908800865E-01
 ZY       0.4033131863604E-01
 ZZ       0.7526035756484E-03

 dipole-quadrupole real (Cartesian):
 XXX      0.7727885209112E+02
 XXY     -0.6007425660129E+01
 XXZ     -0.2749914497799E+02
 XYY     -0.4661291957973E+01
 XYZ      0.1562673957590E+01
 XZZ      0.9309541241634E+01
 YXX     -0.1172194914878E+02
 YXY      0.2553611149142E+02
 YXZ      0.3740075870439E+01
 YYY      0.2370347726118E+02
 YYZ     -0.2192558966871E+02
 YZZ      0.3844590668103E+01
 ZXX     -0.6649914702013E+01
 ZXY      0.1559470350052E+01
 ZXZ      0.3939553443618E+02
 ZYY     -0.5595243561965E+00
 ZYZ      0.1408646959446E+02
 ZZZ     -0.3997827246127E+02

 dipole-quadrupole imag (Cartesian):
 XXX      0.2705340284709E+00
 XXY     -0.3358207724504E-01
 XXZ     -0.7573380028199E-01
 XYY     -0.3031253044734E-01
 XYZ      0.3453807660826E-02
 XZZ      0.6171005519230E-01
 YXX     -0.5639816097006E-01
 YXY      0.6160253691382E-01
 YXZ      0.2100431188271E-01
 YYY      0.9445398810069E-01
 YYZ     -0.6135403114677E-01
 YZZ      0.9856240838163E-02
 ZXX     -0.3391687086707E-01
 ZXY      0.1777935899026E-02
 ZXZ      0.1466838400661E+00
 ZYY      0.4269060971169E-02
 ZYZ      0.6914498559507E-01
 ZZZ     -0.8787747385904E-01

 dipole-quadrupole (traceless):
 XXX      0.7495472744929E+02
 XXY     -0.9011138490194E+01
 XXZ     -0.4124871746698E+02
 XYY     -0.4795548862435E+02
 XYZ      0.2344010936385E+01
 XZZ     -0.2699923882494E+02
 YXX     -0.2549598311342E+02
 YXY      0.3830416723713E+02
 YXZ      0.5610113805658E+01
 YYY      0.2764215650152E+02
 YYZ     -0.3288838450307E+02
 YZZ     -0.2146173388093E+01
 ZXX      0.1361898370672E+02
 ZXY      0.2339205525078E+01
 ZXZ      0.5909330165427E+02
 ZYY      0.2275456922545E+02
 ZYZ      0.2112970439168E+02
 ZZZ     -0.3637355293217E+02

 roa end


 Electric Dipole Response Matrix (nonzero elements):

              1        2        3      
    1   40.9721  -5.2772  -2.9037
    2   -5.2772  43.9906   3.2604
    3   -2.9037   3.2604  41.4897
 
 Imaginary part:

              1        2        3      
    1    0.1111  -0.0304  -0.0105
    2   -0.0304   0.1291   0.0191
    3   -0.0105   0.0191   0.1236

 ------------------------------------------
 average:        42.15081 + I       0.12128


 DFT Linear Response polarizability / au 
 Frequency  =       0.0931960 / au
 Wavelength =     488.8981609 / nm
              X              Y              Z
 -----------------------------------------------
 X      40.9721478     -5.2772221     -2.9036739
 Y      -5.2772221     43.9906139      3.2603904
 Z      -2.9036739      3.2603904     41.4896640
 -----------------------------------------------
 Eigenvalues =      36.9478817     50.1572071     39.3473370
 Isotropic   =      42.1508086
 Anisotropic =       9.9514983
 -----------------------------------------------
 *************************

 DFT Linear Response IMAG polarizability / au 
 Frequency  =       0.0931960 / au
 Wavelength =     488.8981609 / nm
              X              Y              Z
 -----------------------------------------------
 X       0.1111200     -0.0304339     -0.0105127
 Y      -0.0304339      0.1291300      0.0191224
 Z      -0.0105127      0.0191224      0.1235758
 -----------------------------------------------
 Eigenvalues =       0.0880630      0.1635753      0.1121875
 Isotropic   =       0.1212753
 Anisotropic =       0.0545429
 -----------------------------------------------
 *************************

 Magnetic Dipole Response Matrix (nonzero elements):
 Optical rotation tensor Beta
 (Buckingham-Dunn version including dipole-quadrupole terms)

              1        2        3      
    1    2.7566  -0.4071   0.4324
    2   -0.4071  -1.6684  -1.7199
    3    0.4324  -1.7199  -1.0379
 
 Imaginary part:

              1        2        3      
    1    0.0718  -0.1455  -0.0314
    2    0.0855  -0.0553   0.2573
    3    0.1501  -0.4328  -0.0081

 ------------------------------------------
 average:         0.01677 + I       0.00280

 Principal components and PAS (Real part)
                 -3.10198
                  2.89731
                  0.25498
 ------------------------
 average:         0.01677

              1        2        3      
    1    0.0062   0.9730  -0.2305
    2    0.7689  -0.1521  -0.6211
    3    0.6394   0.1734   0.7491

 Chiral response tensor (Real part):

              1        2        3      
    1   -1.3532   0.2035  -0.2162
    2    0.2035   0.8594   0.8600
    3   -0.2162   0.8600   0.5441
 
 Principal components and PAS (Real part)
                  1.57615
                 -1.42350
                 -0.10233
 ------------------------
 average:         0.01677

              1        2        3      
    1    0.0062   0.9730  -0.2305
    2    0.7689  -0.1521  -0.6211
    3    0.6394   0.1734   0.7491
 Exiting AOResponse driver routine

 Task  times  cpu:      545.6s     wall:      558.2s
 
 
                                NWChem Input Module
                                -------------------
 
 
 Summary of allocated global arrays
-----------------------------------
  No active global arrays



                         GA Statistics for process    0
                         ------------------------------

       create   destroy   get      put      acc     scatter   gather  read&inc
calls: 3294     3294     8.03e+06 3.14e+06 8.21e+05 2694        0     1249     
number of processes/call 1.01e+00 1.03e+00 1.45e+00 0.00e+00 0.00e+00
bytes total:             2.04e+09 1.26e+08 1.94e+09 1.84e+02 0.00e+00 9.99e+03
bytes remote:            9.23e+08 3.29e+07 1.18e+09 0.00e+00 0.00e+00 0.00e+00
Max memory consumed for GA by this process: 11242192 bytes
 
MA_summarize_allocated_blocks: starting scan ...
MA_summarize_allocated_blocks: scan completed: 0 heap blocks, 0 stack blocks
MA usage statistics:

	allocation statistics:
					      heap	     stack
					      ----	     -----
	current number of blocks	         0	         0
	maximum number of blocks	        24	        52
	current total bytes		         0	         0
	maximum total bytes		   7519840	  48998328
	maximum total K-bytes		      7520	     48999
	maximum total M-bytes		         8	        49
 
 
                                     CITATION
                                     --------
                Please cite the following reference when publishing
                           results obtained with NWChem:
 
                 M. Valiev, E.J. Bylaska, N. Govind, K. Kowalski,
              T.P. Straatsma, H.J.J. van Dam, D. Wang, J. Nieplocha,
                        E. Apra, T.L. Windus, W.A. de Jong
                 "NWChem: a comprehensive and scalable open-source
                  solution for large scale molecular simulations"
                      Comput. Phys. Commun. 181, 1477 (2010)
                           doi:10.1016/j.cpc.2010.04.018
 
                                      AUTHORS
                                      -------
          E. Apra, E. J. Bylaska, W. A. de Jong, N. Govind, K. Kowalski,
       T. P. Straatsma, M. Valiev, H. J. J. van Dam, D. Wang, T. L. Windus,
        J. Hammond, J. Autschbach, K. Bhaskaran-Nair, J. Brabec, K. Lopata,
    S. A. Fischer, S. Krishnamoorthy, M. Jacquelin, W. Ma, M. Klemm, O. Villa,
      Y. Chen, V. Anisimov, F. Aquino, S. Hirata, M. T. Hackler, V. Konjkov,
            D. Mejia-Rodriguez, T. Risthaus, M. Malagoli, A. Marenich,
   A. Otero-de-la-Roza, J. Mullin, P. Nichols, R. Peverati, J. Pittner, Y. Zhao,
        P.-D. Fan, A. Fonari, M. J. Williamson, R. J. Harrison, J. R. Rehr,
      M. Dupuis, D. Silverstein, D. M. A. Smith, J. Nieplocha, V. Tipparaju,
    M. Krishnan, B. E. Van Kuiken, A. Vazquez-Mayagoitia, L. Jensen, M. Swart,
      Q. Wu, T. Van Voorhis, A. A. Auer, M. Nooijen, L. D. Crosby, E. Brown,
      G. Cisneros, G. I. Fann, H. Fruchtl, J. Garza, K. Hirao, R. A. Kendall,
      J. A. Nichols, K. Tsemekhman, K. Wolinski, J. Anchell, D. E. Bernholdt,
      P. Borowski, T. Clark, D. Clerc, H. Dachsel, M. J. O. Deegan, K. Dyall,
    D. Elwood, E. Glendening, M. Gutowski, A. C. Hess, J. Jaffe, B. G. Johnson,
     J. Ju, R. Kobayashi, R. Kutteh, Z. Lin, R. Littlefield, X. Long, B. Meng,
      T. Nakajima, S. Niu, L. Pollack, M. Rosing, K. Glaesemann, G. Sandrone,
      M. Stave, H. Taylor, G. Thomas, J. H. van Lenthe, A. T. Wong, Z. Zhang.

 Total times  cpu:      613.1s     wall:      627.0s
