 argument  1 = methyloxirane_blyp-def2-tzvp_488.9_38.inp
 


============================== echo of input deck ==============================
echo
start methyloxirane_blyp-def2-tzvp_488.9_38.inp
title "methyloxirane roa calculations at 488.9 nm, input generated in va  with delta_type=2"
charge 0



geometry units angstrom nocenter noautoz noautosym nucleus point;symmetry c1
 O -0.878728 -0.179772  0.205088
 C  0.571986 -0.155530  0.123919
 C -0.185041  1.087519  0.339698
 C  1.184321 -0.520457 -1.207201
 H  1.067749 -0.610156  0.988975
 H -0.227815  1.532194  1.337049
 H -0.326917  1.777802 -0.495969
 H  2.241100 -0.219177 -1.266670
 H  1.149314 -1.603612 -1.391717
 H  0.665368 -0.032882 -2.042865
end

basis spherical
* library def2-TZVP
end

 set prop:newaoresp 1
 set aor:roadata T
 set cphf:maxsub 100
 set cphf:acc 1.0d-10
 set cphf:maxiter 100

property
    response 1   0.093196
    bdtensor
    convergence 1e-7
    damping 0.0037
    giao
end

dft
 direct
 mult 1
 xc becke88 lyp
 iterations 250
 tolerances tight
 grid xfine
 convergence nolevelshifting
 convergence energy 1e-8
 convergence gradient 1e-7


end

task dft gradient
task dft property
================================================================================


                                         
                                         
 
 
              Northwest Computational Chemistry Package (NWChem) 6.8
              ------------------------------------------------------
 
 
                    Environmental Molecular Sciences Laboratory
                       Pacific Northwest National Laboratory
                                Richland, WA 99352
 
                              Copyright (c) 1994-2017
                       Pacific Northwest National Laboratory
                            Battelle Memorial Institute
 
             NWChem is an open-source computational chemistry package
                        distributed under the terms of the
                      Educational Community License (ECL) 2.0
             A copy of the license is included with this distribution
                              in the LICENSE.TXT file
 
                                  ACKNOWLEDGMENT
                                  --------------

            This software and its documentation were developed at the
            EMSL at Pacific Northwest National Laboratory, a multiprogram
            national laboratory, operated for the U.S. Department of Energy
            by Battelle under Contract Number DE-AC05-76RL01830. Support
            for this work was provided by the Department of Energy Office
            of Biological and Environmental Research, Office of Basic
            Energy Sciences, and the Office of Advanced Scientific Computing.


           Job information
           ---------------

    hostname        = cpn-d12-02.cbls.ccr.buffalo.edu
    program         = /util/academic/nwchem/nwchem-6.8/bin/LINUX64/nwchem
    date            = Fri Mar  1 10:38:32 2019

    compiled        = Tue_Nov_06_14:59:08_2018
    source          = /util/academic/nwchem/nwchem-6.8
    nwchem branch   = 6.8
    nwchem revision = v6.8-47-gdf6c956
    ga revision     = ga-5.6.3
    use scalapack   = F
    input           = methyloxirane_blyp-def2-tzvp_488.9_38.inp
    prefix          = methyloxirane_blyp-def2-tzvp_488.9_38.inp.
    data base       = ./methyloxirane_blyp-def2-tzvp_488.9_38.inp.db
    status          = startup
    nproc           =        7
    time left       =     -1s



           Memory information
           ------------------

    heap     =   13107196 doubles =    100.0 Mbytes
    stack    =   13107201 doubles =    100.0 Mbytes
    global   =   26214400 doubles =    200.0 Mbytes (distinct from heap & stack)
    total    =   52428797 doubles =    400.0 Mbytes
    verify   = yes
    hardfail = no 


           Directory information
           ---------------------
 
  0 permanent = .
  0 scratch   = .
 
 
 
 
                                NWChem Input Module
                                -------------------
 
 
                    methyloxirane roa calculations at 488.9 nm, input generated in va  with delta_type=2
                    ------------------------------------------

 Scaling coordinates for geometry "geometry" by  1.889725989
 (inverse scale =  0.529177249)

 
 
                             Geometry "geometry" -> ""
                             -------------------------
 
 Output coordinates in angstroms (scale by  1.889725989 to convert to a.u.)
 
  No.       Tag          Charge          X              Y              Z
 ---- ---------------- ---------- -------------- -------------- --------------
    1 O                    8.0000    -0.87872800    -0.17977200     0.20508800
    2 C                    6.0000     0.57198600    -0.15553000     0.12391900
    3 C                    6.0000    -0.18504100     1.08751900     0.33969800
    4 C                    6.0000     1.18432100    -0.52045700    -1.20720100
    5 H                    1.0000     1.06774900    -0.61015600     0.98897500
    6 H                    1.0000    -0.22781500     1.53219400     1.33704900
    7 H                    1.0000    -0.32691700     1.77780200    -0.49596900
    8 H                    1.0000     2.24110000    -0.21917700    -1.26667000
    9 H                    1.0000     1.14931400    -1.60361200    -1.39171700
   10 H                    1.0000     0.66536800    -0.03288200    -2.04286500
 
      Atomic Mass 
      ----------- 
 
      O                 15.994910
      C                 12.000000
      H                  1.007825
 

 Effective nuclear repulsion energy (a.u.)     123.6129830600

            Nuclear Dipole moment (a.u.) 
            ----------------------------
        X                 Y               Z
 ---------------- ---------------- ----------------
    13.1649102700     3.5435858279   -10.7563146578
 
 
            XYZ format geometry
            -------------------
    10
 geometry
 O                    -0.87872800    -0.17977200     0.20508800
 C                     0.57198600    -0.15553000     0.12391900
 C                    -0.18504100     1.08751900     0.33969800
 C                     1.18432100    -0.52045700    -1.20720100
 H                     1.06774900    -0.61015600     0.98897500
 H                    -0.22781500     1.53219400     1.33704900
 H                    -0.32691700     1.77780200    -0.49596900
 H                     2.24110000    -0.21917700    -1.26667000
 H                     1.14931400    -1.60361200    -1.39171700
 H                     0.66536800    -0.03288200    -2.04286500
 
 ==============================================================================
                                internuclear distances
 ------------------------------------------------------------------------------
       center one      |      center two      | atomic units |  angstroms
 ------------------------------------------------------------------------------
    2 C                |   1 O                |     2.74612  |     1.45319
    3 C                |   1 O                |     2.74196  |     1.45098
    3 C                |   2 C                |     2.78042  |     1.47133
    4 C                |   2 C                |     2.85343  |     1.50997
    5 H                |   2 C                |     2.07077  |     1.09580
    6 H                |   3 C                |     2.06515  |     1.09283
    7 H                |   3 C                |     2.06574  |     1.09314
    8 H                |   4 C                |     2.07963  |     1.10049
    9 H                |   4 C                |     2.07741  |     1.09932
   10 H                |   4 C                |     2.07472  |     1.09790
 ------------------------------------------------------------------------------
                         number of included internuclear distances:         10
 ==============================================================================



 ==============================================================================
                                 internuclear angles
 ------------------------------------------------------------------------------
        center 1       |       center 2       |       center 3       |  degrees
 ------------------------------------------------------------------------------
    2 C                |   1 O                |   3 C                |    60.88
    2 C                |   1 O                |   3 C                |    60.88
    1 O                |   2 C                |   4 C                |   116.75
    1 O                |   2 C                |   5 H                |   113.62
    3 C                |   2 C                |   4 C                |   122.83
    3 C                |   2 C                |   5 H                |   117.87
    4 C                |   2 C                |   5 H                |   114.34
    3 C                |   1 O                |   2 C                |    60.88
    1 O                |   3 C                |   6 H                |   114.92
    1 O                |   3 C                |   7 H                |   114.74
    2 C                |   3 C                |   6 H                |   119.85
    2 C                |   3 C                |   7 H                |   119.22
    6 H                |   3 C                |   7 H                |   115.83
    2 C                |   4 C                |   8 H                |   111.77
    2 C                |   4 C                |   9 H                |   111.91
    2 C                |   4 C                |  10 H                |   111.84
    8 H                |   4 C                |   9 H                |   106.93
    8 H                |   4 C                |  10 H                |   106.93
    9 H                |   4 C                |  10 H                |   107.14
 ------------------------------------------------------------------------------
                            number of included internuclear angles:         19
 ==============================================================================



  warning:::::::::::::: from_environment
  NWCHEM_BASIS_LIBRARY set to: <
 /util/academic/nwchem/nwchem-6.8/src/basis/libraries>
  but file does not exist !
  using .nwchemrc or compiled library


 Summary of "ao basis" -> "" (spherical)
 ------------------------------------------------------------------------------
       Tag                 Description            Shells   Functions and Types
 ---------------- ------------------------------  ------  ---------------------
 *                         def2-TZVP                  on all atoms 


 
                                 NWChem DFT Module
                                 -----------------
 
 
                    methyloxirane roa calculations at 488.9 nm, input generated in va  with delta_type=2
 
 
                      Basis "ao basis" -> "ao basis" (spherical)
                      -----
  O (Oxygen)
  ----------
            Exponent  Coefficients 
       -------------- ---------------------------------------------------------
  1 S  2.70323826E+04  0.000217
  1 S  4.05238714E+03  0.001684
  1 S  9.22327227E+02  0.008740
  1 S  2.61240710E+02  0.035240
  1 S  8.53546414E+01  0.111535
  1 S  3.10350352E+01  0.255890
 
  2 S  1.22608607E+01  0.397687
  2 S  4.99870760E+00  0.246278
 
  3 S  1.17031082E+00  1.000000
 
  4 S  4.64747410E-01  1.000000
 
  5 S  1.85045364E-01  1.000000
 
  6 P  6.32749548E+01  0.006069
  6 P  1.46270494E+01  0.041913
  6 P  4.45012235E+00  0.161538
  6 P  1.52757996E+00  0.357070
 
  7 P  5.29351179E-01  1.000000
 
  8 P  1.74784213E-01  1.000000
 
  9 D  2.31400000E+00  1.000000
 
 10 D  6.45000000E-01  1.000000
 
 11 F  1.42800000E+00  1.000000
 
  C (Carbon)
  ----------
            Exponent  Coefficients 
       -------------- ---------------------------------------------------------
  1 S  1.35753497E+04  0.000222
  1 S  2.03523337E+03  0.001723
  1 S  4.63225624E+02  0.008926
  1 S  1.31200196E+02  0.035728
  1 S  4.28530159E+01  0.110763
  1 S  1.55841858E+01  0.242956
 
  2 S  6.20671385E+00  0.414403
  2 S  2.57648965E+00  0.237450
 
  3 S  5.76963394E-01  1.000000
 
  4 S  2.29728314E-01  1.000000
 
  5 S  9.51644400E-02  1.000000
 
  6 P  3.46972322E+01  0.005333
  6 P  7.95826228E+00  0.035864
  6 P  2.37808269E+00  0.142159
  6 P  8.14332082E-01  0.342705
 
  7 P  2.88875473E-01  1.000000
 
  8 P  1.00568237E-01  1.000000
 
  9 D  1.09700000E+00  1.000000
 
 10 D  3.18000000E-01  1.000000
 
 11 F  7.61000000E-01  1.000000
 
  H (Hydrogen)
  ------------
            Exponent  Coefficients 
       -------------- ---------------------------------------------------------
  1 S  3.40613410E+01  0.006025
  1 S  5.12357460E+00  0.045021
  1 S  1.16466260E+00  0.201897
 
  2 S  3.27230410E-01  1.000000
 
  3 S  1.03072410E-01  1.000000
 
  4 P  8.00000000E-01  1.000000
 


 Summary of "ao basis" -> "ao basis" (spherical)
 ------------------------------------------------------------------------------
       Tag                 Description            Shells   Functions and Types
 ---------------- ------------------------------  ------  ---------------------
 O                         def2-TZVP                11       31   5s3p2d1f
 C                         def2-TZVP                11       31   5s3p2d1f
 H                         def2-TZVP                 4        6   3s1p




 Summary of "ao basis" -> "ao basis" (spherical)
 ------------------------------------------------------------------------------
       Tag                 Description            Shells   Functions and Types
 ---------------- ------------------------------  ------  ---------------------
 O                         def2-TZVP                11       31   5s3p2d1f
 C                         def2-TZVP                11       31   5s3p2d1f
 H                         def2-TZVP                 4        6   3s1p


  Caching 1-el integrals 
  itol2e modified to match energy
  convergence criterion.
  tol_rho modified to match energy
  convergence criterion.
 
            General Information
            -------------------
          SCF calculation type: DFT
          Wavefunction type:  closed shell.
          No. of atoms     :    10
          No. of electrons :    32
           Alpha electrons :    16
            Beta electrons :    16
          Charge           :     0
          Spin multiplicity:     1
          Use of symmetry is: off; symmetry adaption is: off
          Maximum number of iterations: 250
          This is a Direct SCF calculation.
          AO basis - number of functions:   160
                     number of shells:    68
          Convergence on energy requested:  1.00D-08
          Convergence on density requested:  1.00D-05
          Convergence on gradient requested:  1.00D-07
 
              XC Information
              --------------
                    Becke 1988 Exchange Functional  1.000          
              Lee-Yang-Parr Correlation Functional  1.000          
 
             Grid Information
             ----------------
          Grid used for XC integration:  xfine     
          Radial quadrature: Mura-Knowles        
          Angular quadrature: Lebedev. 
          Tag              B.-S. Rad. Rad. Pts. Rad. Cut. Ang. Pts.
          ---              ---------- --------- --------- ---------
          O                   0.60      100          11.0      1454
          C                   0.70      100          11.0      1454
          H                   0.35      100          12.0      1202
          Grid pruning is: on 
          Number of quadrature shells:  1000
          Spatial weights used:  Erf1
 
          Convergence Information
          -----------------------
          Convergence aids based upon iterative change in 
          total energy or number of iterations. 
          Levelshifting, if invoked, occurs when the 
          HOMO/LUMO gap drops below (HL_TOL):  1.00D-02
          DIIS, if invoked, will attempt to extrapolate 
          using up to (NFOCK): 10 stored Fock matrices.

                    Damping( 0%)  Levelshifting(0.0)       DIIS
                  --------------- ------------------- ---------------
          dE  on:    start             N/A                start   
          dE off:    2 iters           N/A              250 iters 

 
      Screening Tolerance Information
      -------------------------------
          Density screening/tol_rho:  1.00D-11
          AO Gaussian exp screening on grid/accAOfunc:  18
          CD Gaussian exp screening on grid/accCDfunc:  20
          XC Gaussian exp screening on grid/accXCfunc:  20
          Schwarz screening/accCoul:  1.00D-09

 
      Superposition of Atomic Density Guess
      -------------------------------------
 
 Sum of atomic energies:        -190.79714706
 
      Non-variational initial energy
      ------------------------------

 Total energy =    -193.174468
 1-e energy   =    -502.179260
 2-e energy   =     185.391809
 HOMO         =      -0.352919
 LUMO         =       0.090858
 
   Time after variat. SCF:      0.9
   Time prior to 1st pass:      0.9

 Grid_pts file          = ./methyloxirane_blyp-def2-tzvp_488.9_38.inp.gridpts.0
 Record size in doubles =  12289        No. of grid_pts per rec  =   3070
 Max. records in memory =     76        Max. recs in file   =    317624


           Memory utilization after 1st SCF pass: 
           Heap Space remaining (MW):       12.17            12167540
          Stack Space remaining (MW):       13.11            13106124

   convergence    iter        energy       DeltaE   RMS-Dens  Diis-err    time
 ---------------- ----- ----------------- --------- --------- ---------  ------
 d= 0,ls=0.0,diis     1   -193.0201733942 -3.17D+02  9.07D-03  1.06D+00     7.2
 d= 0,ls=0.0,diis     2   -192.8613897264  1.59D-01  7.49D-03  2.53D+00    13.3
 d= 0,ls=0.0,diis     3   -193.0767406395 -2.15D-01  1.83D-03  3.89D-01    19.4
 d= 0,ls=0.0,diis     4   -193.1070436557 -3.03D-02  6.86D-04  1.86D-02    25.4
 d= 0,ls=0.0,diis     5   -193.1087517250 -1.71D-03  2.91D-04  2.68D-03    31.5
 d= 0,ls=0.0,diis     6   -193.1090852610 -3.34D-04  3.03D-05  3.42D-05    37.6
 d= 0,ls=0.0,diis     7   -193.1090893984 -4.14D-06  8.57D-06  3.51D-06    43.6
 d= 0,ls=0.0,diis     8   -193.1090897949 -3.96D-07  1.82D-06  2.62D-07    49.7
 d= 0,ls=0.0,diis     9   -193.1090898242 -2.94D-08  5.58D-07  1.20D-08    55.7
 d= 0,ls=0.0,diis    10   -193.1090898258 -1.53D-09  6.32D-08  1.28D-10    61.8


         Total DFT energy =     -193.109089825759
      One electron energy =     -505.832883271879
           Coulomb energy =      216.133999217866
    Exchange-Corr. energy =      -27.023188831702
 Nuclear repulsion energy =      123.612983059957

 Numeric. integr. density =       32.000000037595

     Total iterative time =     60.9s


 
                       DFT Final Molecular Orbital Analysis
                       ------------------------------------
 
 Vector    1  Occ=2.000000D+00  E=-1.878007D+01
              MO Center= -8.8D-01, -1.8D-01,  2.1D-01, r^2= 1.5D-02
   Bfn.  Coefficient  Atom+Function         Bfn.  Coefficient  Atom+Function  
  ----- ------------  ---------------      ----- ------------  ---------------
     2      0.638475   1 O  s                 1      0.435422   1 O  s         
     3      0.039915   1 O  s                 4     -0.033338   1 O  s         
 
 Vector    2  Occ=2.000000D+00  E=-9.963494D+00
              MO Center=  5.7D-01, -1.6D-01,  1.2D-01, r^2= 2.8D-02
   Bfn.  Coefficient  Atom+Function         Bfn.  Coefficient  Atom+Function  
  ----- ------------  ---------------      ----- ------------  ---------------
    33      0.606902   2 C  s                32      0.467261   2 C  s         
    34      0.042473   2 C  s                36      0.037469   2 C  s         
    35     -0.026801   2 C  s         
 
 Vector    3  Occ=2.000000D+00  E=-9.955789D+00
              MO Center= -1.8D-01,  1.1D+00,  3.4D-01, r^2= 2.8D-02
   Bfn.  Coefficient  Atom+Function         Bfn.  Coefficient  Atom+Function  
  ----- ------------  ---------------      ----- ------------  ---------------
    64      0.607019   3 C  s                63      0.467219   3 C  s         
    65      0.039644   3 C  s         
 
 Vector    4  Occ=2.000000D+00  E=-9.907388D+00
              MO Center=  1.2D+00, -5.2D-01, -1.2D+00, r^2= 2.8D-02
   Bfn.  Coefficient  Atom+Function         Bfn.  Coefficient  Atom+Function  
  ----- ------------  ---------------      ----- ------------  ---------------
    95      0.606957   4 C  s                94      0.467215   4 C  s         
    96      0.040647   4 C  s                98      0.035654   4 C  s         
 
 Vector    5  Occ=2.000000D+00  E=-9.641535D-01
              MO Center= -4.7D-01,  5.7D-02,  2.1D-01, r^2= 6.5D-01
   Bfn.  Coefficient  Atom+Function         Bfn.  Coefficient  Atom+Function  
  ----- ------------  ---------------      ----- ------------  ---------------
     4      0.374802   1 O  s                 3      0.277068   1 O  s         
     2     -0.192575   1 O  s                34      0.140280   2 C  s         
    65      0.139472   3 C  s                 5      0.122491   1 O  s         
    35      0.105077   2 C  s                 6      0.093646   1 O  px        
    66      0.093607   3 C  s                69     -0.091759   3 C  py        
 
 Vector    6  Occ=2.000000D+00  E=-6.694023D-01
              MO Center=  9.4D-01, -3.9D-01, -7.7D-01, r^2= 1.6D+00
   Bfn.  Coefficient  Atom+Function         Bfn.  Coefficient  Atom+Function  
  ----- ------------  ---------------      ----- ------------  ---------------
    97      0.284881   4 C  s                96      0.276065   4 C  s         
    35      0.185417   2 C  s                34      0.174941   2 C  s         
    95     -0.173830   4 C  s                 4     -0.148149   1 O  s         
    33     -0.109281   2 C  s                 3     -0.103510   1 O  s         
    94     -0.083291   4 C  s                 5     -0.073590   1 O  s         
 
 Vector    7  Occ=2.000000D+00  E=-5.903485D-01
              MO Center= -1.2D-01,  7.1D-01,  2.1D-01, r^2= 2.0D+00
   Bfn.  Coefficient  Atom+Function         Bfn.  Coefficient  Atom+Function  
  ----- ------------  ---------------      ----- ------------  ---------------
    66      0.325759   3 C  s                65      0.277901   3 C  s         
     4     -0.238991   1 O  s                64     -0.171737   3 C  s         
     3     -0.168719   1 O  s                 5     -0.148030   1 O  s         
     2      0.111413   1 O  s                38      0.105880   2 C  py        
   132      0.102515   6 H  s                97     -0.100126   4 C  s         
 
 Vector    8  Occ=2.000000D+00  E=-5.307448D-01
              MO Center=  4.2D-01,  8.9D-03, -1.1D-01, r^2= 2.7D+00
   Bfn.  Coefficient  Atom+Function         Bfn.  Coefficient  Atom+Function  
  ----- ------------  ---------------      ----- ------------  ---------------
    35      0.303939   2 C  s                34      0.225036   2 C  s         
    66     -0.153851   3 C  s                97     -0.153971   4 C  s         
    33     -0.138404   2 C  s               126      0.131252   5 H  s         
    96     -0.128371   4 C  s                 6      0.106078   1 O  px        
   125      0.105184   5 H  s               101      0.100688   4 C  pz        
 
 Vector    9  Occ=2.000000D+00  E=-4.484669D-01
              MO Center=  1.1D-01,  2.9D-01,  2.6D-01, r^2= 2.4D+00
   Bfn.  Coefficient  Atom+Function         Bfn.  Coefficient  Atom+Function  
  ----- ------------  ---------------      ----- ------------  ---------------
    70      0.212763   3 C  pz               39      0.157809   2 C  pz        
   132      0.145853   6 H  s                73      0.133581   3 C  pz        
     8      0.128779   1 O  pz              126      0.116321   5 H  s         
     6     -0.108503   1 O  px              131      0.108289   6 H  s         
    38     -0.105574   2 C  py               11      0.104366   1 O  pz        
 
 Vector   10  Occ=2.000000D+00  E=-4.156138D-01
              MO Center=  4.3D-02,  2.8D-01, -2.3D-01, r^2= 2.5D+00
   Bfn.  Coefficient  Atom+Function         Bfn.  Coefficient  Atom+Function  
  ----- ------------  ---------------      ----- ------------  ---------------
    69      0.215855   3 C  py              101      0.155605   4 C  pz        
   138      0.152344   7 H  s                 6     -0.148108   1 O  px        
    38     -0.140868   2 C  py               37      0.133285   2 C  px        
    72      0.121210   3 C  py                7     -0.118075   1 O  py        
     9     -0.118329   1 O  px               70     -0.113215   3 C  pz        
 
 Vector   11  Occ=2.000000D+00  E=-3.752774D-01
              MO Center=  8.7D-01, -3.1D-01, -7.2D-01, r^2= 2.7D+00
   Bfn.  Coefficient  Atom+Function         Bfn.  Coefficient  Atom+Function  
  ----- ------------  ---------------      ----- ------------  ---------------
    99      0.206285   4 C  px              144      0.181094   8 H  s         
   100      0.165811   4 C  py              150     -0.139581   9 H  s         
   102      0.133618   4 C  px               37      0.130835   2 C  px        
   143      0.127239   8 H  s                 6     -0.121694   1 O  px        
     7      0.121624   1 O  py              103      0.110227   4 C  py        
 
 Vector   12  Occ=2.000000D+00  E=-3.546317D-01
              MO Center=  5.9D-01, -3.3D-01, -8.5D-01, r^2= 2.9D+00
   Bfn.  Coefficient  Atom+Function         Bfn.  Coefficient  Atom+Function  
  ----- ------------  ---------------      ----- ------------  ---------------
   100      0.255535   4 C  py              150     -0.185052   9 H  s         
     7     -0.171461   1 O  py              156      0.170813  10 H  s         
   103      0.166873   4 C  py               10     -0.137325   1 O  py        
   149     -0.129363   9 H  s               155      0.121300  10 H  s         
    70      0.120354   3 C  pz              106      0.104569   4 C  py        
 
 Vector   13  Occ=2.000000D+00  E=-3.299759D-01
              MO Center=  3.1D-01,  2.5D-01, -2.2D-01, r^2= 2.7D+00
   Bfn.  Coefficient  Atom+Function         Bfn.  Coefficient  Atom+Function  
  ----- ------------  ---------------      ----- ------------  ---------------
    39      0.212355   2 C  pz              101     -0.188535   4 C  pz        
     7     -0.178070   1 O  py               70     -0.168674   3 C  pz        
   138      0.162125   7 H  s                10     -0.143712   1 O  py        
    42      0.143982   2 C  pz               99      0.134649   4 C  px        
   104     -0.131705   4 C  pz              137      0.109125   7 H  s         
 
 Vector   14  Occ=2.000000D+00  E=-3.202605D-01
              MO Center=  4.7D-01, -7.4D-02, -3.0D-01, r^2= 3.0D+00
   Bfn.  Coefficient  Atom+Function         Bfn.  Coefficient  Atom+Function  
  ----- ------------  ---------------      ----- ------------  ---------------
     7      0.191948   1 O  py              126      0.163089   5 H  s         
    99     -0.161627   4 C  px              156      0.161755  10 H  s         
    10      0.157518   1 O  py                6     -0.141269   1 O  px        
    39      0.136191   2 C  pz              144     -0.133178   8 H  s         
   101     -0.131951   4 C  pz               37      0.126049   2 C  px        
 
 Vector   15  Occ=2.000000D+00  E=-2.644152D-01
              MO Center=  1.9D-02,  1.4D-01,  2.7D-02, r^2= 2.3D+00
   Bfn.  Coefficient  Atom+Function         Bfn.  Coefficient  Atom+Function  
  ----- ------------  ---------------      ----- ------------  ---------------
    68      0.263410   3 C  px               38      0.255569   2 C  py        
     6     -0.237753   1 O  px               41      0.199504   2 C  py        
    71      0.195073   3 C  px                9     -0.185958   1 O  px        
    12     -0.156878   1 O  px              150      0.116218   9 H  s         
   100     -0.112263   4 C  py               67      0.105714   3 C  s         
 
 Vector   16  Occ=2.000000D+00  E=-2.200581D-01
              MO Center= -5.8D-01, -2.6D-02,  2.0D-01, r^2= 1.6D+00
   Bfn.  Coefficient  Atom+Function         Bfn.  Coefficient  Atom+Function  
  ----- ------------  ---------------      ----- ------------  ---------------
     8      0.449003   1 O  pz               11      0.357723   1 O  pz        
    14      0.295713   1 O  pz              133     -0.131407   6 H  s         
   139      0.116250   7 H  s               132     -0.104208   6 H  s         
   138      0.103908   7 H  s               145     -0.102515   8 H  s         
   126     -0.097109   5 H  s                98      0.088653   4 C  s         
 
 Vector   17  Occ=0.000000D+00  E= 2.586405D-02
              MO Center=  1.2D+00, -1.1D-01, -6.4D-01, r^2= 7.3D+00
   Bfn.  Coefficient  Atom+Function         Bfn.  Coefficient  Atom+Function  
  ----- ------------  ---------------      ----- ------------  ---------------
    98      4.488733   4 C  s               145     -1.538910   8 H  s         
   151     -1.517107   9 H  s               157     -1.373475  10 H  s         
   127     -1.234884   5 H  s                45      1.109455   2 C  pz        
   139     -0.875493   7 H  s                67      0.735915   3 C  s         
   133     -0.613106   6 H  s                75      0.315332   3 C  py        
 
 Vector   18  Occ=0.000000D+00  E= 4.286134D-02
              MO Center= -1.2D-01,  6.7D-01,  1.1D-01, r^2= 4.5D+00
   Bfn.  Coefficient  Atom+Function         Bfn.  Coefficient  Atom+Function  
  ----- ------------  ---------------      ----- ------------  ---------------
    98     -2.116242   4 C  s                36      2.018945   2 C  s         
     5     -1.278634   1 O  s                74     -0.946154   3 C  px        
   151      0.794587   9 H  s                45     -0.475324   2 C  pz        
    67     -0.443224   3 C  s                13     -0.433554   1 O  py        
   157      0.425994  10 H  s                44      0.404256   2 C  py        
 
 Vector   19  Occ=0.000000D+00  E= 5.008774D-02
              MO Center=  4.1D-01,  4.2D-01, -1.4D-01, r^2= 6.6D+00
   Bfn.  Coefficient  Atom+Function         Bfn.  Coefficient  Atom+Function  
  ----- ------------  ---------------      ----- ------------  ---------------
    36      2.724511   2 C  s                67     -2.519198   3 C  s         
   127     -1.848510   5 H  s               139      1.610027   7 H  s         
   157      0.913959  10 H  s                98     -0.701030   4 C  s         
    76      0.561362   3 C  pz                5      0.497624   1 O  s         
    45      0.496798   2 C  pz               43      0.492976   2 C  px        
 
 Vector   20  Occ=0.000000D+00  E= 5.062848D-02
              MO Center=  5.8D-01,  6.0D-01,  4.1D-01, r^2= 7.6D+00
   Bfn.  Coefficient  Atom+Function         Bfn.  Coefficient  Atom+Function  
  ----- ------------  ---------------      ----- ------------  ---------------
    98      3.336079   4 C  s                67     -2.847659   3 C  s         
   133      1.857621   6 H  s               145     -1.212408   8 H  s         
    44      1.114778   2 C  py              127      1.064303   5 H  s         
   157     -1.034549  10 H  s               151     -0.685447   9 H  s         
    36     -0.679055   2 C  s                43     -0.628169   2 C  px        
 
 Vector   21  Occ=0.000000D+00  E= 6.433658D-02
              MO Center=  2.7D-01,  9.7D-02, -1.9D-01, r^2= 4.9D+00
   Bfn.  Coefficient  Atom+Function         Bfn.  Coefficient  Atom+Function  
  ----- ------------  ---------------      ----- ------------  ---------------
    98      1.255305   4 C  s               139      1.247029   7 H  s         
   151     -1.005971   9 H  s                67     -0.989225   3 C  s         
     5     -0.855890   1 O  s                43     -0.798889   2 C  px        
   133      0.604189   6 H  s                75     -0.561161   3 C  py        
    12     -0.479138   1 O  px               45      0.427428   2 C  pz        
 
 Vector   22  Occ=0.000000D+00  E= 8.599311D-02
              MO Center=  1.2D+00,  2.5D-01, -4.4D-01, r^2= 7.3D+00
   Bfn.  Coefficient  Atom+Function         Bfn.  Coefficient  Atom+Function  
  ----- ------------  ---------------      ----- ------------  ---------------
    36      3.026494   2 C  s               145      1.879362   8 H  s         
    67     -1.451105   3 C  s               127     -1.382022   5 H  s         
   157     -1.346771  10 H  s               133      1.258760   6 H  s         
   107     -1.157547   4 C  pz               98     -1.029060   4 C  s         
   105     -0.943625   4 C  px               75      0.819285   3 C  py        
 
 Vector   23  Occ=0.000000D+00  E= 9.223556D-02
              MO Center=  1.3D+00, -6.4D-01, -5.7D-01, r^2= 6.5D+00
   Bfn.  Coefficient  Atom+Function         Bfn.  Coefficient  Atom+Function  
  ----- ------------  ---------------      ----- ------------  ---------------
    36      2.307008   2 C  s               151      2.040231   9 H  s         
   145     -1.719507   8 H  s                98     -1.206833   4 C  s         
   105      1.188728   4 C  px              106      1.135572   4 C  py        
   133      0.902740   6 H  s                67     -0.783948   3 C  s         
   127     -0.759158   5 H  s                44     -0.684977   2 C  py        
 
 Vector   24  Occ=0.000000D+00  E= 1.024781D-01
              MO Center=  4.4D-01,  4.0D-01, -1.1D+00, r^2= 6.8D+00
   Bfn.  Coefficient  Atom+Function         Bfn.  Coefficient  Atom+Function  
  ----- ------------  ---------------      ----- ------------  ---------------
   157      2.032754  10 H  s               133      1.606899   6 H  s         
   106     -1.500534   4 C  py              139     -1.485819   7 H  s         
   151     -1.469873   9 H  s                98     -1.427031   4 C  s         
    36      1.340315   2 C  s                76     -1.166249   3 C  pz        
   105      0.965917   4 C  px               45     -0.517380   2 C  pz        
 
 Vector   25  Occ=0.000000D+00  E= 1.395416D-01
              MO Center=  7.5D-01,  2.5D-01, -4.0D-01, r^2= 7.8D+00
   Bfn.  Coefficient  Atom+Function         Bfn.  Coefficient  Atom+Function  
  ----- ------------  ---------------      ----- ------------  ---------------
    36      4.923295   2 C  s                98     -3.495501   4 C  s         
    45     -3.399169   2 C  pz               67     -3.036851   3 C  s         
   127      2.730158   5 H  s                76      2.170702   3 C  pz        
   105      2.110223   4 C  px              133     -1.757103   6 H  s         
   139      1.665791   7 H  s               107     -1.532156   4 C  pz        
 
 Vector   26  Occ=0.000000D+00  E= 1.705825D-01
              MO Center=  4.3D-01,  5.0D-01, -1.4D-01, r^2= 7.3D+00
   Bfn.  Coefficient  Atom+Function         Bfn.  Coefficient  Atom+Function  
  ----- ------------  ---------------      ----- ------------  ---------------
    75      2.276139   3 C  py              107      1.678493   4 C  pz        
    67     -1.359788   3 C  s                36      1.327529   2 C  s         
   139     -1.267623   7 H  s               157      1.028226  10 H  s         
    74     -0.952348   3 C  px               44      0.631151   2 C  py        
    43     -0.544356   2 C  px              106     -0.455501   4 C  py        
 
 Vector   27  Occ=0.000000D+00  E= 1.989992D-01
              MO Center=  8.5D-01, -4.1D-02, -9.6D-01, r^2= 5.1D+00
   Bfn.  Coefficient  Atom+Function         Bfn.  Coefficient  Atom+Function  
  ----- ------------  ---------------      ----- ------------  ---------------
    67      3.171384   3 C  s                44     -2.690299   2 C  py        
   106      2.057583   4 C  py               36     -1.633086   2 C  s         
    43      1.028170   2 C  px               74      0.770798   3 C  px        
   157     -0.735280  10 H  s                45     -0.680755   2 C  pz        
   105      0.644372   4 C  px              150      0.646201   9 H  s         
 
 Vector   28  Occ=0.000000D+00  E= 2.031589D-01
              MO Center=  9.4D-01, -4.7D-01, -6.8D-01, r^2= 6.6D+00
   Bfn.  Coefficient  Atom+Function         Bfn.  Coefficient  Atom+Function  
  ----- ------------  ---------------      ----- ------------  ---------------
    36      2.611824   2 C  s                75      1.656856   3 C  py        
   105     -1.451752   4 C  px              133     -1.224852   6 H  s         
   107     -0.869510   4 C  pz               45      0.853859   2 C  pz        
   106      0.746198   4 C  py              139     -0.749234   7 H  s         
   156     -0.710740  10 H  s                76      0.655652   3 C  pz        
 
 Vector   29  Occ=0.000000D+00  E= 2.364845D-01
              MO Center= -3.4D-01,  4.5D-01, -1.2D-02, r^2= 5.4D+00
   Bfn.  Coefficient  Atom+Function         Bfn.  Coefficient  Atom+Function  
  ----- ------------  ---------------      ----- ------------  ---------------
    67      4.981606   3 C  s                36     -3.320671   2 C  s         
   139     -1.466791   7 H  s                66     -1.444989   3 C  s         
   133     -1.257486   6 H  s                98      1.210650   4 C  s         
   107      0.868716   4 C  pz                5     -0.787657   1 O  s         
    74     -0.761478   3 C  px              106      0.761339   4 C  py        
 
 Vector   30  Occ=0.000000D+00  E= 2.489992D-01
              MO Center=  5.8D-01, -5.1D-02, -1.4D-01, r^2= 5.8D+00
   Bfn.  Coefficient  Atom+Function         Bfn.  Coefficient  Atom+Function  
  ----- ------------  ---------------      ----- ------------  ---------------
    67      5.715382   3 C  s                43      4.271773   2 C  px        
    75     -2.983356   3 C  py               44     -2.718693   2 C  py        
   107     -2.201179   4 C  pz               36     -1.969259   2 C  s         
   157     -1.916734  10 H  s                45     -1.583621   2 C  pz        
    98     -1.413875   4 C  s               105     -1.238690   4 C  px        
 
 Vector   31  Occ=0.000000D+00  E= 2.680653D-01
              MO Center=  3.1D-01, -1.3D-01,  2.3D-01, r^2= 5.6D+00
   Bfn.  Coefficient  Atom+Function         Bfn.  Coefficient  Atom+Function  
  ----- ------------  ---------------      ----- ------------  ---------------
    36      4.165808   2 C  s                67      2.424904   3 C  s         
     5     -2.158620   1 O  s               105      1.493747   4 C  px        
    43     -1.330158   2 C  px               98     -1.211794   4 C  s         
    66     -1.164394   3 C  s               133     -0.898133   6 H  s         
   127     -0.856889   5 H  s               139     -0.844180   7 H  s         
 
 Vector   32  Occ=0.000000D+00  E= 2.779778D-01
              MO Center=  3.8D-01,  2.6D-01,  2.9D-01, r^2= 4.2D+00
   Bfn.  Coefficient  Atom+Function         Bfn.  Coefficient  Atom+Function  
  ----- ------------  ---------------      ----- ------------  ---------------
    36      2.670140   2 C  s                 5     -1.822155   1 O  s         
    67     -1.582769   3 C  s                43     -1.395835   2 C  px        
    74     -0.711264   3 C  px               98     -0.669215   4 C  s         
    45     -0.611131   2 C  pz              145      0.554570   8 H  s         
     4      0.497884   1 O  s               132      0.349220   6 H  s         
 
 Vector   33  Occ=0.000000D+00  E= 3.016686D-01
              MO Center=  4.7D-01,  3.5D-01, -4.0D-01, r^2= 5.1D+00
   Bfn.  Coefficient  Atom+Function         Bfn.  Coefficient  Atom+Function  
  ----- ------------  ---------------      ----- ------------  ---------------
    43      1.995752   2 C  px              106      1.849679   4 C  py        
    98     -1.807526   4 C  s               151      1.763915   9 H  s         
    36     -1.392186   2 C  s                44     -1.399123   2 C  py        
    76      1.320049   3 C  pz               66      1.085335   3 C  s         
   107     -1.054647   4 C  pz              139      0.990482   7 H  s         
 
 Vector   34  Occ=0.000000D+00  E= 3.377250D-01
              MO Center=  1.2D-01,  4.4D-01, -4.1D-01, r^2= 5.9D+00
   Bfn.  Coefficient  Atom+Function         Bfn.  Coefficient  Atom+Function  
  ----- ------------  ---------------      ----- ------------  ---------------
    67      4.736672   3 C  s                76     -4.025966   3 C  pz        
   139     -3.237540   7 H  s                36     -2.471070   2 C  s         
   133      2.045059   6 H  s               107     -1.837189   4 C  pz        
   157     -1.746935  10 H  s                43      1.408827   2 C  px        
    98      1.406591   4 C  s                44     -1.196717   2 C  py        
 
 Vector   35  Occ=0.000000D+00  E= 3.636148D-01
              MO Center=  7.8D-01, -1.3D-02, -3.4D-01, r^2= 6.7D+00
   Bfn.  Coefficient  Atom+Function         Bfn.  Coefficient  Atom+Function  
  ----- ------------  ---------------      ----- ------------  ---------------
    98      7.677995   4 C  s                76      3.267647   3 C  pz        
   145     -3.274524   8 H  s                97     -3.074922   4 C  s         
   133     -2.346475   6 H  s               151     -1.828532   9 H  s         
   139      1.566312   7 H  s                44      1.552207   2 C  py        
    45     -1.492294   2 C  pz              105      1.383802   4 C  px        
 
 Vector   36  Occ=0.000000D+00  E= 3.725204D-01
              MO Center=  5.7D-01,  2.2D-01, -4.5D-02, r^2= 6.4D+00
   Bfn.  Coefficient  Atom+Function         Bfn.  Coefficient  Atom+Function  
  ----- ------------  ---------------      ----- ------------  ---------------
    36     12.822653   2 C  s                98     -8.790990   4 C  s         
    67     -8.248591   3 C  s               127     -3.224445   5 H  s         
    97      2.413995   4 C  s               157      2.295488  10 H  s         
    35     -1.897675   2 C  s                44      1.841055   2 C  py        
   151      1.594339   9 H  s                74     -1.583019   3 C  px        
 
 Vector   37  Occ=0.000000D+00  E= 3.855443D-01
              MO Center=  8.9D-01, -3.4D-01, -1.4D-01, r^2= 6.3D+00
   Bfn.  Coefficient  Atom+Function         Bfn.  Coefficient  Atom+Function  
  ----- ------------  ---------------      ----- ------------  ---------------
    36      5.923283   2 C  s                98      5.200854   4 C  s         
   127     -3.981718   5 H  s                45      3.110150   2 C  pz        
    67     -3.076049   3 C  s               151     -2.392631   9 H  s         
    35     -2.244906   2 C  s                76     -2.231648   3 C  pz        
   145     -2.226446   8 H  s               133      1.881795   6 H  s         
 
 Vector   38  Occ=0.000000D+00  E= 3.946162D-01
              MO Center=  1.8D-01,  1.3D-01, -2.1D-01, r^2= 6.4D+00
   Bfn.  Coefficient  Atom+Function         Bfn.  Coefficient  Atom+Function  
  ----- ------------  ---------------      ----- ------------  ---------------
    98     12.095766   4 C  s                45      5.307667   2 C  pz        
    67     -5.236051   3 C  s                76     -2.975506   3 C  pz        
    36     -2.959245   2 C  s               157     -2.767540  10 H  s         
   133      2.352442   6 H  s                44      2.301370   2 C  py        
    43     -1.900102   2 C  px               75      1.764900   3 C  py        
 
 Vector   39  Occ=0.000000D+00  E= 4.010032D-01
              MO Center= -2.0D-01,  2.3D-01,  2.4D-01, r^2= 6.5D+00
   Bfn.  Coefficient  Atom+Function         Bfn.  Coefficient  Atom+Function  
  ----- ------------  ---------------      ----- ------------  ---------------
    67    -12.699564   3 C  s                36     11.790773   2 C  s         
    45     -4.898107   2 C  pz               98     -4.242801   4 C  s         
    44      4.136920   2 C  py              127      2.984477   5 H  s         
    66      2.726395   3 C  s                43     -2.699274   2 C  px        
   139      2.434440   7 H  s               105      2.245802   4 C  px        
 
 Vector   40  Occ=0.000000D+00  E= 4.141186D-01
              MO Center=  7.6D-01, -3.1D-01, -8.0D-01, r^2= 6.0D+00
   Bfn.  Coefficient  Atom+Function         Bfn.  Coefficient  Atom+Function  
  ----- ------------  ---------------      ----- ------------  ---------------
    98      6.610640   4 C  s                36     -2.954666   2 C  s         
    45      2.794697   2 C  pz              105     -2.463333   4 C  px        
   151     -2.293174   9 H  s               157     -2.018352  10 H  s         
   145      1.774572   8 H  s                97     -1.132876   4 C  s         
   127     -0.971760   5 H  s               144     -0.955142   8 H  s         
 
 Vector   41  Occ=0.000000D+00  E= 4.264918D-01
              MO Center=  4.9D-01,  1.8D-01, -1.5D-01, r^2= 6.9D+00
   Bfn.  Coefficient  Atom+Function         Bfn.  Coefficient  Atom+Function  
  ----- ------------  ---------------      ----- ------------  ---------------
    36      9.728579   2 C  s                67     -4.906433   3 C  s         
    98     -4.536166   4 C  s                44      2.697217   2 C  py        
    75      2.668751   3 C  py              151      2.471516   9 H  s         
    43     -1.883502   2 C  px               45     -1.672059   2 C  pz        
    74     -1.495623   3 C  px              105      1.378515   4 C  px        
 
 Vector   42  Occ=0.000000D+00  E= 4.463774D-01
              MO Center=  1.2D-01, -1.3D-01, -1.7D-01, r^2= 6.1D+00
   Bfn.  Coefficient  Atom+Function         Bfn.  Coefficient  Atom+Function  
  ----- ------------  ---------------      ----- ------------  ---------------
    36      9.087725   2 C  s                98     -8.492418   4 C  s         
    45     -5.382427   2 C  pz              127      2.893932   5 H  s         
    67     -2.877081   3 C  s                76      2.648357   3 C  pz        
    44      2.241189   2 C  py              157      2.084395  10 H  s         
   133     -2.062794   6 H  s               106     -2.040545   4 C  py        
 
 Vector   43  Occ=0.000000D+00  E= 4.593810D-01
              MO Center=  8.7D-02,  7.8D-01, -5.7D-01, r^2= 5.1D+00
   Bfn.  Coefficient  Atom+Function         Bfn.  Coefficient  Atom+Function  
  ----- ------------  ---------------      ----- ------------  ---------------
   139      3.192408   7 H  s               157     -2.480298  10 H  s         
   107     -2.244519   4 C  pz               75     -2.162768   3 C  py        
    43      1.641658   2 C  px               44     -1.628098   2 C  py        
    45     -1.539464   2 C  pz              138     -1.426845   7 H  s         
    76      1.078709   3 C  pz               74      0.818129   3 C  px        
 
 Vector   44  Occ=0.000000D+00  E= 4.700778D-01
              MO Center=  4.4D-01,  1.9D-01,  3.2D-03, r^2= 5.6D+00
   Bfn.  Coefficient  Atom+Function         Bfn.  Coefficient  Atom+Function  
  ----- ------------  ---------------      ----- ------------  ---------------
    98     -5.158630   4 C  s                36      4.929475   2 C  s         
    45     -2.246528   2 C  pz              145      1.685350   8 H  s         
    67     -1.546053   3 C  s               107     -1.523337   4 C  pz        
   133      1.450601   6 H  s                35     -1.284845   2 C  s         
   132     -1.126739   6 H  s               126      1.055361   5 H  s         
 
 Vector   45  Occ=0.000000D+00  E= 5.116496D-01
              MO Center=  9.0D-01, -3.7D-01, -9.4D-01, r^2= 4.8D+00
   Bfn.  Coefficient  Atom+Function         Bfn.  Coefficient  Atom+Function  
  ----- ------------  ---------------      ----- ------------  ---------------
    98     11.488790   4 C  s                36     -7.766396   2 C  s         
    45      4.706050   2 C  pz              107      3.048102   4 C  pz        
   106      1.367777   4 C  py              144     -1.339463   8 H  s         
   156     -1.271602  10 H  s               127     -1.206094   5 H  s         
    14     -1.081031   1 O  pz              150     -1.063312   9 H  s         
 
 Vector   46  Occ=0.000000D+00  E= 5.399460D-01
              MO Center=  1.0D-01, -4.1D-01, -5.1D-01, r^2= 4.4D+00
   Bfn.  Coefficient  Atom+Function         Bfn.  Coefficient  Atom+Function  
  ----- ------------  ---------------      ----- ------------  ---------------
    98     -7.316618   4 C  s                36      6.998650   2 C  s         
    45     -3.743189   2 C  pz               76      3.328182   3 C  pz        
   133     -1.819993   6 H  s               105      1.532580   4 C  px        
   139      1.497474   7 H  s               107     -1.426437   4 C  pz        
     5     -1.193448   1 O  s                14     -1.150555   1 O  pz        
 
 Vector   47  Occ=0.000000D+00  E= 6.579219D-01
              MO Center= -3.8D-01,  3.9D-02, -3.0D-02, r^2= 4.3D+00
   Bfn.  Coefficient  Atom+Function         Bfn.  Coefficient  Atom+Function  
  ----- ------------  ---------------      ----- ------------  ---------------
    36     11.761428   2 C  s                67     -9.062651   3 C  s         
    98     -4.249414   4 C  s                43     -2.611937   2 C  px        
    75      2.453660   3 C  py               13      2.245839   1 O  py        
    76      2.091349   3 C  pz              105      1.625107   4 C  px        
   139      1.540879   7 H  s                44      1.461563   2 C  py        
 
 Vector   48  Occ=0.000000D+00  E= 6.744668D-01
              MO Center= -2.6D-01,  3.6D-01,  1.1D-01, r^2= 3.9D+00
   Bfn.  Coefficient  Atom+Function         Bfn.  Coefficient  Atom+Function  
  ----- ------------  ---------------      ----- ------------  ---------------
    36      7.902773   2 C  s                67     -7.605711   3 C  s         
     5      3.007276   1 O  s                75      2.481035   3 C  py        
    98     -2.233638   4 C  s                13      2.068110   1 O  py        
    45     -1.331457   2 C  pz               43     -1.148100   2 C  px        
     4     -1.112732   1 O  s                76      0.881310   3 C  pz        
 
 Vector   49  Occ=0.000000D+00  E= 7.053858D-01
              MO Center=  1.7D-01, -3.3D-01, -2.8D-01, r^2= 4.5D+00
   Bfn.  Coefficient  Atom+Function         Bfn.  Coefficient  Atom+Function  
  ----- ------------  ---------------      ----- ------------  ---------------
    67      9.798200   3 C  s                36     -7.682947   2 C  s         
    43      3.660287   2 C  px               44     -3.580554   2 C  py        
    75     -2.867483   3 C  py               98     -2.520611   4 C  s         
     5      2.205167   1 O  s                12      1.706139   1 O  px        
   106      1.693370   4 C  py               13     -1.344816   1 O  py        
 
 Vector   50  Occ=0.000000D+00  E= 7.587527D-01
              MO Center=  6.4D-01,  1.5D-02, -3.1D-01, r^2= 4.0D+00
   Bfn.  Coefficient  Atom+Function         Bfn.  Coefficient  Atom+Function  
  ----- ------------  ---------------      ----- ------------  ---------------
    45      2.345771   2 C  pz              127     -1.727432   5 H  s         
    43      1.715912   2 C  px              105     -1.622192   4 C  px        
   126     -1.352995   5 H  s               144      1.241370   8 H  s         
    36      1.210207   2 C  s                 5     -1.190023   1 O  s         
    67      1.133359   3 C  s                66      1.015132   3 C  s         
 
 Vector   51  Occ=0.000000D+00  E= 7.933211D-01
              MO Center=  2.7D-01,  2.2D-02, -1.9D-01, r^2= 4.4D+00
   Bfn.  Coefficient  Atom+Function         Bfn.  Coefficient  Atom+Function  
  ----- ------------  ---------------      ----- ------------  ---------------
     5      4.250943   1 O  s                36     -2.799021   2 C  s         
    76     -2.506840   3 C  pz                4     -1.640056   1 O  s         
    45      1.469016   2 C  pz               12      1.383585   1 O  px        
   133      1.337857   6 H  s                43      1.245521   2 C  px        
    66     -1.049782   3 C  s                35     -1.037174   2 C  s         
 
 Vector   52  Occ=0.000000D+00  E= 8.322840D-01
              MO Center=  3.2D-01,  1.8D-01,  1.7D-03, r^2= 4.4D+00
   Bfn.  Coefficient  Atom+Function         Bfn.  Coefficient  Atom+Function  
  ----- ------------  ---------------      ----- ------------  ---------------
    36      6.586974   2 C  s                98     -4.017100   4 C  s         
     5     -3.808705   1 O  s                43     -2.593523   2 C  px        
   105      1.920842   4 C  px               35     -1.861292   2 C  s         
    45     -1.671409   2 C  pz               44      1.512746   2 C  py        
    66     -1.196818   3 C  s                97      1.098706   4 C  s         
 
 Vector   53  Occ=0.000000D+00  E= 8.546202D-01
              MO Center=  5.9D-01,  1.4D-01, -3.7D-01, r^2= 4.2D+00
   Bfn.  Coefficient  Atom+Function         Bfn.  Coefficient  Atom+Function  
  ----- ------------  ---------------      ----- ------------  ---------------
    36      4.917858   2 C  s                98     -4.890818   4 C  s         
    45     -4.631881   2 C  pz               76      2.169440   3 C  pz        
   127      1.842101   5 H  s                44      1.605825   2 C  py        
   106     -1.561300   4 C  py              105      1.428047   4 C  px        
   150     -1.196338   9 H  s                 5     -1.122507   1 O  s         
 
 Vector   54  Occ=0.000000D+00  E= 8.709635D-01
              MO Center=  1.7D-01, -4.8D-02, -1.2D-01, r^2= 4.2D+00
   Bfn.  Coefficient  Atom+Function         Bfn.  Coefficient  Atom+Function  
  ----- ------------  ---------------      ----- ------------  ---------------
     5      4.718539   1 O  s                36     -2.021295   2 C  s         
     4     -1.575566   1 O  s               138      1.424055   7 H  s         
    76      1.298193   3 C  pz               12      1.194703   1 O  px        
    67     -1.196116   3 C  s                66     -1.124236   3 C  s         
    43      0.929843   2 C  px              156     -0.828589  10 H  s         
 
 Vector   55  Occ=0.000000D+00  E= 9.205069D-01
              MO Center=  5.0D-01,  3.0D-01, -4.8D-01, r^2= 4.6D+00
   Bfn.  Coefficient  Atom+Function         Bfn.  Coefficient  Atom+Function  
  ----- ------------  ---------------      ----- ------------  ---------------
    35      5.138618   2 C  s                36     -2.290075   2 C  s         
    67      1.850010   3 C  s               132     -1.334008   6 H  s         
    72      1.291622   3 C  py               66     -1.256340   3 C  s         
    84      1.167726   3 C  d  0             41      1.141565   2 C  py        
   156     -1.126992  10 H  s               116     -1.087221   4 C  d  1      
 
 Vector   56  Occ=0.000000D+00  E= 9.603932D-01
              MO Center=  4.1D-01,  3.5D-01, -4.7D-01, r^2= 4.7D+00
   Bfn.  Coefficient  Atom+Function         Bfn.  Coefficient  Atom+Function  
  ----- ------------  ---------------      ----- ------------  ---------------
    35      4.161887   2 C  s               138     -2.406550   7 H  s         
    67      2.350354   3 C  s                76     -1.770562   3 C  pz        
    42     -1.751461   2 C  pz               83     -1.691888   3 C  d -1      
    98     -1.535892   4 C  s               132      1.434111   6 H  s         
   115     -1.411617   4 C  d  0            107     -1.343099   4 C  pz        
 
 Vector   57  Occ=0.000000D+00  E= 9.918007D-01
              MO Center=  3.4D-01,  4.8D-01, -1.4D-01, r^2= 4.1D+00
   Bfn.  Coefficient  Atom+Function         Bfn.  Coefficient  Atom+Function  
  ----- ------------  ---------------      ----- ------------  ---------------
    36      7.515082   2 C  s                98     -4.652625   4 C  s         
    67     -4.158847   3 C  s                45     -3.567092   2 C  pz        
    43     -2.507846   2 C  px               44      2.261943   2 C  py        
    66     -1.650598   3 C  s                75      1.559293   3 C  py        
   127      1.544951   5 H  s                35     -1.336076   2 C  s         
 
 Vector   58  Occ=0.000000D+00  E= 1.014413D+00
              MO Center=  3.8D-01,  5.4D-01, -6.1D-02, r^2= 4.3D+00
   Bfn.  Coefficient  Atom+Function         Bfn.  Coefficient  Atom+Function  
  ----- ------------  ---------------      ----- ------------  ---------------
    36      5.794942   2 C  s                67     -4.861572   3 C  s         
    45     -2.134077   2 C  pz               44      2.047892   2 C  py        
    98     -1.641955   4 C  s                43     -1.524094   2 C  px        
   156     -1.492283  10 H  s                41      1.401932   2 C  py        
    74     -1.389402   3 C  px               76      1.395712   3 C  pz        
 
 Vector   59  Occ=0.000000D+00  E= 1.046459D+00
              MO Center=  7.2D-01, -1.7D-01, -4.8D-01, r^2= 4.2D+00
   Bfn.  Coefficient  Atom+Function         Bfn.  Coefficient  Atom+Function  
  ----- ------------  ---------------      ----- ------------  ---------------
    35      2.730993   2 C  s                66     -2.483870   3 C  s         
    36      2.457231   2 C  s               144     -1.988267   8 H  s         
   150      1.971980   9 H  s                 5     -1.901004   1 O  s         
   117      1.750975   4 C  d  2             41      1.590928   2 C  py        
    44      1.311962   2 C  py               72      1.285057   3 C  py        
 
 Vector   60  Occ=0.000000D+00  E= 1.081029D+00
              MO Center=  6.8D-01,  2.3D-03, -6.9D-02, r^2= 4.1D+00
   Bfn.  Coefficient  Atom+Function         Bfn.  Coefficient  Atom+Function  
  ----- ------------  ---------------      ----- ------------  ---------------
    98     -4.354547   4 C  s                36      4.236575   2 C  s         
    66      4.084743   3 C  s                45     -3.979114   2 C  pz        
    97     -3.883497   4 C  s                41     -2.596687   2 C  py        
   104     -2.587245   4 C  pz               42     -2.405782   2 C  pz        
    72     -2.406154   3 C  py               53      2.290397   2 C  d  0      
 
 Vector   61  Occ=0.000000D+00  E= 1.105301D+00
              MO Center=  3.7D-01,  5.5D-02,  5.7D-02, r^2= 3.7D+00
   Bfn.  Coefficient  Atom+Function         Bfn.  Coefficient  Atom+Function  
  ----- ------------  ---------------      ----- ------------  ---------------
    36      7.271454   2 C  s                67     -5.171785   3 C  s         
    98     -2.749322   4 C  s                66      2.049223   3 C  s         
   126     -2.013029   5 H  s                45     -1.749875   2 C  pz        
   132      1.658890   6 H  s                72     -1.543628   3 C  py        
    41     -1.425869   2 C  py               53      1.325975   2 C  d  0      
 
 Vector   62  Occ=0.000000D+00  E= 1.146126D+00
              MO Center=  6.3D-01,  1.4D-02, -2.2D-02, r^2= 3.5D+00
   Bfn.  Coefficient  Atom+Function         Bfn.  Coefficient  Atom+Function  
  ----- ------------  ---------------      ----- ------------  ---------------
    67      5.228749   3 C  s                36     -4.064379   2 C  s         
    44     -2.418282   2 C  py              126      1.833348   5 H  s         
    97     -1.798213   4 C  s                54      1.583990   2 C  d  1      
    43      1.571047   2 C  px               55      1.468375   2 C  d  2      
    75     -1.465367   3 C  py               42     -1.443500   2 C  pz        
 
 Vector   63  Occ=0.000000D+00  E= 1.215718D+00
              MO Center=  5.6D-01,  2.0D-01, -1.5D-01, r^2= 3.8D+00
   Bfn.  Coefficient  Atom+Function         Bfn.  Coefficient  Atom+Function  
  ----- ------------  ---------------      ----- ------------  ---------------
    36      6.878490   2 C  s                66     -5.155191   3 C  s         
    97     -3.425027   4 C  s                67     -3.284682   3 C  s         
    35      3.199535   2 C  s                72      1.951973   3 C  py        
    51     -1.783302   2 C  d -2             52      1.684502   2 C  d -1      
   138      1.642875   7 H  s                41      1.531087   2 C  py        
 
 Vector   64  Occ=0.000000D+00  E= 1.349225D+00
              MO Center=  3.5D-01,  5.3D-01,  2.1D-01, r^2= 3.6D+00
   Bfn.  Coefficient  Atom+Function         Bfn.  Coefficient  Atom+Function  
  ----- ------------  ---------------      ----- ------------  ---------------
    66      4.586229   3 C  s                35      4.032748   2 C  s         
    67     -3.113068   3 C  s                36     -2.659922   2 C  s         
    65     -2.381172   3 C  s               132     -2.048276   6 H  s         
    34     -1.453619   2 C  s               133      1.446155   6 H  s         
    72      1.393789   3 C  py              139      1.046435   7 H  s         
 
 Vector   65  Occ=0.000000D+00  E= 1.415438D+00
              MO Center=  1.6D-01,  5.2D-01, -6.7D-02, r^2= 3.4D+00
   Bfn.  Coefficient  Atom+Function         Bfn.  Coefficient  Atom+Function  
  ----- ------------  ---------------      ----- ------------  ---------------
    36      4.265216   2 C  s                66      3.927139   3 C  s         
    67     -3.805336   3 C  s                35     -3.733387   2 C  s         
    73     -2.324404   3 C  pz              138     -2.251894   7 H  s         
   139      2.220442   7 H  s               126      1.775269   5 H  s         
    76      1.694409   3 C  pz               65     -1.588034   3 C  s         
 
 Vector   66  Occ=0.000000D+00  E= 1.433639D+00
              MO Center=  1.1D+00, -4.8D-01, -1.1D+00, r^2= 3.5D+00
   Bfn.  Coefficient  Atom+Function         Bfn.  Coefficient  Atom+Function  
  ----- ------------  ---------------      ----- ------------  ---------------
    98     10.016660   4 C  s                97     -7.608777   4 C  s         
    96      3.103134   4 C  s               145     -2.491316   8 H  s         
   151     -2.369219   9 H  s               157     -2.053941  10 H  s         
    36     -1.871325   2 C  s               144      1.737246   8 H  s         
   150      1.726870   9 H  s               104      1.452203   4 C  pz        
 
 Vector   67  Occ=0.000000D+00  E= 1.442244D+00
              MO Center=  3.4D-01,  2.6D-02, -3.8D-02, r^2= 4.2D+00
   Bfn.  Coefficient  Atom+Function         Bfn.  Coefficient  Atom+Function  
  ----- ------------  ---------------      ----- ------------  ---------------
    66      4.452808   3 C  s                98      3.311821   4 C  s         
    35     -3.266141   2 C  s                67     -2.752747   3 C  s         
    45      2.094932   2 C  pz              133      2.089510   6 H  s         
    76     -1.954712   3 C  pz              127     -1.735127   5 H  s         
    65     -1.617208   3 C  s               132     -1.603278   6 H  s         
 
 Vector   68  Occ=0.000000D+00  E= 1.448837D+00
              MO Center=  2.4D-01,  6.4D-02, -1.1D-01, r^2= 3.0D+00
   Bfn.  Coefficient  Atom+Function         Bfn.  Coefficient  Atom+Function  
  ----- ------------  ---------------      ----- ------------  ---------------
    98      4.176643   4 C  s                36     -2.932487   2 C  s         
     5      2.251912   1 O  s                97     -2.229804   4 C  s         
    45      1.787319   2 C  pz               67      1.353717   3 C  s         
    44     -1.159561   2 C  py               66     -1.158007   3 C  s         
   127     -1.159488   5 H  s                96      0.937855   4 C  s         
 
 Vector   69  Occ=0.000000D+00  E= 1.472966D+00
              MO Center=  1.0D+00, -3.7D-01, -1.0D+00, r^2= 3.2D+00
   Bfn.  Coefficient  Atom+Function         Bfn.  Coefficient  Atom+Function  
  ----- ------------  ---------------      ----- ------------  ---------------
    36      3.393574   2 C  s               156     -2.718668  10 H  s         
   157      2.125138  10 H  s               126      1.910026   5 H  s         
   103      1.881438   4 C  py              102     -1.759491   4 C  px        
   104     -1.733719   4 C  pz               35     -1.670616   2 C  s         
   127     -1.595684   5 H  s                98     -1.312142   4 C  s         
 
 Vector   70  Occ=0.000000D+00  E= 1.480340D+00
              MO Center=  1.0D+00, -3.7D-01, -1.1D+00, r^2= 3.3D+00
   Bfn.  Coefficient  Atom+Function         Bfn.  Coefficient  Atom+Function  
  ----- ------------  ---------------      ----- ------------  ---------------
    66      2.223997   3 C  s                67     -1.024822   3 C  s         
   133      0.995216   6 H  s                 5     -0.960693   1 O  s         
    65     -0.952930   3 C  s                71     -0.851101   3 C  px        
   132     -0.848185   6 H  s               144     -0.851274   8 H  s         
   102      0.776695   4 C  px               97      0.765867   4 C  s         
 
 Vector   71  Occ=0.000000D+00  E= 1.511710D+00
              MO Center=  3.8D-01,  8.6D-02, -3.6D-01, r^2= 4.0D+00
   Bfn.  Coefficient  Atom+Function         Bfn.  Coefficient  Atom+Function  
  ----- ------------  ---------------      ----- ------------  ---------------
    98      2.448418   4 C  s               144      1.881286   8 H  s         
   102     -1.650694   4 C  px              145     -1.474184   8 H  s         
   103     -1.332146   4 C  py               45      1.218647   2 C  pz        
    66      1.102504   3 C  s                97     -1.023845   4 C  s         
   150     -0.926517   9 H  s                35     -0.852087   2 C  s         
 
 Vector   72  Occ=0.000000D+00  E= 1.542320D+00
              MO Center=  2.9D-01,  5.1D-01, -1.5D-01, r^2= 4.5D+00
   Bfn.  Coefficient  Atom+Function         Bfn.  Coefficient  Atom+Function  
  ----- ------------  ---------------      ----- ------------  ---------------
    36      4.400549   2 C  s                98     -3.851867   4 C  s         
    35     -3.610274   2 C  s                97      3.292262   4 C  s         
    67     -2.484329   3 C  s                73      2.158520   3 C  pz        
   132     -1.778009   6 H  s               133      1.426336   6 H  s         
   138      1.385113   7 H  s               151      1.284179   9 H  s         
 
 Vector   73  Occ=0.000000D+00  E= 1.579348D+00
              MO Center=  4.2D-01,  9.0D-02, -2.8D-02, r^2= 3.3D+00
   Bfn.  Coefficient  Atom+Function         Bfn.  Coefficient  Atom+Function  
  ----- ------------  ---------------      ----- ------------  ---------------
    35      2.767707   2 C  s                97     -2.224879   4 C  s         
    40     -1.854312   2 C  px               36     -1.777671   2 C  s         
   126      1.782632   5 H  s                42     -1.614085   2 C  pz        
    72      1.292912   3 C  py               34     -1.238594   2 C  s         
   127     -1.239777   5 H  s               144      1.178000   8 H  s         
 
 Vector   74  Occ=0.000000D+00  E= 1.599453D+00
              MO Center=  3.6D-01,  3.6D-01, -1.4D-01, r^2= 3.4D+00
   Bfn.  Coefficient  Atom+Function         Bfn.  Coefficient  Atom+Function  
  ----- ------------  ---------------      ----- ------------  ---------------
    35      5.905803   2 C  s                36     -5.520247   2 C  s         
    66     -5.264076   3 C  s                67      3.966811   3 C  s         
    41      3.750575   2 C  py               71     -2.593876   3 C  px        
    72      2.586787   3 C  py               40     -2.349380   2 C  px        
    98      2.204355   4 C  s                34     -1.702190   2 C  s         
 
 Vector   75  Occ=0.000000D+00  E= 1.643482D+00
              MO Center=  5.0D-01,  1.1D-01, -9.7D-02, r^2= 3.6D+00
   Bfn.  Coefficient  Atom+Function         Bfn.  Coefficient  Atom+Function  
  ----- ------------  ---------------      ----- ------------  ---------------
    66      3.105695   3 C  s                98      1.923815   4 C  s         
    35      1.873161   2 C  s                97     -1.760408   4 C  s         
     5     -1.650403   1 O  s                67     -1.575418   3 C  s         
    41     -1.314195   2 C  py              104     -1.299075   4 C  pz        
   150     -1.183889   9 H  s               103     -1.152363   4 C  py        
 
 Vector   76  Occ=0.000000D+00  E= 1.696847D+00
              MO Center=  5.6D-01,  1.4D-01, -4.1D-01, r^2= 3.7D+00
   Bfn.  Coefficient  Atom+Function         Bfn.  Coefficient  Atom+Function  
  ----- ------------  ---------------      ----- ------------  ---------------
    97     -5.546506   4 C  s                35      5.081884   2 C  s         
   104     -2.910642   4 C  pz               42     -2.847791   2 C  pz        
   102      1.927539   4 C  px               40      1.768357   2 C  px        
    96      1.518106   4 C  s                34     -1.465526   2 C  s         
    66     -1.433665   3 C  s                72     -1.283861   3 C  py        
 
 Vector   77  Occ=0.000000D+00  E= 1.699799D+00
              MO Center= -5.5D-02,  3.0D-01, -7.1D-02, r^2= 3.7D+00
   Bfn.  Coefficient  Atom+Function         Bfn.  Coefficient  Atom+Function  
  ----- ------------  ---------------      ----- ------------  ---------------
     5      3.944492   1 O  s                72      3.390030   3 C  py        
    36     -2.537435   2 C  s                66     -2.141149   3 C  s         
    97      1.979589   4 C  s               138     -1.927831   7 H  s         
    42      1.574031   2 C  pz               41      1.562161   2 C  py        
    12      1.524105   1 O  px              104      1.376240   4 C  pz        
 
 Vector   78  Occ=0.000000D+00  E= 1.788682D+00
              MO Center=  4.3D-01,  2.2D-01, -9.7D-04, r^2= 3.5D+00
   Bfn.  Coefficient  Atom+Function         Bfn.  Coefficient  Atom+Function  
  ----- ------------  ---------------      ----- ------------  ---------------
    35      3.086396   2 C  s                97     -2.937017   4 C  s         
    36      1.608444   2 C  s               104     -1.279737   4 C  pz        
    45     -1.267837   2 C  pz               42     -1.173173   2 C  pz        
    67     -1.026842   3 C  s               102      1.030118   4 C  px        
    96      0.943151   4 C  s               103     -0.943464   4 C  py        
 
 Vector   79  Occ=0.000000D+00  E= 1.813602D+00
              MO Center= -6.2D-01,  1.8D-01,  1.8D-01, r^2= 2.6D+00
   Bfn.  Coefficient  Atom+Function         Bfn.  Coefficient  Atom+Function  
  ----- ------------  ---------------      ----- ------------  ---------------
    35      4.177711   2 C  s                 5     -3.343658   1 O  s         
    40     -2.514391   2 C  px               41      2.174818   2 C  py        
    72      2.050492   3 C  py               66     -1.888971   3 C  s         
    71     -1.698150   3 C  px               12     -1.385010   1 O  px        
   132     -1.050443   6 H  s               138     -1.038556   7 H  s         
 
 Vector   80  Occ=0.000000D+00  E= 1.841779D+00
              MO Center=  6.0D-02,  2.9D-01, -9.0D-02, r^2= 3.7D+00
   Bfn.  Coefficient  Atom+Function         Bfn.  Coefficient  Atom+Function  
  ----- ------------  ---------------      ----- ------------  ---------------
    35      1.452927   2 C  s                36     -1.399876   2 C  s         
   156     -0.952171  10 H  s                66      0.828157   3 C  s         
    67      0.813762   3 C  s               104     -0.712084   4 C  pz        
    41     -0.702946   2 C  py                5     -0.699411   1 O  s         
    71     -0.694411   3 C  px              157      0.647016  10 H  s         
 
 Vector   81  Occ=0.000000D+00  E= 1.868259D+00
              MO Center=  5.5D-01,  1.5D-01, -4.5D-01, r^2= 4.0D+00
   Bfn.  Coefficient  Atom+Function         Bfn.  Coefficient  Atom+Function  
  ----- ------------  ---------------      ----- ------------  ---------------
    35      7.069925   2 C  s                66     -4.401508   3 C  s         
    97     -3.618383   4 C  s                72      3.507021   3 C  py        
   104     -2.111498   4 C  pz               36      1.896048   2 C  s         
    34     -1.725671   2 C  s                41      1.508335   2 C  py        
    67     -1.507206   3 C  s                45     -1.313002   2 C  pz        
 
 Vector   82  Occ=0.000000D+00  E= 1.922969D+00
              MO Center=  3.4D-01, -1.4D-01, -3.2D-01, r^2= 3.2D+00
   Bfn.  Coefficient  Atom+Function         Bfn.  Coefficient  Atom+Function  
  ----- ------------  ---------------      ----- ------------  ---------------
    36      1.403896   2 C  s                97     -1.294400   4 C  s         
    98     -1.279682   4 C  s                35      1.266664   2 C  s         
   103     -1.254542   4 C  py               45     -1.230065   2 C  pz        
    66     -0.958038   3 C  s                42     -0.816578   2 C  pz        
    41      0.811089   2 C  py              150     -0.795678   9 H  s         
 
 Vector   83  Occ=0.000000D+00  E= 1.990579D+00
              MO Center=  7.6D-01, -1.8D-01, -2.6D-01, r^2= 3.3D+00
   Bfn.  Coefficient  Atom+Function         Bfn.  Coefficient  Atom+Function  
  ----- ------------  ---------------      ----- ------------  ---------------
    98      3.067924   4 C  s                35      3.015829   2 C  s         
    66     -2.570898   3 C  s                40     -2.303385   2 C  px        
    72      1.864132   3 C  py               41      1.656915   2 C  py        
    43     -1.590829   2 C  px               67     -1.558560   3 C  s         
    71     -1.388202   3 C  px              126      1.221752   5 H  s         
 
 Vector   84  Occ=0.000000D+00  E= 1.995780D+00
              MO Center=  7.3D-01, -1.7D-01, -9.0D-01, r^2= 3.4D+00
   Bfn.  Coefficient  Atom+Function         Bfn.  Coefficient  Atom+Function  
  ----- ------------  ---------------      ----- ------------  ---------------
    36      4.768844   2 C  s                98     -4.400868   4 C  s         
    45     -2.152202   2 C  pz               35     -1.979176   2 C  s         
    67     -1.571970   3 C  s               156      1.151654  10 H  s         
   107     -1.132742   4 C  pz               34      0.822460   2 C  s         
   104      0.816829   4 C  pz              150      0.765550   9 H  s         
 
 Vector   85  Occ=0.000000D+00  E= 2.090275D+00
              MO Center= -1.4D-02,  1.5D-01, -4.8D-02, r^2= 3.6D+00
   Bfn.  Coefficient  Atom+Function         Bfn.  Coefficient  Atom+Function  
  ----- ------------  ---------------      ----- ------------  ---------------
    98      2.225022   4 C  s                36     -1.760230   2 C  s         
   156     -0.779909  10 H  s               138      0.742285   7 H  s         
    14      0.672141   1 O  pz               41     -0.655936   2 C  py        
   150     -0.571014   9 H  s                40      0.546097   2 C  px        
   144     -0.517176   8 H  s                45      0.513760   2 C  pz        
 
 Vector   86  Occ=0.000000D+00  E= 2.096271D+00
              MO Center= -3.9D-01,  6.4D-02,  8.2D-02, r^2= 2.9D+00
   Bfn.  Coefficient  Atom+Function         Bfn.  Coefficient  Atom+Function  
  ----- ------------  ---------------      ----- ------------  ---------------
    36      6.114748   2 C  s                67     -5.728907   3 C  s         
    35     -3.396527   2 C  s                66      3.399780   3 C  s         
    41     -3.089849   2 C  py               71      2.788406   3 C  px        
    13      1.902064   1 O  py               82     -1.489529   3 C  d -2      
    75      1.358650   3 C  py               43     -1.346362   2 C  px        
 
 Vector   87  Occ=0.000000D+00  E= 2.165755D+00
              MO Center=  4.8D-01,  1.9D-03, -4.8D-01, r^2= 3.2D+00
   Bfn.  Coefficient  Atom+Function         Bfn.  Coefficient  Atom+Function  
  ----- ------------  ---------------      ----- ------------  ---------------
    98      2.239286   4 C  s                67     -1.759366   3 C  s         
    73      1.060421   3 C  pz               35     -1.024884   2 C  s         
   156     -0.924747  10 H  s                40      0.864853   2 C  px        
    42     -0.822452   2 C  pz               43     -0.805068   2 C  px        
    44      0.800218   2 C  py               36      0.768824   2 C  s         
 
 Vector   88  Occ=0.000000D+00  E= 2.205879D+00
              MO Center=  3.3D-01,  2.2D-01, -1.9D-01, r^2= 3.5D+00
   Bfn.  Coefficient  Atom+Function         Bfn.  Coefficient  Atom+Function  
  ----- ------------  ---------------      ----- ------------  ---------------
    98      2.260859   4 C  s                36     -1.475802   2 C  s         
    45      1.093679   2 C  pz               76     -1.007971   3 C  pz        
   132      0.865524   6 H  s                42     -0.853442   2 C  pz        
    97     -0.759426   4 C  s               117     -0.756331   4 C  d  2      
   103     -0.740773   4 C  py              138     -0.663006   7 H  s         
 
 Vector   89  Occ=0.000000D+00  E= 2.226805D+00
              MO Center=  5.8D-01,  2.6D-02, -2.5D-02, r^2= 3.5D+00
   Bfn.  Coefficient  Atom+Function         Bfn.  Coefficient  Atom+Function  
  ----- ------------  ---------------      ----- ------------  ---------------
    36      3.249073   2 C  s                67     -1.662120   3 C  s         
    98     -1.493887   4 C  s                 5     -1.176913   1 O  s         
    42     -1.029839   2 C  pz               72     -0.922381   3 C  py        
    45     -0.824363   2 C  pz               43     -0.732659   2 C  px        
    66      0.724770   3 C  s                35     -0.720514   2 C  s         
 
 Vector   90  Occ=0.000000D+00  E= 2.249824D+00
              MO Center=  8.5D-01, -3.2D-01, -8.8D-01, r^2= 3.5D+00
   Bfn.  Coefficient  Atom+Function         Bfn.  Coefficient  Atom+Function  
  ----- ------------  ---------------      ----- ------------  ---------------
   150      1.340878   9 H  s                36      1.027619   2 C  s         
   144     -0.985535   8 H  s                67     -0.835393   3 C  s         
   117      0.687720   4 C  d  2             66     -0.589430   3 C  s         
   149     -0.582695   9 H  s                72      0.529818   3 C  py        
    83      0.527807   3 C  d -1             54      0.473760   2 C  d  1      
 
 Vector   91  Occ=0.000000D+00  E= 2.275001D+00
              MO Center=  6.6D-01,  1.4D-02, -7.6D-01, r^2= 3.4D+00
   Bfn.  Coefficient  Atom+Function         Bfn.  Coefficient  Atom+Function  
  ----- ------------  ---------------      ----- ------------  ---------------
    98     -2.613223   4 C  s                36      2.594091   2 C  s         
    76      1.188114   3 C  pz               67     -1.180870   3 C  s         
    66      0.963677   3 C  s                45     -0.922337   2 C  pz        
    41     -0.846480   2 C  py              156      0.699704  10 H  s         
   139      0.638320   7 H  s               117     -0.606862   4 C  d  2      
 
 Vector   92  Occ=0.000000D+00  E= 2.282517D+00
              MO Center=  8.4D-01, -1.6D-01, -5.2D-01, r^2= 3.7D+00
   Bfn.  Coefficient  Atom+Function         Bfn.  Coefficient  Atom+Function  
  ----- ------------  ---------------      ----- ------------  ---------------
    66      3.308171   3 C  s                98      2.649008   4 C  s         
[...]
    21     -0.870448   1 O  d -1             42     -0.816877   2 C  pz        
    97     -0.731648   4 C  s                45     -0.701297   2 C  pz        
    67     -0.535627   3 C  s                98     -0.521718   4 C  s         
     5     -0.507418   1 O  s               102      0.508071   4 C  px        
 
 Vector  154  Occ=0.000000D+00  E= 6.678263D+00
              MO Center= -8.7D-01, -1.8D-01,  2.0D-01, r^2= 5.7D-01
   Bfn.  Coefficient  Atom+Function         Bfn.  Coefficient  Atom+Function  
  ----- ------------  ---------------      ----- ------------  ---------------
    18      1.059777   1 O  d  1             23     -1.038114   1 O  d  1      
    97     -0.857712   4 C  s                42     -0.785059   2 C  pz        
    35      0.773999   2 C  s               102      0.653519   4 C  px        
    54     -0.549816   2 C  d  1             14      0.406723   1 O  pz        
    16     -0.396858   1 O  d -1             11      0.392755   1 O  pz        
 
 Vector  155  Occ=0.000000D+00  E= 6.842554D+00
              MO Center= -8.8D-01, -1.9D-01,  2.0D-01, r^2= 5.9D-01
   Bfn.  Coefficient  Atom+Function         Bfn.  Coefficient  Atom+Function  
  ----- ------------  ---------------      ----- ------------  ---------------
     5      2.102476   1 O  s                40      1.775342   2 C  px        
     9      1.362078   1 O  px               97     -1.272243   4 C  s         
     4      1.205770   1 O  s                20      1.049833   1 O  d -2      
    42     -0.980605   2 C  pz               35     -0.888963   2 C  s         
    12      0.845016   1 O  px               15     -0.833017   1 O  d -2      
 
 Vector  156  Occ=0.000000D+00  E= 7.054981D+00
              MO Center= -8.9D-01, -1.9D-01,  2.0D-01, r^2= 6.4D-01
   Bfn.  Coefficient  Atom+Function         Bfn.  Coefficient  Atom+Function  
  ----- ------------  ---------------      ----- ------------  ---------------
    66     -3.178060   3 C  s                35      3.024102   2 C  s         
    40     -2.722000   2 C  px               72      2.683937   3 C  py        
    24     -1.577791   1 O  d  2             36      1.476721   2 C  s         
    67     -1.320781   3 C  s                10      1.283073   1 O  py        
    19      1.015615   1 O  d  2             13      0.869720   1 O  py        
 
 Vector  157  Occ=0.000000D+00  E= 2.194569D+01
              MO Center=  5.2D-02,  8.1D-01,  8.3D-02, r^2= 1.1D+00
   Bfn.  Coefficient  Atom+Function         Bfn.  Coefficient  Atom+Function  
  ----- ------------  ---------------      ----- ------------  ---------------
    64      1.599183   3 C  s                65     -1.359649   3 C  s         
    63     -1.259937   3 C  s                67     -1.238180   3 C  s         
    98      1.049256   4 C  s                95     -0.712653   4 C  s         
    96      0.582498   4 C  s                35      0.575116   2 C  s         
    94      0.563782   4 C  s                40     -0.489346   2 C  px        
 
 Vector  158  Occ=0.000000D+00  E= 2.198596D+01
              MO Center=  9.2D-01, -2.9D-01, -7.7D-01, r^2= 1.1D+00
   Bfn.  Coefficient  Atom+Function         Bfn.  Coefficient  Atom+Function  
  ----- ------------  ---------------      ----- ------------  ---------------
    95      1.463939   4 C  s                96     -1.354762   4 C  s         
    98     -1.190279   4 C  s                94     -1.151616   4 C  s         
    34     -0.922801   2 C  s                36     -0.894078   2 C  s         
    33      0.846019   2 C  s                32     -0.660800   2 C  s         
    67      0.612196   3 C  s                65     -0.599531   3 C  s         
 
 Vector  159  Occ=0.000000D+00  E= 2.211064D+01
              MO Center=  6.0D-01, -1.0D-01, -5.6D-02, r^2= 6.8D-01
   Bfn.  Coefficient  Atom+Function         Bfn.  Coefficient  Atom+Function  
  ----- ------------  ---------------      ----- ------------  ---------------
    36      2.195537   2 C  s                33     -1.551907   2 C  s         
    34      1.531704   2 C  s                35     -1.294732   2 C  s         
    98     -1.277346   4 C  s                32      1.214775   2 C  s         
    67     -1.167650   3 C  s                95      0.691811   4 C  s         
    97      0.661581   4 C  s                96     -0.617563   4 C  s         
 
 Vector  160  Occ=0.000000D+00  E= 4.341718D+01
              MO Center= -8.8D-01, -1.8D-01,  2.0D-01, r^2= 1.2D-01
   Bfn.  Coefficient  Atom+Function         Bfn.  Coefficient  Atom+Function  
  ----- ------------  ---------------      ----- ------------  ---------------
     4      2.515805   1 O  s                 3     -1.876880   1 O  s         
     2      1.731726   1 O  s                 1     -1.395873   1 O  s         
     5     -0.879336   1 O  s                36      0.842364   2 C  s         
     9      0.566447   1 O  px               66     -0.522299   3 C  s         
    40      0.470184   2 C  px               72      0.458982   3 C  py        
 

 center of mass
 --------------
 x =   0.30619373 y =   0.09486491 z =  -0.27792499

 moments of inertia (a.u.)
 ------------------
         199.823038172015          45.684947740888          83.855421613638
          45.684947740888         247.932156325865         -52.654698364262
          83.855421613638         -52.654698364262         238.600449317370
 
     Multipole analysis of the density
     ---------------------------------
 
     L   x y z        total         alpha         beta         nuclear
     -   - - -        -----         -----         ----         -------
     0   0 0 0     -0.000000    -16.000000    -16.000000     32.000000
 
     1   1 0 0      0.686429     -6.239241     -6.239241     13.164910
     1   0 1 0      0.328202     -1.607692     -1.607692      3.543586
     1   0 0 1     -0.059024      5.348645      5.348645    -10.756315
 
     2   2 0 0    -20.023803    -54.376088    -54.376088     88.728372
     2   1 1 0     -1.121804     13.926221     13.926221    -28.974247
     2   1 0 1      0.112351     26.581819     26.581819    -53.051286
     2   0 2 0    -17.847339    -40.395994    -40.395994     62.944650
     2   0 1 1      0.266337    -15.429139    -15.429139     31.124616
     2   0 0 2    -18.155592    -45.844370    -45.844370     73.533147
 
 *** CALLING NEW AORESP DRIVER FOR CLOSED AND OPEN SHELLS ***
 Entering AOResponse driver routine


--------------------------------------------------------------------------------

          ****************
          *** RESPONSE ***
          ****************

 Response module for NWChem and dynamic CPKS solver
 developed by J. Autschbach and coworkers, SUNY Buffalo
 The methodology used in this program is described in 
 ChemPhysChem 12 (2011), 3224-3235 (main reference)
 J. Chem. Phys. 123 (2005), 114103
 J. Chem. Phys. 122 (2005), 224115
 J. Chem. Phys. 122 (2005), 074105
 Comp. Lett. 3 (2007), 131-150 (contact JA for a copy)
 Please cite this work in publications based on results
 obtained with this code. Thank you!

 For extension of response module to open shell
 calculations please acknowledge:
 F. Aquino, Northwestern University, Schatz Rsrch Group
 The update to the methodology is described in
 J. Phys. Chem. A 118 (2014) 517-525



          -----------------------------------------------
          Solving response equations for perturbing field
          -----------------------------------------------

 number of frequencies:     1
 frequency in a.u.:  0.9319600E-01
 Perturbing field: electric
 Using GIAO formalism for OptRot
 Adding quadrupole terms to OptRot
 to create an origin in dependent tensor.
 Using El. Dipole Length Gauge
 
 Applying DAMPING constant of  0.003700 a.u.
 
 Setting up CPKS
 with frequency omega =      0.09319600 a.u.
 and a damping of            0.00370000 a.u.

 
                            NWChem Dynamic CPHF Module
                            --------------------------
 
 
    scftype = RHF 
    nclosed =   16
      nopen =    0
  variables =     9216
  num. vecs =        3
  tolerance =   1.0D-07
  max. iter =  100

 SCF residual:   1.041836857748814E-006


Iterative solution of linear equations
  No. of variables     4608
  No. of equations        3
  Maximum subspace       99
       Convergence  1.0D-07
        Start time     94.7


   iter   nsub   residual    time 
   ----  ------  --------  --------- 
 dft_CPHF2_read: failed to open
 ./methyloxirane_blyp-def2-tzvp_488.9_38.inp.aoresp_fiao_f1
     1      3    3.67D+00     144.2
     2      6    2.64D+00     193.8
     3      9    2.47D-01     243.5
     4     12    5.34D-02     293.2
     5     15    1.03D-02     342.9
     6     18    1.27D-03     392.6
     7     21    1.39D-04     445.0
     8     24    1.31D-05     494.6
     9     27    1.24D-06     544.3
    10     30    4.73D-07     594.0
    11     33    1.35D-08     643.7

 Calculating some arrays needed for GIAO optical rotation

    0 giaofock schwarz done =      93.71%
    0 giaofock schwarz done =      92.94%
 aor_r1_tensor_giao: roadata output requested
 dip-quad polarizability Re:

              1        2        3        4        5        6      
    1   77.7849  -6.4571 -28.0382  -4.3286   1.2114   9.2672
    2  -11.9119  25.8816   3.3764  22.9348 -22.0269   4.0924
    3   -6.8486   1.1198  39.6045  -0.2689  13.8735 -41.7685
 traceless dip-quad polarizability:

              1        2        3      
    1   75.3156  -9.6856 -42.0574
    2   -9.6856 -47.8546   1.8171
    3  -42.0574   1.8171 -27.4609

              1        2        3      
    1  -25.4255  38.8224   5.0645
    2   38.8224  26.8445 -33.0404
    3    5.0645 -33.0404  -1.4191

              1        2        3      
    1   14.1702   1.6798  59.4068
    2    1.6798  24.0396  20.8103
    3   59.4068  20.8103 -38.2097

 roa begin

 alpha real:
 XX       0.4102051969654E+02
 XY      -0.5203684644335E+01
 XZ      -0.3073406870959E+01
 YX      -0.5203684652585E+01
 YY       0.4394651289123E+02
 YZ       0.3174013383303E+01
 ZX      -0.3073406869219E+01
 ZY       0.3174013395396E+01
 ZZ       0.4151598375811E+02

 alpha im:
 XX       0.1112962918720E+00
 XY      -0.2987942835463E-01
 XZ      -0.1137262592322E-01
 YX      -0.2987942367533E-01
 YY       0.1287232720956E+00
 YZ       0.1829895697062E-01
 ZX      -0.1137262093118E-01
 ZY       0.1829895557926E-01
 ZZ       0.1230344785390E+00

 beta real:
 XX      -0.1432921357166E+00
 XY       0.9394204509044E+00
 XZ       0.1968533087284E+00
 YX      -0.8931217647256E+00
 YY       0.1448034253027E+00
 YZ      -0.1550393538003E+01
 ZX      -0.4804259562675E+00
 ZY       0.1874947598662E+01
 ZZ      -0.3950297259281E-02

 G-prime = -omega beta(real):
 XX      -0.1432921357166E+00
 XY       0.9394204509044E+00
 XZ       0.1968533087284E+00
 YX      -0.8931217647256E+00
 YY       0.1448034253027E+00
 YZ      -0.1550393538003E+01
 ZX      -0.4804259562675E+00
 ZY       0.1874947598662E+01
 ZZ      -0.3950297259281E-02

 beta im:
 XX      -0.6155480427914E-02
 XY       0.1306183852451E-01
 XZ       0.2754738736075E-02
 YX      -0.7569431730610E-02
 YY       0.4825889930289E-02
 YZ      -0.2344912910718E-01
 ZX      -0.1360558341490E-01
 ZY       0.4015749069444E-01
 ZZ       0.6467179658270E-03

 G-prime = -omega beta(imag):
 XX      -0.6155480427914E-02
 XY       0.1306183852451E-01
 XZ       0.2754738736075E-02
 YX      -0.7569431730610E-02
 YY       0.4825889930289E-02
 YZ      -0.2344912910718E-01
 ZX      -0.1360558341490E-01
 ZY       0.4015749069444E-01
 ZZ       0.6467179658270E-03

 dipole-quadrupole real (Cartesian):
 XXX      0.7778489504565E+02
 XXY     -0.6457058800635E+01
 XXZ     -0.2803824950715E+02
 XYY     -0.4328558535957E+01
 XYZ      0.1211387936995E+01
 XZZ      0.9267226427898E+01
 YXX     -0.1191190797787E+02
 YXY      0.2588157202376E+02
 YXZ      0.3376356699308E+01
 YYY      0.2293476944745E+02
 YYZ     -0.2202693313819E+02
 YZZ      0.4092370788711E+01
 ZXX     -0.6848554217894E+01
 ZXY      0.1119848632944E+01
 ZXZ      0.3960450341103E+02
 ZYY     -0.2689422439086E+00
 ZYZ      0.1387354282080E+02
 ZZZ     -0.4176847299881E+02

 dipole-quadrupole imag (Cartesian):
 XXX      0.2737168746128E+00
 XXY     -0.3590525376422E-01
 XXZ     -0.7946274883410E-01
 XYY     -0.2793445755128E-01
 XYZ      0.2336045867677E-02
 XZZ      0.6064186956702E-01
 YXX     -0.5705881400200E-01
 YXY      0.6396028362750E-01
 YXZ      0.1963286276983E-01
 YYY      0.8954258526140E-01
 YYZ     -0.6325030117113E-01
 YZZ      0.1050835184658E-01
 ZXX     -0.3449251362483E-01
 ZXY     -0.2676206943434E-03
 ZXZ      0.1470963644699E+00
 ZYY      0.5250531465574E-02
 ZYZ      0.6615455487989E-01
 ZZZ     -0.9919636609343E-01

 dipole-quadrupole (traceless):
 XXX      0.7531556109968E+02
 XXY     -0.9685588200953E+01
 XXZ     -0.4205737426073E+02
 XYY     -0.4785461927273E+02
 XYZ      0.1817081905493E+01
 XZZ     -0.2746094182695E+02
 YXX     -0.2542547809596E+02
 YXY      0.3882235803565E+02
 YXZ      0.5064535048962E+01
 YYY      0.2684453804204E+02
 YYZ     -0.3304039970728E+02
 YZZ     -0.1419059946080E+01
 ZXX      0.1417015340346E+02
 ZXY      0.1679772949416E+01
 ZXZ      0.5940675511654E+02
 ZYY      0.2403957136444E+02
 ZYZ      0.2081031423121E+02
 ZZZ     -0.3820972476791E+02

 roa end


 Electric Dipole Response Matrix (nonzero elements):

              1        2        3      
    1   41.0205  -5.2037  -3.0734
    2   -5.2037  43.9465   3.1740
    3   -3.0734   3.1740  41.5160
 
 Imaginary part:

              1        2        3      
    1    0.1113  -0.0299  -0.0114
    2   -0.0299   0.1287   0.0183
    3   -0.0114   0.0183   0.1230

 ------------------------------------------
 average:        42.16101 + I       0.12102


 DFT Linear Response polarizability / au 
 Frequency  =       0.0931960 / au
 Wavelength =     488.8981609 / nm
              X              Y              Z
 -----------------------------------------------
 X      41.0205197     -5.2036846     -3.0734069
 Y      -5.2036847     43.9465129      3.1740134
 Z      -3.0734069      3.1740134     41.5159838
 -----------------------------------------------
 Eigenvalues =      36.9758024     50.1281930     39.3790210
 Isotropic   =      42.1610054
 Anisotropic =       9.9046376
 -----------------------------------------------
 *************************

 DFT Linear Response IMAG polarizability / au 
 Frequency  =       0.0931960 / au
 Wavelength =     488.8981609 / nm
              X              Y              Z
 -----------------------------------------------
 X       0.1112963     -0.0298794     -0.0113726
 Y      -0.0298794      0.1287233      0.0182990
 Z      -0.0113726      0.0182990      0.1230345
 -----------------------------------------------
 Eigenvalues =       0.0887541      0.1627473      0.1115526
 Isotropic   =       0.1210180
 Anisotropic =       0.0535900
 -----------------------------------------------
 *************************

 Magnetic Dipole Response Matrix (nonzero elements):
 Optical rotation tensor Beta
 (Buckingham-Dunn version including dipole-quadrupole terms)

              1        2        3      
    1    2.6658  -0.3905   0.4398
    2   -0.3905  -1.5995  -1.7095
    3    0.4398  -1.7095  -1.0401
 
 Imaginary part:

              1        2        3      
    1    0.0660  -0.1402  -0.0296
    2    0.0812  -0.0518   0.2516
    3    0.1460  -0.4309  -0.0069

 ------------------------------------------
 average:         0.00872 + I       0.00244

 Principal components and PAS (Real part)
                 -3.05203
                  2.81001
                  0.26819
 ------------------------
 average:         0.00872

              1        2        3      
    1    0.0023   0.9712  -0.2382
    2    0.7623  -0.1558  -0.6282
    3    0.6472   0.1801   0.7407

 Chiral response tensor (Real part):

              1        2        3      
    1   -1.3198   0.1952  -0.2199
    2    0.1952   0.8128   0.8547
    3   -0.2199   0.8547   0.5331
 
 Principal components and PAS (Real part)
                  1.53910
                 -1.39192
                 -0.12101
 ------------------------
 average:         0.00872

              1        2        3      
    1    0.0023   0.9712  -0.2382
    2    0.7623  -0.1558  -0.6282
    3    0.6472   0.1801   0.7407
 Exiting AOResponse driver routine

 Task  times  cpu:      619.8s     wall:      637.5s
 
 
                                NWChem Input Module
                                -------------------
 
 
 Summary of allocated global arrays
-----------------------------------
  No active global arrays



                         GA Statistics for process    0
                         ------------------------------

       create   destroy   get      put      acc     scatter   gather  read&inc
calls: 3294     3294     7.94e+06 3.14e+06 7.63e+05 2694        0     1228     
number of processes/call 1.01e+00 1.03e+00 1.44e+00 0.00e+00 0.00e+00
bytes total:             1.86e+09 1.26e+08 1.83e+09 1.84e+02 0.00e+00 9.82e+03
bytes remote:            8.11e+08 3.29e+07 1.07e+09 0.00e+00 0.00e+00 0.00e+00
Max memory consumed for GA by this process: 11242192 bytes
 
MA_summarize_allocated_blocks: starting scan ...
MA_summarize_allocated_blocks: scan completed: 0 heap blocks, 0 stack blocks
MA usage statistics:

	allocation statistics:
					      heap	     stack
					      ----	     -----
	current number of blocks	         0	         0
	maximum number of blocks	        24	        52
	current total bytes		         0	         0
	maximum total bytes		   7519856	  49646504
	maximum total K-bytes		      7520	     49647
	maximum total M-bytes		         8	        50
 
 
                                     CITATION
                                     --------
                Please cite the following reference when publishing
                           results obtained with NWChem:
 
                 M. Valiev, E.J. Bylaska, N. Govind, K. Kowalski,
              T.P. Straatsma, H.J.J. van Dam, D. Wang, J. Nieplocha,
                        E. Apra, T.L. Windus, W.A. de Jong
                 "NWChem: a comprehensive and scalable open-source
                  solution for large scale molecular simulations"
                      Comput. Phys. Commun. 181, 1477 (2010)
                           doi:10.1016/j.cpc.2010.04.018
 
                                      AUTHORS
                                      -------
          E. Apra, E. J. Bylaska, W. A. de Jong, N. Govind, K. Kowalski,
       T. P. Straatsma, M. Valiev, H. J. J. van Dam, D. Wang, T. L. Windus,
        J. Hammond, J. Autschbach, K. Bhaskaran-Nair, J. Brabec, K. Lopata,
    S. A. Fischer, S. Krishnamoorthy, M. Jacquelin, W. Ma, M. Klemm, O. Villa,
      Y. Chen, V. Anisimov, F. Aquino, S. Hirata, M. T. Hackler, V. Konjkov,
            D. Mejia-Rodriguez, T. Risthaus, M. Malagoli, A. Marenich,
   A. Otero-de-la-Roza, J. Mullin, P. Nichols, R. Peverati, J. Pittner, Y. Zhao,
        P.-D. Fan, A. Fonari, M. J. Williamson, R. J. Harrison, J. R. Rehr,
      M. Dupuis, D. Silverstein, D. M. A. Smith, J. Nieplocha, V. Tipparaju,
    M. Krishnan, B. E. Van Kuiken, A. Vazquez-Mayagoitia, L. Jensen, M. Swart,
      Q. Wu, T. Van Voorhis, A. A. Auer, M. Nooijen, L. D. Crosby, E. Brown,
      G. Cisneros, G. I. Fann, H. Fruchtl, J. Garza, K. Hirao, R. A. Kendall,
      J. A. Nichols, K. Tsemekhman, K. Wolinski, J. Anchell, D. E. Bernholdt,
      P. Borowski, T. Clark, D. Clerc, H. Dachsel, M. J. O. Deegan, K. Dyall,
    D. Elwood, E. Glendening, M. Gutowski, A. C. Hess, J. Jaffe, B. G. Johnson,
     J. Ju, R. Kobayashi, R. Kutteh, Z. Lin, R. Littlefield, X. Long, B. Meng,
      T. Nakajima, S. Niu, L. Pollack, M. Rosing, K. Glaesemann, G. Sandrone,
      M. Stave, H. Taylor, G. Thomas, J. H. van Lenthe, A. T. Wong, Z. Zhang.

 Total times  cpu:      693.2s     wall:      713.0s
