 argument  1 = methyloxirane_blyp-def2-tzvp_488.9_06.inp
 


============================== echo of input deck ==============================
echo
start methyloxirane_blyp-def2-tzvp_488.9_06.inp
title "methyloxirane roa calculations at 488.9 nm, input generated in va  with delta_type=2"
charge 0



geometry units angstrom nocenter noautoz noautosym nucleus point;symmetry c1
 O -0.881185 -0.183411  0.206136
 C  0.572949 -0.155449  0.123706
 C -0.183036  1.090388  0.342445
 C  1.186707 -0.518736 -1.214452
 H  1.056600 -0.613631  0.993386
 H -0.245629  1.548958  1.332520
 H -0.306471  1.776268 -0.500485
 H  2.245201 -0.222794 -1.250750
 H  1.138605 -1.606672 -1.362173
 H  0.655735 -0.035806 -2.044153
end

basis spherical
* library def2-TZVP
end

 set prop:newaoresp 1
 set aor:roadata T
 set cphf:maxsub 100
 set cphf:acc 1.0d-10
 set cphf:maxiter 100

property
    response 1   0.093196
    bdtensor
    convergence 1e-7
    damping 0.0037
    giao
end

dft
 direct
 mult 1
 xc becke88 lyp
 iterations 250
 tolerances tight
 grid xfine
 convergence nolevelshifting
 convergence energy 1e-8
 convergence gradient 1e-7


end

task dft gradient
task dft property
================================================================================


                                         
                                         
 
 
              Northwest Computational Chemistry Package (NWChem) 6.8
              ------------------------------------------------------
 
 
                    Environmental Molecular Sciences Laboratory
                       Pacific Northwest National Laboratory
                                Richland, WA 99352
 
                              Copyright (c) 1994-2017
                       Pacific Northwest National Laboratory
                            Battelle Memorial Institute
 
             NWChem is an open-source computational chemistry package
                        distributed under the terms of the
                      Educational Community License (ECL) 2.0
             A copy of the license is included with this distribution
                              in the LICENSE.TXT file
 
                                  ACKNOWLEDGMENT
                                  --------------

            This software and its documentation were developed at the
            EMSL at Pacific Northwest National Laboratory, a multiprogram
            national laboratory, operated for the U.S. Department of Energy
            by Battelle under Contract Number DE-AC05-76RL01830. Support
            for this work was provided by the Department of Energy Office
            of Biological and Environmental Research, Office of Basic
            Energy Sciences, and the Office of Advanced Scientific Computing.


           Job information
           ---------------

    hostname        = cpn-f15-35.cbls.ccr.buffalo.edu
    program         = /util/academic/nwchem/nwchem-6.8/bin/LINUX64/nwchem
    date            = Fri Mar  1 09:54:11 2019

    compiled        = Tue_Nov_06_14:59:08_2018
    source          = /util/academic/nwchem/nwchem-6.8
    nwchem branch   = 6.8
    nwchem revision = v6.8-47-gdf6c956
    ga revision     = ga-5.6.3
    use scalapack   = F
    input           = methyloxirane_blyp-def2-tzvp_488.9_06.inp
    prefix          = methyloxirane_blyp-def2-tzvp_488.9_06.inp.
    data base       = ./methyloxirane_blyp-def2-tzvp_488.9_06.inp.db
    status          = startup
    nproc           =        7
    time left       =     -1s



           Memory information
           ------------------

    heap     =   13107200 doubles =    100.0 Mbytes
    stack    =   13107197 doubles =    100.0 Mbytes
    global   =   26214400 doubles =    200.0 Mbytes (distinct from heap & stack)
    total    =   52428797 doubles =    400.0 Mbytes
    verify   = yes
    hardfail = no 


           Directory information
           ---------------------
 
  0 permanent = .
  0 scratch   = .
 
 
 
 
                                NWChem Input Module
                                -------------------
 
 
                    methyloxirane roa calculations at 488.9 nm, input generated in va  with delta_type=2
                    ------------------------------------------

 Scaling coordinates for geometry "geometry" by  1.889725989
 (inverse scale =  0.529177249)

 
 
                             Geometry "geometry" -> ""
                             -------------------------
 
 Output coordinates in angstroms (scale by  1.889725989 to convert to a.u.)
 
  No.       Tag          Charge          X              Y              Z
 ---- ---------------- ---------- -------------- -------------- --------------
    1 O                    8.0000    -0.88118500    -0.18341100     0.20613600
    2 C                    6.0000     0.57294900    -0.15544900     0.12370600
    3 C                    6.0000    -0.18303600     1.09038800     0.34244500
    4 C                    6.0000     1.18670700    -0.51873600    -1.21445200
    5 H                    1.0000     1.05660000    -0.61363100     0.99338600
    6 H                    1.0000    -0.24562900     1.54895800     1.33252000
    7 H                    1.0000    -0.30647100     1.77626800    -0.50048500
    8 H                    1.0000     2.24520100    -0.22279400    -1.25075000
    9 H                    1.0000     1.13860500    -1.60667200    -1.36217300
   10 H                    1.0000     0.65573500    -0.03580600    -2.04415300
 
      Atomic Mass 
      ----------- 
 
      O                 15.994910
      C                 12.000000
      H                  1.007825
 

 Effective nuclear repulsion energy (a.u.)     123.3637031133

            Nuclear Dipole moment (a.u.) 
            ----------------------------
        X                 Y               Z
 ---------------- ---------------- ----------------
    13.1416855376     3.5456040553   -10.7192306750
 
 
            XYZ format geometry
            -------------------
    10
 geometry
 O                    -0.88118500    -0.18341100     0.20613600
 C                     0.57294900    -0.15544900     0.12370600
 C                    -0.18303600     1.09038800     0.34244500
 C                     1.18670700    -0.51873600    -1.21445200
 H                     1.05660000    -0.61363100     0.99338600
 H                    -0.24562900     1.54895800     1.33252000
 H                    -0.30647100     1.77626800    -0.50048500
 H                     2.24520100    -0.22279400    -1.25075000
 H                     1.13860500    -1.60667200    -1.36217300
 H                     0.65573500    -0.03580600    -2.04415300
 
 ==============================================================================
                                internuclear distances
 ------------------------------------------------------------------------------
       center one      |      center two      | atomic units |  angstroms
 ------------------------------------------------------------------------------
    2 C                |   1 O                |     2.75283  |     1.45674
    3 C                |   1 O                |     2.75703  |     1.45896
    3 C                |   2 C                |     2.78468  |     1.47359
    4 C                |   2 C                |     2.86550  |     1.51636
    5 H                |   2 C                |     2.07026  |     1.09553
    6 H                |   3 C                |     2.06530  |     1.09291
    7 H                |   3 C                |     2.06681  |     1.09371
    8 H                |   4 C                |     2.07810  |     1.09969
    9 H                |   4 C                |     2.07676  |     1.09897
   10 H                |   4 C                |     2.07316  |     1.09707
 ------------------------------------------------------------------------------
                         number of included internuclear distances:         10
 ==============================================================================



 ==============================================================================
                                 internuclear angles
 ------------------------------------------------------------------------------
        center 1       |       center 2       |       center 3       |  degrees
 ------------------------------------------------------------------------------
    2 C                |   1 O                |   3 C                |    60.72
    2 C                |   1 O                |   3 C                |    60.72
    1 O                |   2 C                |   4 C                |   116.70
    1 O                |   2 C                |   5 H                |   112.81
    3 C                |   2 C                |   4 C                |   122.77
    3 C                |   2 C                |   5 H                |   117.53
    4 C                |   2 C                |   5 H                |   114.94
    3 C                |   1 O                |   2 C                |    60.72
    1 O                |   3 C                |   6 H                |   115.06
    1 O                |   3 C                |   7 H                |   114.93
    2 C                |   3 C                |   6 H                |   121.24
    2 C                |   3 C                |   7 H                |   118.27
    6 H                |   3 C                |   7 H                |   115.38
    2 C                |   4 C                |   8 H                |   110.75
    2 C                |   4 C                |   9 H                |   109.76
    2 C                |   4 C                |  10 H                |   111.47
    8 H                |   4 C                |   9 H                |   107.70
    8 H                |   4 C                |  10 H                |   108.81
    9 H                |   4 C                |  10 H                |   108.24
 ------------------------------------------------------------------------------
                            number of included internuclear angles:         19
 ==============================================================================



  warning:::::::::::::: from_environment
  NWCHEM_BASIS_LIBRARY set to: <
 /util/academic/nwchem/nwchem-6.8/src/basis/libraries>
  but file does not exist !
  using .nwchemrc or compiled library


 Summary of "ao basis" -> "" (spherical)
 ------------------------------------------------------------------------------
       Tag                 Description            Shells   Functions and Types
 ---------------- ------------------------------  ------  ---------------------
 *                         def2-TZVP                  on all atoms 


 
                                 NWChem DFT Module
                                 -----------------
 
 
                    methyloxirane roa calculations at 488.9 nm, input generated in va  with delta_type=2
 
 
                      Basis "ao basis" -> "ao basis" (spherical)
                      -----
  O (Oxygen)
  ----------
            Exponent  Coefficients 
       -------------- ---------------------------------------------------------
  1 S  2.70323826E+04  0.000217
  1 S  4.05238714E+03  0.001684
  1 S  9.22327227E+02  0.008740
  1 S  2.61240710E+02  0.035240
  1 S  8.53546414E+01  0.111535
  1 S  3.10350352E+01  0.255890
 
  2 S  1.22608607E+01  0.397687
  2 S  4.99870760E+00  0.246278
 
  3 S  1.17031082E+00  1.000000
 
  4 S  4.64747410E-01  1.000000
 
  5 S  1.85045364E-01  1.000000
 
  6 P  6.32749548E+01  0.006069
  6 P  1.46270494E+01  0.041913
  6 P  4.45012235E+00  0.161538
  6 P  1.52757996E+00  0.357070
 
  7 P  5.29351179E-01  1.000000
 
  8 P  1.74784213E-01  1.000000
 
  9 D  2.31400000E+00  1.000000
 
 10 D  6.45000000E-01  1.000000
 
 11 F  1.42800000E+00  1.000000
 
  C (Carbon)
  ----------
            Exponent  Coefficients 
       -------------- ---------------------------------------------------------
  1 S  1.35753497E+04  0.000222
  1 S  2.03523337E+03  0.001723
  1 S  4.63225624E+02  0.008926
  1 S  1.31200196E+02  0.035728
  1 S  4.28530159E+01  0.110763
  1 S  1.55841858E+01  0.242956
 
  2 S  6.20671385E+00  0.414403
  2 S  2.57648965E+00  0.237450
 
  3 S  5.76963394E-01  1.000000
 
  4 S  2.29728314E-01  1.000000
 
  5 S  9.51644400E-02  1.000000
 
  6 P  3.46972322E+01  0.005333
  6 P  7.95826228E+00  0.035864
  6 P  2.37808269E+00  0.142159
  6 P  8.14332082E-01  0.342705
 
  7 P  2.88875473E-01  1.000000
 
  8 P  1.00568237E-01  1.000000
 
  9 D  1.09700000E+00  1.000000
 
 10 D  3.18000000E-01  1.000000
 
 11 F  7.61000000E-01  1.000000
 
  H (Hydrogen)
  ------------
            Exponent  Coefficients 
       -------------- ---------------------------------------------------------
  1 S  3.40613410E+01  0.006025
  1 S  5.12357460E+00  0.045021
  1 S  1.16466260E+00  0.201897
 
  2 S  3.27230410E-01  1.000000
 
  3 S  1.03072410E-01  1.000000
 
  4 P  8.00000000E-01  1.000000
 


 Summary of "ao basis" -> "ao basis" (spherical)
 ------------------------------------------------------------------------------
       Tag                 Description            Shells   Functions and Types
 ---------------- ------------------------------  ------  ---------------------
 O                         def2-TZVP                11       31   5s3p2d1f
 C                         def2-TZVP                11       31   5s3p2d1f
 H                         def2-TZVP                 4        6   3s1p




 Summary of "ao basis" -> "ao basis" (spherical)
 ------------------------------------------------------------------------------
       Tag                 Description            Shells   Functions and Types
 ---------------- ------------------------------  ------  ---------------------
 O                         def2-TZVP                11       31   5s3p2d1f
 C                         def2-TZVP                11       31   5s3p2d1f
 H                         def2-TZVP                 4        6   3s1p


  Caching 1-el integrals 
  itol2e modified to match energy
  convergence criterion.
  tol_rho modified to match energy
  convergence criterion.
 
            General Information
            -------------------
          SCF calculation type: DFT
          Wavefunction type:  closed shell.
          No. of atoms     :    10
          No. of electrons :    32
           Alpha electrons :    16
            Beta electrons :    16
          Charge           :     0
          Spin multiplicity:     1
          Use of symmetry is: off; symmetry adaption is: off
          Maximum number of iterations: 250
          This is a Direct SCF calculation.
          AO basis - number of functions:   160
                     number of shells:    68
          Convergence on energy requested:  1.00D-08
          Convergence on density requested:  1.00D-05
          Convergence on gradient requested:  1.00D-07
 
              XC Information
              --------------
                    Becke 1988 Exchange Functional  1.000          
              Lee-Yang-Parr Correlation Functional  1.000          
 
             Grid Information
             ----------------
          Grid used for XC integration:  xfine     
          Radial quadrature: Mura-Knowles        
          Angular quadrature: Lebedev. 
          Tag              B.-S. Rad. Rad. Pts. Rad. Cut. Ang. Pts.
          ---              ---------- --------- --------- ---------
          O                   0.60      100          11.0      1454
          C                   0.70      100          11.0      1454
          H                   0.35      100          12.0      1202
          Grid pruning is: on 
          Number of quadrature shells:  1000
          Spatial weights used:  Erf1
 
          Convergence Information
          -----------------------
          Convergence aids based upon iterative change in 
          total energy or number of iterations. 
          Levelshifting, if invoked, occurs when the 
          HOMO/LUMO gap drops below (HL_TOL):  1.00D-02
          DIIS, if invoked, will attempt to extrapolate 
          using up to (NFOCK): 10 stored Fock matrices.

                    Damping( 0%)  Levelshifting(0.0)       DIIS
                  --------------- ------------------- ---------------
          dE  on:    start             N/A                start   
          dE off:    2 iters           N/A              250 iters 

 
      Screening Tolerance Information
      -------------------------------
          Density screening/tol_rho:  1.00D-11
          AO Gaussian exp screening on grid/accAOfunc:  18
          CD Gaussian exp screening on grid/accCDfunc:  20
          XC Gaussian exp screening on grid/accXCfunc:  20
          Schwarz screening/accCoul:  1.00D-09

 
      Superposition of Atomic Density Guess
      -------------------------------------
 
 Sum of atomic energies:        -190.79714706
 
      Non-variational initial energy
      ------------------------------

 Total energy =    -193.143850
 1-e energy   =    -501.700040
 2-e energy   =     185.192487
 HOMO         =      -0.354046
 LUMO         =       0.088858
 
   Time after variat. SCF:      0.5
   Time prior to 1st pass:      0.5

 Grid_pts file          = ./methyloxirane_blyp-def2-tzvp_488.9_06.inp.gridpts.0
 Record size in doubles =  12289        No. of grid_pts per rec  =   3070
 Max. records in memory =     76        Max. recs in file   =   1219782


           Memory utilization after 1st SCF pass: 
           Heap Space remaining (MW):       12.17            12167544
          Stack Space remaining (MW):       13.11            13106116

   convergence    iter        energy       DeltaE   RMS-Dens  Diis-err    time
 ---------------- ----- ----------------- --------- --------- ---------  ------
 d= 0,ls=0.0,diis     1   -193.0194784381 -3.16D+02  9.24D-03  1.06D+00     4.9
 d= 0,ls=0.0,diis     2   -192.8495717838  1.70D-01  7.64D-03  2.64D+00     9.1
 d= 0,ls=0.0,diis     3   -193.0770970995 -2.28D-01  1.82D-03  3.86D-01    13.3
 d= 0,ls=0.0,diis     4   -193.1071382268 -3.00D-02  6.96D-04  1.87D-02    17.5
 d= 0,ls=0.0,diis     5   -193.1088554938 -1.72D-03  2.96D-04  2.77D-03    21.7
 d= 0,ls=0.0,diis     6   -193.1092006422 -3.45D-04  3.07D-05  3.81D-05    25.8
 d= 0,ls=0.0,diis     7   -193.1092050550 -4.41D-06  8.87D-06  5.28D-06    30.1
 d= 0,ls=0.0,diis     8   -193.1092056330 -5.78D-07  2.47D-06  3.62D-07    34.2
 d= 0,ls=0.0,diis     9   -193.1092056720 -3.90D-08  7.62D-07  2.58D-08    38.4
 d= 0,ls=0.0,diis    10   -193.1092056749 -2.86D-09  2.36D-07  3.68D-09    42.6


         Total DFT energy =     -193.109205674876
      One electron energy =     -505.353956092056
           Coulomb energy =      215.897715272186
    Exchange-Corr. energy =      -27.016667968266
 Nuclear repulsion energy =      123.363703113261

 Numeric. integr. density =       31.999999979073

     Total iterative time =     42.1s


 
                       DFT Final Molecular Orbital Analysis
                       ------------------------------------
 
 Vector    1  Occ=2.000000D+00  E=-1.877961D+01
              MO Center= -8.8D-01, -1.8D-01,  2.1D-01, r^2= 1.5D-02
   Bfn.  Coefficient  Atom+Function         Bfn.  Coefficient  Atom+Function  
  ----- ------------  ---------------      ----- ------------  ---------------
     2      0.638481   1 O  s                 1      0.435422   1 O  s         
     3      0.039846   1 O  s                 4     -0.033102   1 O  s         
 
 Vector    2  Occ=2.000000D+00  E=-9.963539D+00
              MO Center=  5.7D-01, -1.6D-01,  1.2D-01, r^2= 2.8D-02
   Bfn.  Coefficient  Atom+Function         Bfn.  Coefficient  Atom+Function  
  ----- ------------  ---------------      ----- ------------  ---------------
    33      0.606917   2 C  s                32      0.467263   2 C  s         
    34      0.042518   2 C  s                36      0.037498   2 C  s         
    35     -0.027427   2 C  s         
 
 Vector    3  Occ=2.000000D+00  E=-9.955897D+00
              MO Center= -1.8D-01,  1.1D+00,  3.4D-01, r^2= 2.8D-02
   Bfn.  Coefficient  Atom+Function         Bfn.  Coefficient  Atom+Function  
  ----- ------------  ---------------      ----- ------------  ---------------
    64      0.607033   3 C  s                63      0.467223   3 C  s         
    65      0.039753   3 C  s         
 
 Vector    4  Occ=2.000000D+00  E=-9.908261D+00
              MO Center=  1.2D+00, -5.2D-01, -1.2D+00, r^2= 2.8D-02
   Bfn.  Coefficient  Atom+Function         Bfn.  Coefficient  Atom+Function  
  ----- ------------  ---------------      ----- ------------  ---------------
    95      0.606967   4 C  s                94      0.467217   4 C  s         
    96      0.040625   4 C  s                98      0.035582   4 C  s         
 
 Vector    5  Occ=2.000000D+00  E=-9.603638D-01
              MO Center= -4.7D-01,  5.3D-02,  2.1D-01, r^2= 6.5D-01
   Bfn.  Coefficient  Atom+Function         Bfn.  Coefficient  Atom+Function  
  ----- ------------  ---------------      ----- ------------  ---------------
     4      0.375333   1 O  s                 3      0.277528   1 O  s         
     2     -0.192793   1 O  s                34      0.140459   2 C  s         
    65      0.138452   3 C  s                 5      0.123095   1 O  s         
    35      0.105400   2 C  s                66      0.094149   3 C  s         
     6      0.093001   1 O  px               69     -0.090630   3 C  py        
 
 Vector    6  Occ=2.000000D+00  E=-6.690383D-01
              MO Center=  9.4D-01, -3.9D-01, -7.7D-01, r^2= 1.6D+00
   Bfn.  Coefficient  Atom+Function         Bfn.  Coefficient  Atom+Function  
  ----- ------------  ---------------      ----- ------------  ---------------
    97      0.285058   4 C  s                96      0.276159   4 C  s         
    35      0.184814   2 C  s                34      0.173715   2 C  s         
    95     -0.173845   4 C  s                 4     -0.148798   1 O  s         
    33     -0.108516   2 C  s                 3     -0.104175   1 O  s         
    94     -0.083294   4 C  s                 5     -0.073791   1 O  s         
 
 Vector    7  Occ=2.000000D+00  E=-5.905813D-01
              MO Center= -1.2D-01,  7.2D-01,  2.1D-01, r^2= 2.0D+00
   Bfn.  Coefficient  Atom+Function         Bfn.  Coefficient  Atom+Function  
  ----- ------------  ---------------      ----- ------------  ---------------
    66      0.325963   3 C  s                65      0.278882   3 C  s         
     4     -0.237394   1 O  s                64     -0.172233   3 C  s         
     3     -0.168162   1 O  s                 5     -0.147009   1 O  s         
     2      0.110970   1 O  s                38      0.105614   2 C  py        
   132      0.101941   6 H  s                97     -0.100364   4 C  s         
 
 Vector    8  Occ=2.000000D+00  E=-5.295161D-01
              MO Center=  4.2D-01,  1.1D-02, -9.6D-02, r^2= 2.7D+00
   Bfn.  Coefficient  Atom+Function         Bfn.  Coefficient  Atom+Function  
  ----- ------------  ---------------      ----- ------------  ---------------
    35      0.304851   2 C  s                34      0.225702   2 C  s         
    97     -0.154707   4 C  s                66     -0.153050   3 C  s         
    33     -0.138877   2 C  s               126      0.133354   5 H  s         
    96     -0.128651   4 C  s                 6      0.106326   1 O  px        
   125      0.106564   5 H  s                65     -0.098475   3 C  s         
 
 Vector    9  Occ=2.000000D+00  E=-4.477175D-01
              MO Center=  1.1D-01,  3.0D-01,  2.6D-01, r^2= 2.5D+00
   Bfn.  Coefficient  Atom+Function         Bfn.  Coefficient  Atom+Function  
  ----- ------------  ---------------      ----- ------------  ---------------
    70      0.210932   3 C  pz               39      0.153979   2 C  pz        
   132      0.147289   6 H  s                73      0.132397   3 C  pz        
     8      0.125100   1 O  pz              126      0.116375   5 H  s         
     6     -0.109426   1 O  px               38     -0.109204   2 C  py        
   131      0.109369   6 H  s                37      0.105024   2 C  px        
 
 Vector   10  Occ=2.000000D+00  E=-4.130828D-01
              MO Center=  5.2D-02,  2.9D-01, -2.4D-01, r^2= 2.6D+00
   Bfn.  Coefficient  Atom+Function         Bfn.  Coefficient  Atom+Function  
  ----- ------------  ---------------      ----- ------------  ---------------
    69      0.215442   3 C  py              101      0.154181   4 C  pz        
   138      0.154139   7 H  s                 6     -0.141491   1 O  px        
    38     -0.139131   2 C  py               37      0.127307   2 C  px        
     7     -0.122788   1 O  py               72      0.122032   3 C  py        
    70     -0.118329   3 C  pz                9     -0.112982   1 O  px        
 
 Vector   11  Occ=2.000000D+00  E=-3.762447D-01
              MO Center=  9.2D-01, -3.2D-01, -7.6D-01, r^2= 2.7D+00
   Bfn.  Coefficient  Atom+Function         Bfn.  Coefficient  Atom+Function  
  ----- ------------  ---------------      ----- ------------  ---------------
    99      0.213785   4 C  px              144      0.187528   8 H  s         
   100      0.163616   4 C  py              150     -0.139971   9 H  s         
   102      0.137177   4 C  px              143      0.131276   8 H  s         
    37      0.126657   2 C  px                6     -0.118841   1 O  px        
     7      0.108694   1 O  py              103      0.108234   4 C  py        
 
 Vector   12  Occ=2.000000D+00  E=-3.553398D-01
              MO Center=  6.2D-01, -3.6D-01, -9.1D-01, r^2= 2.8D+00
   Bfn.  Coefficient  Atom+Function         Bfn.  Coefficient  Atom+Function  
  ----- ------------  ---------------      ----- ------------  ---------------
   100      0.256695   4 C  py              150     -0.187356   9 H  s         
   156      0.179934  10 H  s               103      0.166471   4 C  py        
     7     -0.165311   1 O  py               10     -0.132366   1 O  py        
   149     -0.130497   9 H  s               155      0.127210  10 H  s         
    70      0.111785   3 C  pz              106      0.103924   4 C  py        
 
 Vector   13  Occ=2.000000D+00  E=-3.289211D-01
              MO Center=  3.3D-01,  2.6D-01, -2.2D-01, r^2= 2.7D+00
   Bfn.  Coefficient  Atom+Function         Bfn.  Coefficient  Atom+Function  
  ----- ------------  ---------------      ----- ------------  ---------------
    39      0.219073   2 C  pz              101     -0.195104   4 C  pz        
    70     -0.172678   3 C  pz                7     -0.164467   1 O  py        
   138      0.163991   7 H  s                42      0.149032   2 C  pz        
   104     -0.136868   4 C  pz               10     -0.132810   1 O  py        
    99      0.126399   4 C  px              137      0.110441   7 H  s         
 
 Vector   14  Occ=2.000000D+00  E=-3.205697D-01
              MO Center=  3.6D-01, -5.0D-02, -2.0D-01, r^2= 3.0D+00
   Bfn.  Coefficient  Atom+Function         Bfn.  Coefficient  Atom+Function  
  ----- ------------  ---------------      ----- ------------  ---------------
     7      0.211407   1 O  py               10      0.173248   1 O  py        
   126      0.160370   5 H  s                99     -0.155205   4 C  px        
     6     -0.153190   1 O  px              156      0.146594  10 H  s         
    37      0.136665   2 C  px              144     -0.131345   8 H  s         
    39      0.127232   2 C  pz                9     -0.125408   1 O  px        
 
 Vector   15  Occ=2.000000D+00  E=-2.642722D-01
              MO Center=  1.8D-02,  1.5D-01,  4.1D-02, r^2= 2.3D+00
   Bfn.  Coefficient  Atom+Function         Bfn.  Coefficient  Atom+Function  
  ----- ------------  ---------------      ----- ------------  ---------------
    68      0.265533   3 C  px               38      0.256173   2 C  py        
     6     -0.235487   1 O  px               41      0.198927   2 C  py        
    71      0.197596   3 C  px                9     -0.184079   1 O  px        
    12     -0.155702   1 O  px              150      0.114674   9 H  s         
   100     -0.111198   4 C  py                7     -0.108263   1 O  py        
 
 Vector   16  Occ=2.000000D+00  E=-2.195023D-01
              MO Center= -5.8D-01, -3.5D-02,  1.9D-01, r^2= 1.6D+00
   Bfn.  Coefficient  Atom+Function         Bfn.  Coefficient  Atom+Function  
  ----- ------------  ---------------      ----- ------------  ---------------
     8      0.450253   1 O  pz               11      0.358375   1 O  pz        
    14      0.297429   1 O  pz              133     -0.126048   6 H  s         
   139      0.118162   7 H  s               138      0.104390   7 H  s         
   145     -0.102259   8 H  s               132     -0.099889   6 H  s         
   126     -0.095805   5 H  s                98      0.088742   4 C  s         
 
 Vector   17  Occ=0.000000D+00  E= 2.560688D-02
              MO Center=  1.2D+00, -9.5D-02, -6.3D-01, r^2= 7.2D+00
   Bfn.  Coefficient  Atom+Function         Bfn.  Coefficient  Atom+Function  
  ----- ------------  ---------------      ----- ------------  ---------------
    98      4.456363   4 C  s               145     -1.522352   8 H  s         
   151     -1.509972   9 H  s               157     -1.341443  10 H  s         
   127     -1.224976   5 H  s                45      1.109546   2 C  pz        
   139     -0.891997   7 H  s                67      0.726938   3 C  s         
   133     -0.598048   6 H  s                75      0.316112   3 C  py        
 
 Vector   18  Occ=0.000000D+00  E= 4.091072D-02
              MO Center= -1.3D-01,  6.6D-01,  1.2D-01, r^2= 4.4D+00
   Bfn.  Coefficient  Atom+Function         Bfn.  Coefficient  Atom+Function  
  ----- ------------  ---------------      ----- ------------  ---------------
    98      2.051345   4 C  s                36     -1.786617   2 C  s         
     5      1.273008   1 O  s                74      0.910085   3 C  px        
   151     -0.785462   9 H  s                45      0.517826   2 C  pz        
    13      0.442366   1 O  py               44     -0.402159   2 C  py        
   157     -0.389612  10 H  s                75      0.374678   3 C  py        
 
 Vector   19  Occ=0.000000D+00  E= 5.012547D-02
              MO Center=  3.8D-01,  4.6D-01, -1.4D-01, r^2= 6.5D+00
   Bfn.  Coefficient  Atom+Function         Bfn.  Coefficient  Atom+Function  
  ----- ------------  ---------------      ----- ------------  ---------------
    36      2.827200   2 C  s                67     -2.712176   3 C  s         
   127     -1.813840   5 H  s               139      1.604212   7 H  s         
   157      0.886544  10 H  s                98     -0.590543   4 C  s         
    45      0.537410   2 C  pz               76      0.509120   3 C  pz        
    74     -0.469879   3 C  px               44      0.441348   2 C  py        
 
 Vector   20  Occ=0.000000D+00  E= 5.127575D-02
              MO Center=  5.8D-01,  5.8D-01,  4.4D-01, r^2= 7.7D+00
   Bfn.  Coefficient  Atom+Function         Bfn.  Coefficient  Atom+Function  
  ----- ------------  ---------------      ----- ------------  ---------------
    98      3.435216   4 C  s                67     -2.666810   3 C  s         
   133      1.881094   6 H  s               145     -1.183016   8 H  s         
   127      1.134302   5 H  s               157     -1.079215  10 H  s         
    44      1.054115   2 C  py               36     -0.941275   2 C  s         
   151     -0.717779   9 H  s                43     -0.631545   2 C  px        
 
 Vector   21  Occ=0.000000D+00  E= 6.468339D-02
              MO Center=  2.8D-01,  1.1D-01, -1.5D-01, r^2= 4.7D+00
   Bfn.  Coefficient  Atom+Function         Bfn.  Coefficient  Atom+Function  
  ----- ------------  ---------------      ----- ------------  ---------------
   139      1.228472   7 H  s                98      1.177927   4 C  s         
    67     -0.937597   3 C  s               151     -0.934703   9 H  s         
     5     -0.870780   1 O  s                43     -0.817511   2 C  px        
   133      0.565911   6 H  s                75     -0.556788   3 C  py        
    12     -0.485344   1 O  px              127     -0.442096   5 H  s         
 
 Vector   22  Occ=0.000000D+00  E= 8.562730D-02
              MO Center=  1.2D+00,  2.5D-01, -4.3D-01, r^2= 7.3D+00
   Bfn.  Coefficient  Atom+Function         Bfn.  Coefficient  Atom+Function  
  ----- ------------  ---------------      ----- ------------  ---------------
    36      2.981785   2 C  s               145      1.948759   8 H  s         
    67     -1.391086   3 C  s               127     -1.335357   5 H  s         
   133      1.287076   6 H  s               157     -1.233870  10 H  s         
   107     -1.151489   4 C  pz               98     -1.103126   4 C  s         
   105     -0.932354   4 C  px               76     -0.774382   3 C  pz        
 
 Vector   23  Occ=0.000000D+00  E= 9.133334D-02
              MO Center=  1.2D+00, -6.8D-01, -5.8D-01, r^2= 6.4D+00
   Bfn.  Coefficient  Atom+Function         Bfn.  Coefficient  Atom+Function  
  ----- ------------  ---------------      ----- ------------  ---------------
    36      2.477719   2 C  s               151      2.085859   9 H  s         
   145     -1.630960   8 H  s                98     -1.341255   4 C  s         
   105      1.165075   4 C  px              106      1.129189   4 C  py        
   133      0.877054   6 H  s                67     -0.849812   3 C  s         
   127     -0.775766   5 H  s               107     -0.682225   4 C  pz        
 
 Vector   24  Occ=0.000000D+00  E= 1.017424D-01
              MO Center=  4.7D-01,  3.7D-01, -1.2D+00, r^2= 6.6D+00
   Bfn.  Coefficient  Atom+Function         Bfn.  Coefficient  Atom+Function  
  ----- ------------  ---------------      ----- ------------  ---------------
   157      2.120419  10 H  s               133      1.497142   6 H  s         
   106     -1.459294   4 C  py               98     -1.408600   4 C  s         
   139     -1.411702   7 H  s               151     -1.398849   9 H  s         
    36      1.077439   2 C  s                76     -1.076555   3 C  pz        
   105      1.066516   4 C  px               45     -0.611066   2 C  pz        
 
 Vector   25  Occ=0.000000D+00  E= 1.391261D-01
              MO Center=  7.6D-01,  2.4D-01, -4.1D-01, r^2= 7.9D+00
   Bfn.  Coefficient  Atom+Function         Bfn.  Coefficient  Atom+Function  
  ----- ------------  ---------------      ----- ------------  ---------------
    36      4.754654   2 C  s                98     -3.458487   4 C  s         
    45     -3.374289   2 C  pz               67     -2.924195   3 C  s         
   127      2.730006   5 H  s                76      2.225827   3 C  pz        
   105      2.053597   4 C  px              133     -1.850352   6 H  s         
   139      1.749357   7 H  s               107     -1.537876   4 C  pz        
 
 Vector   26  Occ=0.000000D+00  E= 1.700559D-01
              MO Center=  4.5D-01,  5.5D-01, -1.6D-01, r^2= 7.3D+00
   Bfn.  Coefficient  Atom+Function         Bfn.  Coefficient  Atom+Function  
  ----- ------------  ---------------      ----- ------------  ---------------
    75      2.315734   3 C  py              107      1.661634   4 C  pz        
    67     -1.569133   3 C  s                36      1.464829   2 C  s         
   139     -1.178200   7 H  s               157      1.088812  10 H  s         
    74     -0.964212   3 C  px               44      0.757789   2 C  py        
    43     -0.628694   2 C  px              106     -0.580017   4 C  py        
 
 Vector   27  Occ=0.000000D+00  E= 1.964566D-01
              MO Center=  8.0D-01, -1.0D-01, -9.6D-01, r^2= 5.1D+00
   Bfn.  Coefficient  Atom+Function         Bfn.  Coefficient  Atom+Function  
  ----- ------------  ---------------      ----- ------------  ---------------
    67      2.904808   3 C  s                44     -2.594920   2 C  py        
   106      1.912038   4 C  py               36     -1.734736   2 C  s         
    43      1.017522   2 C  px               74      0.746667   3 C  px        
   105      0.741652   4 C  px               45     -0.727188   2 C  pz        
   157     -0.652440  10 H  s               150      0.623754   9 H  s         
 
 Vector   28  Occ=0.000000D+00  E= 2.025110D-01
              MO Center=  9.8D-01, -4.1D-01, -6.7D-01, r^2= 6.7D+00
   Bfn.  Coefficient  Atom+Function         Bfn.  Coefficient  Atom+Function  
  ----- ------------  ---------------      ----- ------------  ---------------
    36      2.630850   2 C  s                75      1.702563   3 C  py        
   105     -1.376370   4 C  px              133     -1.258448   6 H  s         
   106      0.919427   4 C  py              107     -0.921337   4 C  pz        
   139     -0.793981   7 H  s                45      0.768634   2 C  pz        
   156     -0.712521  10 H  s                76      0.661759   3 C  pz        
 
 Vector   29  Occ=0.000000D+00  E= 2.364993D-01
              MO Center= -3.3D-01,  4.5D-01, -5.1D-02, r^2= 5.4D+00
   Bfn.  Coefficient  Atom+Function         Bfn.  Coefficient  Atom+Function  
  ----- ------------  ---------------      ----- ------------  ---------------
    67      4.652008   3 C  s                36     -3.053572   2 C  s         
   139     -1.493188   7 H  s                66     -1.417203   3 C  s         
   133     -1.234485   6 H  s                98      1.186060   4 C  s         
   107      0.904571   4 C  pz                5     -0.807531   1 O  s         
    74     -0.806467   3 C  px              106      0.787869   4 C  py        
 
 Vector   30  Occ=0.000000D+00  E= 2.473802D-01
              MO Center=  5.7D-01, -2.3D-02, -1.2D-01, r^2= 5.8D+00
   Bfn.  Coefficient  Atom+Function         Bfn.  Coefficient  Atom+Function  
  ----- ------------  ---------------      ----- ------------  ---------------
    67      5.907927   3 C  s                43      4.143148   2 C  px        
    75     -2.920782   3 C  py               44     -2.627811   2 C  py        
    36     -2.051632   2 C  s               107     -2.045456   4 C  pz        
   157     -1.835509  10 H  s                45     -1.469156   2 C  pz        
    98     -1.322939   4 C  s               105     -1.227631   4 C  px        
 
 Vector   31  Occ=0.000000D+00  E= 2.674194D-01
              MO Center=  3.4D-01, -8.2D-02,  2.4D-01, r^2= 5.6D+00
   Bfn.  Coefficient  Atom+Function         Bfn.  Coefficient  Atom+Function  
  ----- ------------  ---------------      ----- ------------  ---------------
    36      4.019277   2 C  s                67      2.322194   3 C  s         
     5     -2.061602   1 O  s               105      1.554134   4 C  px        
    43     -1.454148   2 C  px               66     -1.186119   3 C  s         
    98     -1.168351   4 C  s               139     -0.942442   7 H  s         
   133     -0.858374   6 H  s               127     -0.840796   5 H  s         
 
 Vector   32  Occ=0.000000D+00  E= 2.759926D-01
              MO Center=  3.6D-01,  2.0D-01,  2.9D-01, r^2= 4.2D+00
   Bfn.  Coefficient  Atom+Function         Bfn.  Coefficient  Atom+Function  
  ----- ------------  ---------------      ----- ------------  ---------------
    36      2.958323   2 C  s                 5     -1.882381   1 O  s         
    67     -1.538851   3 C  s                43     -1.331745   2 C  px        
    98     -0.875059   4 C  s                74     -0.687340   3 C  px        
    45     -0.664215   2 C  pz              145      0.572570   8 H  s         
     4      0.502586   1 O  s               107     -0.423338   4 C  pz        
 
 Vector   33  Occ=0.000000D+00  E= 2.999885D-01
              MO Center=  4.6D-01,  3.7D-01, -3.8D-01, r^2= 5.1D+00
   Bfn.  Coefficient  Atom+Function         Bfn.  Coefficient  Atom+Function  
  ----- ------------  ---------------      ----- ------------  ---------------
    43      1.974806   2 C  px               98     -1.934265   4 C  s         
   106      1.700130   4 C  py              151      1.661454   9 H  s         
    76      1.301715   3 C  pz               44     -1.244602   2 C  py        
   107     -1.165258   4 C  pz               66      1.081352   3 C  s         
    36     -1.041799   2 C  s               139      0.979049   7 H  s         
 
 Vector   34  Occ=0.000000D+00  E= 3.360538D-01
              MO Center=  1.3D-01,  4.1D-01, -4.3D-01, r^2= 5.8D+00
   Bfn.  Coefficient  Atom+Function         Bfn.  Coefficient  Atom+Function  
  ----- ------------  ---------------      ----- ------------  ---------------
    67      4.721289   3 C  s                76     -3.952767   3 C  pz        
   139     -3.126091   7 H  s                36     -2.386510   2 C  s         
   133      2.000496   6 H  s               107     -1.784569   4 C  pz        
   157     -1.714481  10 H  s                98      1.648154   4 C  s         
    43      1.416772   2 C  px               44     -1.186696   2 C  py        
 
 Vector   35  Occ=0.000000D+00  E= 3.634318D-01
              MO Center=  8.5D-01, -6.3D-02, -4.2D-01, r^2= 6.9D+00
   Bfn.  Coefficient  Atom+Function         Bfn.  Coefficient  Atom+Function  
  ----- ------------  ---------------      ----- ------------  ---------------
    98      8.178287   4 C  s               145     -3.418306   8 H  s         
    76      3.292172   3 C  pz               97     -3.304951   4 C  s         
   133     -2.310522   6 H  s               151     -2.080331   9 H  s         
    36      1.761154   2 C  s                67     -1.756894   3 C  s         
   139      1.622432   7 H  s                44      1.566246   2 C  py        
 
 Vector   36  Occ=0.000000D+00  E= 3.730386D-01
              MO Center=  5.7D-01,  2.3D-01, -4.0D-03, r^2= 6.3D+00
   Bfn.  Coefficient  Atom+Function         Bfn.  Coefficient  Atom+Function  
  ----- ------------  ---------------      ----- ------------  ---------------
    36     12.679512   2 C  s                98     -8.360838   4 C  s         
    67     -8.173131   3 C  s               127     -3.357299   5 H  s         
    97      2.313507   4 C  s               157      2.261433  10 H  s         
    35     -1.938626   2 C  s                44      1.776104   2 C  py        
    74     -1.543469   3 C  px              151      1.519637   9 H  s         
 
 Vector   37  Occ=0.000000D+00  E= 3.862176D-01
              MO Center=  8.3D-01, -2.7D-01, -1.5D-01, r^2= 5.9D+00
   Bfn.  Coefficient  Atom+Function         Bfn.  Coefficient  Atom+Function  
  ----- ------------  ---------------      ----- ------------  ---------------
    36      6.389611   2 C  s               127     -3.697616   5 H  s         
    98      2.676777   4 C  s                67     -2.422727   3 C  s         
    35     -2.171328   2 C  s               151     -2.153502   9 H  s         
    45      2.109091   2 C  pz              145     -1.792430   8 H  s         
    76     -1.763019   3 C  pz              133      1.628118   6 H  s         
 
 Vector   38  Occ=0.000000D+00  E= 3.940334D-01
              MO Center=  9.2D-02,  1.4D-01, -1.2D-01, r^2= 6.6D+00
   Bfn.  Coefficient  Atom+Function         Bfn.  Coefficient  Atom+Function  
  ----- ------------  ---------------      ----- ------------  ---------------
    98     12.841257   4 C  s                45      6.071182   2 C  pz        
    67     -4.823784   3 C  s                76     -3.500516   3 C  pz        
    36     -2.830209   2 C  s               157     -2.722795  10 H  s         
   133      2.673141   6 H  s                44      1.778828   2 C  py        
    97     -1.747397   4 C  s               107      1.712793   4 C  pz        
 
 Vector   39  Occ=0.000000D+00  E= 4.018441D-01
              MO Center= -1.7D-01,  2.4D-01,  2.9D-01, r^2= 6.5D+00
   Bfn.  Coefficient  Atom+Function         Bfn.  Coefficient  Atom+Function  
  ----- ------------  ---------------      ----- ------------  ---------------
    67     13.047661   3 C  s                36    -11.728061   2 C  s         
    45      4.607816   2 C  pz               44     -4.433270   2 C  py        
    98      3.990892   4 C  s               127     -3.053919   5 H  s         
    43      2.851682   2 C  px               66     -2.682069   3 C  s         
   139     -2.313867   7 H  s               105     -2.105285   4 C  px        
 
 Vector   40  Occ=0.000000D+00  E= 4.149813D-01
              MO Center=  8.2D-01, -3.3D-01, -8.4D-01, r^2= 5.9D+00
   Bfn.  Coefficient  Atom+Function         Bfn.  Coefficient  Atom+Function  
  ----- ------------  ---------------      ----- ------------  ---------------
    98      6.932767   4 C  s                36     -3.370323   2 C  s         
    45      3.100194   2 C  pz              105     -2.618888   4 C  px        
   151     -2.302888   9 H  s               157     -2.113972  10 H  s         
   145      1.849648   8 H  s                97     -1.092921   4 C  s         
   127     -1.077555   5 H  s               144     -0.976973   8 H  s         
 
 Vector   41  Occ=0.000000D+00  E= 4.255675D-01
              MO Center=  4.9D-01,  1.8D-01, -1.7D-01, r^2= 6.9D+00
   Bfn.  Coefficient  Atom+Function         Bfn.  Coefficient  Atom+Function  
  ----- ------------  ---------------      ----- ------------  ---------------
    36      9.345571   2 C  s                67     -4.492157   3 C  s         
    98     -4.278887   4 C  s                75      2.593703   3 C  py        
    44      2.566943   2 C  py              151      2.472361   9 H  s         
    43     -1.703043   2 C  px               74     -1.457187   3 C  px        
    45     -1.399641   2 C  pz               35     -1.344520   2 C  s         
 
 Vector   42  Occ=0.000000D+00  E= 4.468463D-01
              MO Center=  9.0D-02, -9.8D-02, -2.0D-01, r^2= 6.1D+00
   Bfn.  Coefficient  Atom+Function         Bfn.  Coefficient  Atom+Function  
  ----- ------------  ---------------      ----- ------------  ---------------
    36      9.352858   2 C  s                98     -8.614447   4 C  s         
    45     -5.355067   2 C  pz               67     -3.018642   3 C  s         
   127      2.860575   5 H  s                76      2.621047   3 C  pz        
    44      2.363882   2 C  py              157      2.196922  10 H  s         
   133     -2.070055   6 H  s               106     -2.016586   4 C  py        
 
 Vector   43  Occ=0.000000D+00  E= 4.590506D-01
              MO Center=  6.7D-02,  8.1D-01, -5.1D-01, r^2= 5.1D+00
   Bfn.  Coefficient  Atom+Function         Bfn.  Coefficient  Atom+Function  
  ----- ------------  ---------------      ----- ------------  ---------------
   139      3.171371   7 H  s               157     -2.342315  10 H  s         
   107     -2.197330   4 C  pz               75     -2.067033   3 C  py        
    45     -1.637919   2 C  pz               43      1.527831   2 C  px        
    44     -1.482144   2 C  py              138     -1.450403   7 H  s         
    76      1.111778   3 C  pz               73     -0.772595   3 C  pz        
 
 Vector   44  Occ=0.000000D+00  E= 4.699119D-01
              MO Center=  4.6D-01,  1.6D-01, -1.6D-02, r^2= 5.7D+00
   Bfn.  Coefficient  Atom+Function         Bfn.  Coefficient  Atom+Function  
  ----- ------------  ---------------      ----- ------------  ---------------
    98      5.090727   4 C  s                36     -4.560877   2 C  s         
    45      2.274223   2 C  pz              145     -1.714903   8 H  s         
   107      1.674468   4 C  pz              133     -1.459748   6 H  s         
    67      1.294163   3 C  s                35      1.235122   2 C  s         
   132      1.124485   6 H  s               157      1.044785  10 H  s         
 
 Vector   45  Occ=0.000000D+00  E= 5.083646D-01
              MO Center=  9.1D-01, -3.8D-01, -9.4D-01, r^2= 4.8D+00
   Bfn.  Coefficient  Atom+Function         Bfn.  Coefficient  Atom+Function  
  ----- ------------  ---------------      ----- ------------  ---------------
    98     11.413561   4 C  s                36     -7.637575   2 C  s         
    45      4.613046   2 C  pz              107      3.065617   4 C  pz        
   106      1.327713   4 C  py              144     -1.334008   8 H  s         
   156     -1.235318  10 H  s               127     -1.213108   5 H  s         
   150     -1.090365   9 H  s                14     -1.047307   1 O  pz        
 
 Vector   46  Occ=0.000000D+00  E= 5.362300D-01
              MO Center=  9.4D-02, -4.2D-01, -5.0D-01, r^2= 4.4D+00
   Bfn.  Coefficient  Atom+Function         Bfn.  Coefficient  Atom+Function  
  ----- ------------  ---------------      ----- ------------  ---------------
    36      7.211037   2 C  s                98     -7.233335   4 C  s         
    45     -3.711304   2 C  pz               76      3.278805   3 C  pz        
   133     -1.765943   6 H  s               105      1.539965   4 C  px        
   107     -1.494221   4 C  pz              139      1.470667   7 H  s         
    67     -1.289284   3 C  s                 5     -1.144602   1 O  s         
 
 Vector   47  Occ=0.000000D+00  E= 6.562202D-01
              MO Center= -3.5D-01,  2.8D-02, -7.2D-03, r^2= 4.3D+00
   Bfn.  Coefficient  Atom+Function         Bfn.  Coefficient  Atom+Function  
  ----- ------------  ---------------      ----- ------------  ---------------
    36     11.248111   2 C  s                67     -8.727785   3 C  s         
    98     -3.828230   4 C  s                43     -2.586237   2 C  px        
    75      2.360235   3 C  py               13      2.121688   1 O  py        
    76      1.979354   3 C  pz              105      1.559292   4 C  px        
    44      1.488175   2 C  py              139      1.479522   7 H  s         
 
 Vector   48  Occ=0.000000D+00  E= 6.727890D-01
              MO Center= -3.4D-01,  3.6D-01,  1.3D-01, r^2= 4.0D+00
   Bfn.  Coefficient  Atom+Function         Bfn.  Coefficient  Atom+Function  
  ----- ------------  ---------------      ----- ------------  ---------------
    36      8.938438   2 C  s                67     -8.484429   3 C  s         
     5      2.845292   1 O  s                75      2.745127   3 C  py        
    98     -2.396294   4 C  s                13      2.237818   1 O  py        
    43     -1.430971   2 C  px               45     -1.290080   2 C  pz        
    44      1.092904   2 C  py                4     -1.078613   1 O  s         
 
 Vector   49  Occ=0.000000D+00  E= 7.098507D-01
              MO Center=  2.0D-01, -3.2D-01, -2.8D-01, r^2= 4.4D+00
   Bfn.  Coefficient  Atom+Function         Bfn.  Coefficient  Atom+Function  
  ----- ------------  ---------------      ----- ------------  ---------------
    67      8.957713   3 C  s                36     -6.669579   2 C  s         
    43      3.496066   2 C  px               44     -3.333212   2 C  py        
    98     -2.908817   4 C  s                75     -2.585402   3 C  py        
     5      2.300456   1 O  s                12      1.652028   1 O  px        
   106      1.600710   4 C  py               13     -1.210751   1 O  py        
 
 Vector   50  Occ=0.000000D+00  E= 7.605941D-01
              MO Center=  6.4D-01, -1.6D-02, -3.4D-01, r^2= 4.1D+00
   Bfn.  Coefficient  Atom+Function         Bfn.  Coefficient  Atom+Function  
  ----- ------------  ---------------      ----- ------------  ---------------
    45      2.452129   2 C  pz              127     -1.734616   5 H  s         
   105     -1.676488   4 C  px               43      1.565509   2 C  px        
     5     -1.373217   1 O  s               126     -1.354291   5 H  s         
   144      1.261696   8 H  s                36      1.163020   2 C  s         
    67      1.052395   3 C  s                76     -1.019725   3 C  pz        
 
 Vector   51  Occ=0.000000D+00  E= 7.917957D-01
              MO Center=  2.5D-01,  7.5D-02, -1.6D-01, r^2= 4.4D+00
   Bfn.  Coefficient  Atom+Function         Bfn.  Coefficient  Atom+Function  
  ----- ------------  ---------------      ----- ------------  ---------------
     5      4.165835   1 O  s                36     -3.255806   2 C  s         
    76     -2.618665   3 C  pz               45      1.717701   2 C  pz        
     4     -1.630654   1 O  s                12      1.375923   1 O  px        
   133      1.371896   6 H  s                43      1.327292   2 C  px        
    66     -1.051731   3 C  s                35     -1.032316   2 C  s         
 
 Vector   52  Occ=0.000000D+00  E= 8.314009D-01
              MO Center=  3.1D-01,  1.7D-01, -2.9D-03, r^2= 4.5D+00
   Bfn.  Coefficient  Atom+Function         Bfn.  Coefficient  Atom+Function  
  ----- ------------  ---------------      ----- ------------  ---------------
    36      6.826936   2 C  s                98     -4.201789   4 C  s         
     5     -4.047563   1 O  s                43     -2.618852   2 C  px        
   105      1.973665   4 C  px               45     -1.880637   2 C  pz        
    35     -1.848671   2 C  s                44      1.535692   2 C  py        
    66     -1.186201   3 C  s                97      1.023268   4 C  s         
 
 Vector   53  Occ=0.000000D+00  E= 8.531640D-01
              MO Center=  6.2D-01,  1.2D-01, -4.2D-01, r^2= 4.2D+00
   Bfn.  Coefficient  Atom+Function         Bfn.  Coefficient  Atom+Function  
  ----- ------------  ---------------      ----- ------------  ---------------
    36      4.778072   2 C  s                98     -4.628834   4 C  s         
    45     -4.442894   2 C  pz               76      1.943799   3 C  pz        
   127      1.756036   5 H  s               106     -1.605535   4 C  py        
    44      1.597372   2 C  py              105      1.309525   4 C  px        
   150     -1.221854   9 H  s                67     -1.153637   3 C  s         
 
 Vector   54  Occ=0.000000D+00  E= 8.737530D-01
              MO Center=  1.9D-01, -4.5D-02, -1.2D-01, r^2= 4.2D+00
   Bfn.  Coefficient  Atom+Function         Bfn.  Coefficient  Atom+Function  
  ----- ------------  ---------------      ----- ------------  ---------------
     5      4.572471   1 O  s                 4     -1.555060   1 O  s         
    36     -1.464819   2 C  s               138      1.457154   7 H  s         
    67     -1.401833   3 C  s                76      1.401301   3 C  pz        
    12      1.185040   1 O  px               66     -1.156204   3 C  s         
    98     -1.110838   4 C  s                44      0.879674   2 C  py        
 
 Vector   55  Occ=0.000000D+00  E= 9.190824D-01
              MO Center=  5.0D-01,  3.2D-01, -4.6D-01, r^2= 4.5D+00
   Bfn.  Coefficient  Atom+Function         Bfn.  Coefficient  Atom+Function  
  ----- ------------  ---------------      ----- ------------  ---------------
    35      4.881088   2 C  s                36     -1.778929   2 C  s         
    67      1.458045   3 C  s               132     -1.326516   6 H  s         
    72      1.274516   3 C  py               66     -1.247887   3 C  s         
   156     -1.156251  10 H  s                41      1.144704   2 C  py        
    84      1.147552   3 C  d  0            116     -1.061301   4 C  d  1      
 
 Vector   56  Occ=0.000000D+00  E= 9.599640D-01
              MO Center=  4.6D-01,  2.9D-01, -5.4D-01, r^2= 4.7D+00
   Bfn.  Coefficient  Atom+Function         Bfn.  Coefficient  Atom+Function  
  ----- ------------  ---------------      ----- ------------  ---------------
    35      4.201670   2 C  s                67      2.593462   3 C  s         
   138     -2.358781   7 H  s                76     -1.843496   3 C  pz        
    42     -1.716230   2 C  pz               83     -1.657717   3 C  d -1      
    36     -1.557104   2 C  s               115     -1.450407   4 C  d  0      
    98     -1.412467   4 C  s               132      1.356137   6 H  s         
 
 Vector   57  Occ=0.000000D+00  E= 9.910618D-01
              MO Center=  3.3D-01,  5.2D-01, -1.2D-01, r^2= 4.0D+00
   Bfn.  Coefficient  Atom+Function         Bfn.  Coefficient  Atom+Function  
  ----- ------------  ---------------      ----- ------------  ---------------
    36      7.170566   2 C  s                98     -4.662831   4 C  s         
    67     -3.782975   3 C  s                45     -3.654001   2 C  pz        
    43     -2.280510   2 C  px               44      2.094233   2 C  py        
   127      1.554049   5 H  s                66     -1.520972   3 C  s         
    75      1.425698   3 C  py              126      1.303969   5 H  s         
 
 Vector   58  Occ=0.000000D+00  E= 1.011942D+00
              MO Center=  4.0D-01,  5.2D-01, -6.8D-02, r^2= 4.3D+00
   Bfn.  Coefficient  Atom+Function         Bfn.  Coefficient  Atom+Function  
  ----- ------------  ---------------      ----- ------------  ---------------
    36      5.679314   2 C  s                67     -4.616452   3 C  s         
    45     -2.245553   2 C  pz               44      1.936176   2 C  py        
    98     -1.808216   4 C  s               156     -1.510350  10 H  s         
    43     -1.371692   2 C  px              144      1.373263   8 H  s         
    76      1.356861   3 C  pz               74     -1.345733   3 C  px        
 
 Vector   59  Occ=0.000000D+00  E= 1.040509D+00
              MO Center=  7.1D-01, -1.7D-01, -4.7D-01, r^2= 4.2D+00
   Bfn.  Coefficient  Atom+Function         Bfn.  Coefficient  Atom+Function  
  ----- ------------  ---------------      ----- ------------  ---------------
    35      2.702577   2 C  s                36      2.507011   2 C  s         
    66     -2.324855   3 C  s               150      1.956340   9 H  s         
   144     -1.923860   8 H  s                 5     -1.834550   1 O  s         
   117      1.735503   4 C  d  2             41      1.506991   2 C  py        
    44      1.359548   2 C  py               67     -1.243203   3 C  s         
 
 Vector   60  Occ=0.000000D+00  E= 1.076859D+00
              MO Center=  6.7D-01,  2.1D-02, -6.2D-02, r^2= 4.1D+00
   Bfn.  Coefficient  Atom+Function         Bfn.  Coefficient  Atom+Function  
  ----- ------------  ---------------      ----- ------------  ---------------
    66      4.144273   3 C  s                98     -4.041709   4 C  s         
    45     -3.710591   2 C  pz               97     -3.649058   4 C  s         
    36      3.381405   2 C  s                41     -2.629900   2 C  py        
   104     -2.494815   4 C  pz               72     -2.417760   3 C  py        
    42     -2.325793   2 C  pz               53      2.283595   2 C  d  0      
 
 Vector   61  Occ=0.000000D+00  E= 1.107081D+00
              MO Center=  3.7D-01,  5.1D-02,  4.4D-02, r^2= 3.8D+00
   Bfn.  Coefficient  Atom+Function         Bfn.  Coefficient  Atom+Function  
  ----- ------------  ---------------      ----- ------------  ---------------
    36      7.238612   2 C  s                67     -5.119470   3 C  s         
    98     -2.722806   4 C  s                66      2.022485   3 C  s         
   126     -1.974189   5 H  s                45     -1.762530   2 C  pz        
   132      1.639657   6 H  s                72     -1.534589   3 C  py        
    41     -1.416216   2 C  py               53      1.336333   2 C  d  0      
 
 Vector   62  Occ=0.000000D+00  E= 1.148546D+00
              MO Center=  6.2D-01,  3.6D-02, -9.0D-03, r^2= 3.6D+00
   Bfn.  Coefficient  Atom+Function         Bfn.  Coefficient  Atom+Function  
  ----- ------------  ---------------      ----- ------------  ---------------
    67      5.265924   3 C  s                36     -4.060277   2 C  s         
    44     -2.421026   2 C  py              126      1.892429   5 H  s         
    97     -1.713215   4 C  s                43      1.576416   2 C  px        
    54      1.577519   2 C  d  1            132     -1.471689   6 H  s         
    55      1.461548   2 C  d  2             75     -1.439319   3 C  py        
 
 Vector   63  Occ=0.000000D+00  E= 1.212752D+00
              MO Center=  5.6D-01,  2.0D-01, -1.5D-01, r^2= 3.8D+00
   Bfn.  Coefficient  Atom+Function         Bfn.  Coefficient  Atom+Function  
  ----- ------------  ---------------      ----- ------------  ---------------
    36      6.850185   2 C  s                66     -5.073831   3 C  s         
    97     -3.335375   4 C  s                67     -3.294570   3 C  s         
    35      3.186229   2 C  s                72      1.986436   3 C  py        
    51     -1.776902   2 C  d -2             52      1.680082   2 C  d -1      
   138      1.623574   7 H  s                41      1.563698   2 C  py        
 
 Vector   64  Occ=0.000000D+00  E= 1.348103D+00
              MO Center=  3.5D-01,  5.4D-01,  2.4D-01, r^2= 3.6D+00
   Bfn.  Coefficient  Atom+Function         Bfn.  Coefficient  Atom+Function  
  ----- ------------  ---------------      ----- ------------  ---------------
    66      4.635289   3 C  s                35      3.919810   2 C  s         
    67     -3.036135   3 C  s                36     -2.765721   2 C  s         
    65     -2.387694   3 C  s               132     -2.083284   6 H  s         
    34     -1.459115   2 C  s               133      1.450425   6 H  s         
    72      1.378987   3 C  py              139      1.037174   7 H  s         
 
 Vector   65  Occ=0.000000D+00  E= 1.415415D+00
              MO Center=  1.6D-01,  5.2D-01, -5.2D-02, r^2= 3.4D+00
   Bfn.  Coefficient  Atom+Function         Bfn.  Coefficient  Atom+Function  
  ----- ------------  ---------------      ----- ------------  ---------------
    36      4.224777   2 C  s                66      3.844642   3 C  s         
    67     -3.825474   3 C  s                35     -3.621588   2 C  s         
    73     -2.328330   3 C  pz              138     -2.248225   7 H  s         
   139      2.207562   7 H  s               126      1.807910   5 H  s         
    76      1.682828   3 C  pz               65     -1.572835   3 C  s         
 
 Vector   66  Occ=0.000000D+00  E= 1.432267D+00
              MO Center=  1.0D+00, -4.6D-01, -1.1D+00, r^2= 3.6D+00
   Bfn.  Coefficient  Atom+Function         Bfn.  Coefficient  Atom+Function  
  ----- ------------  ---------------      ----- ------------  ---------------
    98      9.840363   4 C  s                97     -7.465719   4 C  s         
    96      3.020729   4 C  s               145     -2.390501   8 H  s         
    36     -2.321450   2 C  s               151     -2.275624   9 H  s         
   157     -2.047332  10 H  s               144      1.725660   8 H  s         
   150      1.617511   9 H  s               104      1.464568   4 C  pz        
 
 Vector   67  Occ=0.000000D+00  E= 1.442439D+00
              MO Center=  3.6D-01,  4.4D-03, -9.0D-02, r^2= 4.2D+00
   Bfn.  Coefficient  Atom+Function         Bfn.  Coefficient  Atom+Function  
  ----- ------------  ---------------      ----- ------------  ---------------
    66      4.296453   3 C  s                98      3.323840   4 C  s         
    35     -3.245562   2 C  s                67     -2.997454   3 C  s         
    45      2.037150   2 C  pz              133      2.035162   6 H  s         
    36      1.923040   2 C  s                76     -1.866640   3 C  pz        
   127     -1.708668   5 H  s                65     -1.557985   3 C  s         
 
 Vector   68  Occ=0.000000D+00  E= 1.448019D+00
              MO Center=  3.3D-01, -2.3D-02, -1.8D-01, r^2= 3.1D+00
   Bfn.  Coefficient  Atom+Function         Bfn.  Coefficient  Atom+Function  
  ----- ------------  ---------------      ----- ------------  ---------------
    98      5.240611   4 C  s                97     -2.990249   4 C  s         
    36     -2.940242   2 C  s                 5      2.065049   1 O  s         
    45      1.900121   2 C  pz               96      1.250118   4 C  s         
    35     -1.229037   2 C  s               127     -1.193314   5 H  s         
    44     -1.086332   2 C  py               40      0.966707   2 C  px        
 
 Vector   69  Occ=0.000000D+00  E= 1.473235D+00
              MO Center=  9.0D-01, -2.8D-01, -9.6D-01, r^2= 3.6D+00
   Bfn.  Coefficient  Atom+Function         Bfn.  Coefficient  Atom+Function  
  ----- ------------  ---------------      ----- ------------  ---------------
    66      2.310725   3 C  s                67     -1.328367   3 C  s         
     5     -1.130233   1 O  s               133      1.028090   6 H  s         
    65     -0.998238   3 C  s                71     -0.971347   3 C  px        
    97      0.922262   4 C  s               132     -0.878282   6 H  s         
    36      0.859162   2 C  s                98     -0.838140   4 C  s         
 
 Vector   70  Occ=0.000000D+00  E= 1.477609D+00
              MO Center=  1.0D+00, -3.6D-01, -1.0D+00, r^2= 3.3D+00
   Bfn.  Coefficient  Atom+Function         Bfn.  Coefficient  Atom+Function  
  ----- ------------  ---------------      ----- ------------  ---------------
    36      3.048115   2 C  s               156     -2.799776  10 H  s         
   157      2.153138  10 H  s               102     -2.015194   4 C  px        
   104     -1.808065   4 C  pz              126      1.805320   5 H  s         
   103      1.777246   4 C  py               35     -1.479444   2 C  s         
   127     -1.412778   5 H  s                66     -1.297494   3 C  s         
 
 Vector   71  Occ=0.000000D+00  E= 1.511451D+00
              MO Center=  3.2D-01,  1.6D-01, -3.0D-01, r^2= 4.0D+00
   Bfn.  Coefficient  Atom+Function         Bfn.  Coefficient  Atom+Function  
  ----- ------------  ---------------      ----- ------------  ---------------
    98      2.639658   4 C  s               144      1.814371   8 H  s         
   102     -1.554013   4 C  px              145     -1.408495   8 H  s         
   103     -1.293741   4 C  py               45      1.265346   2 C  pz        
    97     -1.211054   4 C  s               150     -0.915050   9 H  s         
    36     -0.810756   2 C  s                66      0.737300   3 C  s         
 
 Vector   72  Occ=0.000000D+00  E= 1.542045D+00
              MO Center=  3.6D-01,  4.6D-01, -2.1D-01, r^2= 4.6D+00
   Bfn.  Coefficient  Atom+Function         Bfn.  Coefficient  Atom+Function  
  ----- ------------  ---------------      ----- ------------  ---------------
    36      4.151820   2 C  s                35     -3.544585   2 C  s         
    98     -3.450037   4 C  s                97      3.032972   4 C  s         
    67     -2.425719   3 C  s                73      2.156756   3 C  pz        
   132     -1.766201   6 H  s               133      1.443139   6 H  s         
   102     -1.406970   4 C  px              138      1.374047   7 H  s         
 
 Vector   73  Occ=0.000000D+00  E= 1.576935D+00
              MO Center=  5.1D-01, -5.0D-02, -1.2D-01, r^2= 3.2D+00
   Bfn.  Coefficient  Atom+Function         Bfn.  Coefficient  Atom+Function  
  ----- ------------  ---------------      ----- ------------  ---------------
    35      3.691680   2 C  s                36     -2.954923   2 C  s         
    40     -2.180710   2 C  px               97     -1.988363   4 C  s         
    67      1.890467   3 C  s               126      1.752998   5 H  s         
    72      1.676716   3 C  py               34     -1.521605   2 C  s         
    98      1.458028   4 C  s                42     -1.398113   2 C  pz        
 
 Vector   74  Occ=0.000000D+00  E= 1.595890D+00
              MO Center=  3.5D-01,  3.7D-01, -1.7D-01, r^2= 3.4D+00
   Bfn.  Coefficient  Atom+Function         Bfn.  Coefficient  Atom+Function  
  ----- ------------  ---------------      ----- ------------  ---------------
    66     -5.466594   3 C  s                36     -5.387041   2 C  s         
    35      5.272357   2 C  s                67      4.016328   3 C  s         
    41      3.752482   2 C  py               71     -2.561374   3 C  px        
    72      2.462245   3 C  py               40     -1.984953   2 C  px        
    98      1.828283   4 C  s                82      1.677101   3 C  d -2      
 
 Vector   75  Occ=0.000000D+00  E= 1.640091D+00
              MO Center=  4.5D-01,  2.0D-01, -2.0D-02, r^2= 3.7D+00
   Bfn.  Coefficient  Atom+Function         Bfn.  Coefficient  Atom+Function  
  ----- ------------  ---------------      ----- ------------  ---------------
    66      2.664261   3 C  s                35      2.227617   2 C  s         
    98      2.067245   4 C  s                 5     -1.762799   1 O  s         
    97     -1.642120   4 C  s                67     -1.272005   3 C  s         
   144      1.104698   8 H  s               104     -1.068536   4 C  pz        
   103     -1.059564   4 C  py              150     -1.041830   9 H  s         
 
 Vector   76  Occ=0.000000D+00  E= 1.695297D+00
              MO Center=  6.0D-01,  3.8D-03, -4.1D-01, r^2= 3.5D+00
   Bfn.  Coefficient  Atom+Function         Bfn.  Coefficient  Atom+Function  
  ----- ------------  ---------------      ----- ------------  ---------------
    97     -4.907404   4 C  s                35      4.763865   2 C  s         
   104     -2.475604   4 C  pz               42     -2.395832   2 C  pz        
    66     -1.944935   3 C  s               102      1.796323   4 C  px        
    40      1.558074   2 C  px               96      1.389443   4 C  s         
    34     -1.368062   2 C  s                67      1.112937   3 C  s         
 
 Vector   77  Occ=0.000000D+00  E= 1.703458D+00
              MO Center= -8.4D-02,  4.2D-01, -7.0D-02, r^2= 3.7D+00
   Bfn.  Coefficient  Atom+Function         Bfn.  Coefficient  Atom+Function  
  ----- ------------  ---------------      ----- ------------  ---------------
     5      3.891610   1 O  s                72      3.404435   3 C  py        
    97      2.838479   4 C  s                36     -2.512880   2 C  s         
   138     -2.097382   7 H  s                42      2.021022   2 C  pz        
    35     -1.811063   2 C  s               104      1.780797   4 C  pz        
    66     -1.600829   3 C  s                12      1.492226   1 O  px        
 
 Vector   78  Occ=0.000000D+00  E= 1.789296D+00
              MO Center=  3.7D-01,  2.3D-01,  2.2D-02, r^2= 3.5D+00
   Bfn.  Coefficient  Atom+Function         Bfn.  Coefficient  Atom+Function  
  ----- ------------  ---------------      ----- ------------  ---------------
    35      3.332856   2 C  s                97     -2.767450   4 C  s         
    36      1.803502   2 C  s                45     -1.331450   2 C  pz        
   104     -1.175194   4 C  pz                5     -1.135485   1 O  s         
    42     -1.020116   2 C  pz               67     -1.011198   3 C  s         
    72      0.997855   3 C  py              102      0.959668   4 C  px        
 
 Vector   79  Occ=0.000000D+00  E= 1.816097D+00
              MO Center= -6.1D-01,  1.8D-01,  1.9D-01, r^2= 2.6D+00
   Bfn.  Coefficient  Atom+Function         Bfn.  Coefficient  Atom+Function  
  ----- ------------  ---------------      ----- ------------  ---------------
    35      4.025323   2 C  s                 5     -3.279500   1 O  s         
    40     -2.405181   2 C  px               41      2.117356   2 C  py        
    72      1.940618   3 C  py               66     -1.788701   3 C  s         
    71     -1.713310   3 C  px               12     -1.370539   1 O  px        
   132     -1.034008   6 H  s                67      1.005813   3 C  s         
 
 Vector   80  Occ=0.000000D+00  E= 1.841575D+00
              MO Center=  4.9D-02,  2.9D-01, -6.5D-02, r^2= 3.6D+00
   Bfn.  Coefficient  Atom+Function         Bfn.  Coefficient  Atom+Function  
  ----- ------------  ---------------      ----- ------------  ---------------
    35      1.198461   2 C  s                36     -1.126196   2 C  s         
    66      0.985358   3 C  s               156     -0.943651  10 H  s         
    41     -0.889501   2 C  py              104     -0.756170   4 C  pz        
   157      0.660399  10 H  s               126     -0.631232   5 H  s         
    67      0.607879   3 C  s               150      0.576240   9 H  s         
 
 Vector   81  Occ=0.000000D+00  E= 1.865987D+00
              MO Center=  5.5D-01,  1.5D-01, -4.7D-01, r^2= 4.0D+00
   Bfn.  Coefficient  Atom+Function         Bfn.  Coefficient  Atom+Function  
  ----- ------------  ---------------      ----- ------------  ---------------
    35      6.561284   2 C  s                66     -4.143940   3 C  s         
    72      3.426168   3 C  py               97     -3.309666   4 C  s         
    36      2.085338   2 C  s               104     -1.902890   4 C  pz        
    67     -1.632053   3 C  s                34     -1.617074   2 C  s         
    41      1.399260   2 C  py               45     -1.364703   2 C  pz        
 
 Vector   82  Occ=0.000000D+00  E= 1.914990D+00
              MO Center=  3.2D-01, -1.4D-01, -3.2D-01, r^2= 3.3D+00
   Bfn.  Coefficient  Atom+Function         Bfn.  Coefficient  Atom+Function  
  ----- ------------  ---------------      ----- ------------  ---------------
    36      1.527657   2 C  s                35      1.398951   2 C  s         
    98     -1.351449   4 C  s                45     -1.334910   2 C  pz        
    97     -1.256987   4 C  s                66     -1.202846   3 C  s         
   103     -1.207579   4 C  py               41      0.956219   2 C  py        
    72      0.771840   3 C  py              150     -0.762647   9 H  s         
 
 Vector   83  Occ=0.000000D+00  E= 1.990157D+00
              MO Center=  7.9D-01, -1.9D-01, -2.9D-01, r^2= 3.3D+00
   Bfn.  Coefficient  Atom+Function         Bfn.  Coefficient  Atom+Function  
  ----- ------------  ---------------      ----- ------------  ---------------
    35      3.166513   2 C  s                98      3.135840   4 C  s         
    66     -2.685135   3 C  s                40     -2.319737   2 C  px        
    72      1.927759   3 C  py               41      1.717380   2 C  py        
    43     -1.526342   2 C  px               71     -1.414229   3 C  px        
    67     -1.369445   3 C  s               126      1.208823   5 H  s         
 
 Vector   84  Occ=0.000000D+00  E= 1.994984D+00
              MO Center=  6.9D-01, -1.5D-01, -8.2D-01, r^2= 3.5D+00
   Bfn.  Coefficient  Atom+Function         Bfn.  Coefficient  Atom+Function  
  ----- ------------  ---------------      ----- ------------  ---------------
    36      4.562759   2 C  s                98     -4.219132   4 C  s         
    35     -2.407714   2 C  s                45     -2.061714   2 C  pz        
    67     -1.506063   3 C  s               156      1.164724  10 H  s         
   107     -1.113726   4 C  pz              104      1.020310   4 C  pz        
    34      0.920078   2 C  s                66      0.862980   3 C  s         
 
 Vector   85  Occ=0.000000D+00  E= 2.090358D+00
              MO Center= -6.2D-02,  1.8D-01,  1.3D-02, r^2= 3.5D+00
   Bfn.  Coefficient  Atom+Function         Bfn.  Coefficient  Atom+Function  
  ----- ------------  ---------------      ----- ------------  ---------------
    36      2.800914   2 C  s                98     -2.238012   4 C  s         
    67     -0.998877   3 C  s               138     -0.759348   7 H  s         
   156      0.742946  10 H  s                40     -0.679637   2 C  px        
    35     -0.607006   2 C  s                14     -0.584212   1 O  pz        
    45     -0.581797   2 C  pz              144      0.548089   8 H  s         
 
 Vector   86  Occ=0.000000D+00  E= 2.096610D+00
              MO Center= -3.7D-01,  5.8D-02,  5.4D-02, r^2= 3.0D+00
   Bfn.  Coefficient  Atom+Function         Bfn.  Coefficient  Atom+Function  
  ----- ------------  ---------------      ----- ------------  ---------------
    67     -5.376415   3 C  s                36      5.295271   2 C  s         
    66      3.438479   3 C  s                35     -3.310260   2 C  s         
    41     -3.114554   2 C  py               71      2.784191   3 C  px        
    13      1.813990   1 O  py               82     -1.483173   3 C  d -2      
    55      1.363862   2 C  d  2             75      1.298918   3 C  py        
 
 Vector   87  Occ=0.000000D+00  E= 2.163469D+00
              MO Center=  5.1D-01,  4.8D-03, -4.8D-01, r^2= 3.2D+00
   Bfn.  Coefficient  Atom+Function         Bfn.  Coefficient  Atom+Function  
  ----- ------------  ---------------      ----- ------------  ---------------
    98      2.442689   4 C  s                67     -1.728607   3 C  s         
    35     -1.283038   2 C  s                73      1.045373   3 C  pz        
   156     -0.930864  10 H  s                45      0.886922   2 C  pz        
    40      0.858146   2 C  px               43     -0.773122   2 C  px        
   144     -0.766673   8 H  s                44      0.761432   2 C  py        
 
 Vector   88  Occ=0.000000D+00  E= 2.199390D+00
              MO Center=  4.1D-01,  1.8D-01, -2.9D-01, r^2= 3.7D+00
   Bfn.  Coefficient  Atom+Function         Bfn.  Coefficient  Atom+Function  
  ----- ------------  ---------------      ----- ------------  ---------------
    98      2.093958   4 C  s                36     -1.886432   2 C  s         
    45      1.047971   2 C  pz               76     -0.999297   3 C  pz        
    67      0.876985   3 C  s               132      0.811460   6 H  s         
    97     -0.648653   4 C  s               103     -0.647869   4 C  py        
   117     -0.630976   4 C  d  2             42     -0.621999   2 C  pz        
 
 Vector   89  Occ=0.000000D+00  E= 2.226507D+00
              MO Center=  6.6D-01,  4.5D-02, -7.7D-02, r^2= 3.5D+00
   Bfn.  Coefficient  Atom+Function         Bfn.  Coefficient  Atom+Function  
  ----- ------------  ---------------      ----- ------------  ---------------
    36      2.944460   2 C  s                67     -1.710850   3 C  s         
     5     -1.148694   1 O  s                42     -1.140605   2 C  pz        
    72     -1.047570   3 C  py               66      0.986585   3 C  s         
    35     -0.925503   2 C  s                98     -0.827402   4 C  s         
    43     -0.712708   2 C  px               51      0.705754   2 C  d -2      
 
 Vector   90  Occ=0.000000D+00  E= 2.243756D+00
              MO Center=  7.1D-01, -2.5D-01, -7.6D-01, r^2= 3.6D+00
   Bfn.  Coefficient  Atom+Function         Bfn.  Coefficient  Atom+Function  
  ----- ------------  ---------------      ----- ------------  ---------------
   150      1.300852   9 H  s                36      0.880771   2 C  s         
   144     -0.860604   8 H  s                66     -0.842321   3 C  s         
   117      0.817792   4 C  d  2             72      0.735841   3 C  py        
    98     -0.687902   4 C  s                67     -0.599934   3 C  s         
    83      0.555864   3 C  d -1            149     -0.490156   9 H  s         
 
 Vector   91  Occ=0.000000D+00  E= 2.265675D+00
              MO Center=  9.5D-01, -2.7D-01, -1.1D+00, r^2= 3.0D+00
   Bfn.  Coefficient  Atom+Function         Bfn.  Coefficient  Atom+Function  
  ----- ------------  ---------------      ----- ------------  ---------------
    66      2.372447   3 C  s                36      2.012859   2 C  s         
    41     -1.580571   2 C  py               67     -1.475034   3 C  s         
    35     -1.328559   2 C  s                98     -1.108646   4 C  s         
    72     -1.049535   3 C  py               71      0.952150   3 C  px        
   156      0.892991  10 H  s               126     -0.879524   5 H  s         
 
 Vector   92  Occ=0.000000D+00  E= 2.281058D+00
              MO Center=  5.5D-01,  2.2D-02, -3.0D-01, r^2= 3.7D+00
   Bfn.  Coefficient  Atom+Function         Bfn.  Coefficient  Atom+Function  
  ----- ------------  ---------------      ----- ------------  ---------------
    98      3.627381   4 C  s                36     -2.734905   2 C  s         
[...]
    21     -0.870195   1 O  d -1             42     -0.788684   2 C  pz        
    45     -0.686767   2 C  pz               97     -0.682792   4 C  s         
     5     -0.548764   1 O  s                67     -0.497635   3 C  s         
    98     -0.499272   4 C  s                83     -0.486712   3 C  d -1      
 
 Vector  154  Occ=0.000000D+00  E= 6.674593D+00
              MO Center= -8.7D-01, -1.8D-01,  2.0D-01, r^2= 5.7D-01
   Bfn.  Coefficient  Atom+Function         Bfn.  Coefficient  Atom+Function  
  ----- ------------  ---------------      ----- ------------  ---------------
    18      1.063613   1 O  d  1             23     -1.034242   1 O  d  1      
    97     -0.823559   4 C  s                42     -0.763690   2 C  pz        
    35      0.739776   2 C  s               102      0.634618   4 C  px        
    54     -0.549858   2 C  d  1             14      0.401864   1 O  pz        
    16     -0.390243   1 O  d -1             11      0.383288   1 O  pz        
 
 Vector  155  Occ=0.000000D+00  E= 6.841793D+00
              MO Center= -8.8D-01, -1.9D-01,  2.0D-01, r^2= 5.9D-01
   Bfn.  Coefficient  Atom+Function         Bfn.  Coefficient  Atom+Function  
  ----- ------------  ---------------      ----- ------------  ---------------
     5      2.133385   1 O  s                40      1.794854   2 C  px        
     9      1.370939   1 O  px               97     -1.241791   4 C  s         
     4      1.208222   1 O  s                20      1.043217   1 O  d -2      
    35     -0.950616   2 C  s                42     -0.953817   2 C  pz        
    12      0.857320   1 O  px               22     -0.837076   1 O  d  0      
 
 Vector  156  Occ=0.000000D+00  E= 7.055213D+00
              MO Center= -8.9D-01, -1.9D-01,  2.0D-01, r^2= 6.4D-01
   Bfn.  Coefficient  Atom+Function         Bfn.  Coefficient  Atom+Function  
  ----- ------------  ---------------      ----- ------------  ---------------
    66     -3.184425   3 C  s                35      3.031007   2 C  s         
    40     -2.709703   2 C  px               72      2.696797   3 C  py        
    24     -1.573676   1 O  d  2             36      1.394927   2 C  s         
    10      1.278081   1 O  py               67     -1.245032   3 C  s         
    19      1.015470   1 O  d  2             13      0.859172   1 O  py        
 
 Vector  157  Occ=0.000000D+00  E= 2.193242D+01
              MO Center=  7.2D-02,  7.9D-01,  6.2D-02, r^2= 1.2D+00
   Bfn.  Coefficient  Atom+Function         Bfn.  Coefficient  Atom+Function  
  ----- ------------  ---------------      ----- ------------  ---------------
    64      1.586842   3 C  s                65     -1.358867   3 C  s         
    63     -1.250998   3 C  s                67     -1.245650   3 C  s         
    98      1.063207   4 C  s                95     -0.743051   4 C  s         
    96      0.610267   4 C  s                94      0.588051   4 C  s         
    35      0.518761   2 C  s                40     -0.459414   2 C  px        
 
 Vector  158  Occ=0.000000D+00  E= 2.198045D+01
              MO Center=  9.1D-01, -2.7D-01, -7.6D-01, r^2= 1.1D+00
   Bfn.  Coefficient  Atom+Function         Bfn.  Coefficient  Atom+Function  
  ----- ------------  ---------------      ----- ------------  ---------------
    95      1.454458   4 C  s                96     -1.341312   4 C  s         
    98     -1.181806   4 C  s                94     -1.144531   4 C  s         
    34     -0.911843   2 C  s                36     -0.871231   2 C  s         
    33      0.833720   2 C  s                32     -0.651288   2 C  s         
    65     -0.637138   3 C  s                64      0.581993   3 C  s         
 
 Vector  159  Occ=0.000000D+00  E= 2.209588D+01
              MO Center=  6.0D-01, -1.1D-01, -4.9D-02, r^2= 6.7D-01
   Bfn.  Coefficient  Atom+Function         Bfn.  Coefficient  Atom+Function  
  ----- ------------  ---------------      ----- ------------  ---------------
    36      2.213485   2 C  s                33     -1.560459   2 C  s         
    34      1.554260   2 C  s                35     -1.382730   2 C  s         
    98     -1.252145   4 C  s                32      1.222182   2 C  s         
    67     -1.187941   3 C  s                97      0.716338   4 C  s         
    95      0.677239   4 C  s                96     -0.618650   4 C  s         
 
 Vector  160  Occ=0.000000D+00  E= 4.341092D+01
              MO Center= -8.8D-01, -1.8D-01,  2.1D-01, r^2= 1.2D-01
   Bfn.  Coefficient  Atom+Function         Bfn.  Coefficient  Atom+Function  
  ----- ------------  ---------------      ----- ------------  ---------------
     4      2.494061   1 O  s                 3     -1.871156   1 O  s         
     2      1.731295   1 O  s                 1     -1.395803   1 O  s         
     5     -0.886457   1 O  s                36      0.847923   2 C  s         
     9      0.557488   1 O  px               66     -0.500276   3 C  s         
    40      0.465240   2 C  px               72      0.440507   3 C  py        
 

 center of mass
 --------------
 x =   0.30619363 y =   0.09486547 z =  -0.27792466

 moments of inertia (a.u.)
 ------------------
         200.753151800627          45.333986468987          84.205312706220
          45.333986468987         248.709115765307         -52.722279787411
          84.205312706220         -52.722279787411         239.425171150859
 
     Multipole analysis of the density
     ---------------------------------
 
     L   x y z        total         alpha         beta         nuclear
     -   - - -        -----         -----         ----         -------
     0   0 0 0     -0.000000    -16.000000    -16.000000     32.000000
 
     1   1 0 0      0.694197     -6.223744     -6.223744     13.141686
     1   0 1 0      0.329107     -1.608248     -1.608248      3.545604
     1   0 0 1     -0.055615      5.331808      5.331808    -10.719231
 
     2   2 0 0    -20.042018    -54.427501    -54.427501     88.812985
     2   1 1 0     -1.111358     13.833405     13.833405    -28.778167
     2   1 0 1      0.127499     26.623636     26.623636    -53.119773
     2   0 2 0    -17.823285    -40.561195    -40.561195     63.299105
     2   0 1 1      0.261152    -15.418363    -15.418363     31.097878
     2   0 0 2    -18.186875    -45.868422    -45.868422     73.549968
 
 *** CALLING NEW AORESP DRIVER FOR CLOSED AND OPEN SHELLS ***
 Entering AOResponse driver routine


--------------------------------------------------------------------------------

          ****************
          *** RESPONSE ***
          ****************

 Response module for NWChem and dynamic CPKS solver
 developed by J. Autschbach and coworkers, SUNY Buffalo
 The methodology used in this program is described in 
 ChemPhysChem 12 (2011), 3224-3235 (main reference)
 J. Chem. Phys. 123 (2005), 114103
 J. Chem. Phys. 122 (2005), 224115
 J. Chem. Phys. 122 (2005), 074105
 Comp. Lett. 3 (2007), 131-150 (contact JA for a copy)
 Please cite this work in publications based on results
 obtained with this code. Thank you!

 For extension of response module to open shell
 calculations please acknowledge:
 F. Aquino, Northwestern University, Schatz Rsrch Group
 The update to the methodology is described in
 J. Phys. Chem. A 118 (2014) 517-525



          -----------------------------------------------
          Solving response equations for perturbing field
          -----------------------------------------------

 number of frequencies:     1
 frequency in a.u.:  0.9319600E-01
 Perturbing field: electric
 Using GIAO formalism for OptRot
 Adding quadrupole terms to OptRot
 to create an origin in dependent tensor.
 Using El. Dipole Length Gauge
 
 Applying DAMPING constant of  0.003700 a.u.
 
 Setting up CPKS
 with frequency omega =      0.09319600 a.u.
 and a damping of            0.00370000 a.u.

 
                            NWChem Dynamic CPHF Module
                            --------------------------
 
 
    scftype = RHF 
    nclosed =   16
      nopen =    0
  variables =     9216
  num. vecs =        3
  tolerance =   1.0D-07
  max. iter =  100

 SCF residual:   5.685222868295828E-006


Iterative solution of linear equations
  No. of variables     4608
  No. of equations        3
  Maximum subspace       99
       Convergence  1.0D-07
        Start time     65.7


   iter   nsub   residual    time 
   ----  ------  --------  --------- 
 dft_CPHF2_read: failed to open
 ./methyloxirane_blyp-def2-tzvp_488.9_06.inp.aoresp_fiao_f1
     1      3    3.93D+00      96.6
     2      6    2.71D+00     127.8
     3      9    2.44D-01     158.9
     4     12    5.22D-02     190.1
     5     15    1.05D-02     221.2
     6     18    1.31D-03     252.4
     7     21    1.44D-04     283.6
     8     24    1.33D-05     314.7
     9     27    1.18D-06     345.9
    10     30    4.70D-07     377.0
    11     33    1.31D-08     408.2

 Calculating some arrays needed for GIAO optical rotation

    0 giaofock schwarz done =      93.55%
    0 giaofock schwarz done =      93.55%
 aor_r1_tensor_giao: roadata output requested
 dip-quad polarizability Re:

              1        2        3        4        5        6      
    1   77.3895  -6.5083 -27.7426  -4.2824   0.8727   8.9509
    2  -11.9206  25.6501   3.0832  23.4322 -21.3339   4.3065
    3   -6.6640   0.7080  39.1953   0.2149  14.0106 -41.9034
 traceless dip-quad polarizability:

              1        2        3      
    1   75.0552  -9.7624 -41.6138
    2   -9.7624 -47.4526   1.3091
    3  -41.6138   1.3091 -27.6026

              1        2        3      
    1  -25.7900  38.4752   4.6248
    2   38.4752  27.2393 -32.0008
    3    4.6248 -32.0008  -1.4493

              1        2        3      
    1   14.1802   1.0620  58.7929
    2    1.0620  24.4986  21.0159
    3   58.7929  21.0159 -38.6788

 roa begin

 alpha real:
 XX       0.4103732847791E+02
 XY      -0.5122858260423E+01
 XZ      -0.3157963192138E+01
 YX      -0.5122858270082E+01
 YY       0.4411146843696E+02
 YZ       0.3114242086509E+01
 ZX      -0.3157963197363E+01
 ZY       0.3114242088513E+01
 ZZ       0.4149592508829E+02

 alpha im:
 XX       0.1109066256512E+00
 XY      -0.2959846420151E-01
 XZ      -0.1183887805211E-01
 YX      -0.2959845786469E-01
 YY       0.1294358644795E+00
 YZ       0.1786326482334E-01
 ZX      -0.1183887330428E-01
 ZY       0.1786326696770E-01
 ZZ       0.1222261054870E+00

 beta real:
 XX      -0.1278529762967E+00
 XY       0.9383417574634E+00
 XZ       0.2002570921809E+00
 YX      -0.8824168546885E+00
 YY       0.1366800765463E+00
 YZ      -0.1538017736141E+01
 ZX      -0.4758773069595E+00
 ZY       0.1874804963803E+01
 ZZ      -0.9426046171904E-02

 G-prime = -omega beta(real):
 XX      -0.1278529762967E+00
 XY       0.9383417574634E+00
 XZ       0.2002570921809E+00
 YX      -0.8824168546885E+00
 YY       0.1366800765463E+00
 YZ      -0.1538017736141E+01
 ZX      -0.4758773069595E+00
 ZY       0.1874804963803E+01
 ZZ      -0.9426046171904E-02

 beta im:
 XX      -0.5445661533610E-02
 XY       0.1324023558176E-01
 XZ       0.2780861873681E-02
 YX      -0.7164356425367E-02
 YY       0.4482272352929E-02
 YZ      -0.2308194408444E-01
 ZX      -0.1339151549156E-01
 ZY       0.4020120391148E-01
 ZZ       0.2623371732791E-03

 G-prime = -omega beta(imag):
 XX      -0.5445661533610E-02
 XY       0.1324023558176E-01
 XZ       0.2780861873681E-02
 YX      -0.7164356425367E-02
 YY       0.4482272352929E-02
 YZ      -0.2308194408444E-01
 ZX      -0.1339151549156E-01
 ZY       0.4020120391148E-01
 ZZ       0.2623371732791E-03

 dipole-quadrupole real (Cartesian):
 XXX      0.7738946026078E+02
 XXY     -0.6508275944071E+01
 XXZ     -0.2774256266853E+02
 XYY     -0.4282416595754E+01
 XYZ      0.8727459790403E+00
 XZZ      0.8950932300520E+01
 YXX     -0.1192064551046E+02
 YXY      0.2565013536379E+02
 YXZ      0.3083177042513E+01
 YYY      0.2343223140063E+02
 YYZ     -0.2133388293699E+02
 YZZ      0.4306491133953E+01
 ZXX     -0.6664032635106E+01
 ZXY      0.7079769955292E+00
 ZXZ      0.3919528504833E+02
 ZYY      0.2148805308977E+00
 ZYZ      0.1401062135997E+02
 ZZZ     -0.4190340676225E+02

 dipole-quadrupole imag (Cartesian):
 XXX      0.2704469982998E+00
 XXY     -0.3631224124839E-01
 XXZ     -0.7784304890751E-01
 XYY     -0.2719977775782E-01
 XYZ      0.1212667850837E-02
 XZZ      0.5996419543358E-01
 YXX     -0.5783081436354E-01
 YXY      0.6263407678278E-01
 YXZ      0.1836998061706E-01
 YYY      0.9259840867930E-01
 YYZ     -0.6064738858614E-01
 YZZ      0.9652707268516E-02
 ZXX     -0.3427736702789E-01
 ZXY     -0.1467101146367E-02
 ZXZ      0.1446307687645E+00
 ZYY      0.6011802151810E-02
 ZYZ      0.6516707522146E-01
 ZZZ     -0.1011020574938E+00

 dipole-quadrupole (traceless):
 XXX      0.7505520240839E+02
 XXY     -0.9762413916107E+01
 XXZ     -0.4161384400279E+02
 XYY     -0.4745261287640E+02
 XYZ      0.1309118968560E+01
 XZZ     -0.2760258953199E+02
 YXX     -0.2579000677775E+02
 YXY      0.3847520304568E+02
 YXZ      0.4624765563770E+01
 YYY      0.2723930858888E+02
 YYZ     -0.3200082440549E+02
 YZZ     -0.1449301811135E+01
 ZXX      0.1418023048057E+02
 ZXY      0.1061965493294E+01
 ZXZ      0.5879292757249E+02
 ZYY      0.2449860022958E+02
 ZYZ      0.2101593203995E+02
 ZZZ     -0.3867883071015E+02

 roa end


 Electric Dipole Response Matrix (nonzero elements):

              1        2        3      
    1   41.0373  -5.1229  -3.1580
    2   -5.1229  44.1115   3.1142
    3   -3.1580   3.1142  41.4959
 
 Imaginary part:

              1        2        3      
    1    0.1109  -0.0296  -0.0118
    2   -0.0296   0.1294   0.0179
    3   -0.0118   0.0179   0.1222

 ------------------------------------------
 average:        42.21491 + I       0.12086


 DFT Linear Response polarizability / au 
 Frequency  =       0.0931960 / au
 Wavelength =     488.8981609 / nm
              X              Y              Z
 -----------------------------------------------
 X      41.0373285     -5.1228583     -3.1579632
 Y      -5.1228583     44.1114684      3.1142421
 Z      -3.1579632      3.1142421     41.4959251
 -----------------------------------------------
 Eigenvalues =      37.0555537     50.1519156     39.4372527
 Isotropic   =      42.2149073
 Anisotropic =       9.8656168
 -----------------------------------------------
 *************************

 DFT Linear Response IMAG polarizability / au 
 Frequency  =       0.0931960 / au
 Wavelength =     488.8981609 / nm
              X              Y              Z
 -----------------------------------------------
 X       0.1109066     -0.0295985     -0.0118389
 Y      -0.0295985      0.1294359      0.0178633
 Z      -0.0118389      0.0178633      0.1222261
 -----------------------------------------------
 Eigenvalues =       0.0891149      0.1625519      0.1109019
 Isotropic   =       0.1208562
 Anisotropic =       0.0533398
 -----------------------------------------------
 *************************

 Magnetic Dipole Response Matrix (nonzero elements):
 Optical rotation tensor Beta
 (Buckingham-Dunn version including dipole-quadrupole terms)

              1        2        3      
    1    2.5595  -0.4176   0.4058
    2   -0.4176  -1.5490  -1.7289
    3    0.4058  -1.7289  -1.0041
 
 Imaginary part:

              1        2        3      
    1    0.0584  -0.1421  -0.0298
    2    0.0769  -0.0481   0.2477
    3    0.1437  -0.4314  -0.0028

 ------------------------------------------
 average:         0.00214 + I       0.00251

 Principal components and PAS (Real part)
                 -3.02731
                  2.71027
                  0.32346
 ------------------------
 average:         0.00214

              1        2        3      
    1    0.0098   0.9680  -0.2509
    2    0.7612  -0.1699  -0.6259
    3    0.6485   0.1848   0.7384

 Chiral response tensor (Real part):

              1        2        3      
    1   -1.2765   0.2088  -0.2029
    2    0.2088   0.7777   0.8645
    3   -0.2029   0.8645   0.5053
 
 Principal components and PAS (Real part)
                  1.51687
                 -1.35192
                 -0.15852
 ------------------------
 average:         0.00214

              1        2        3      
    1    0.0098   0.9680  -0.2509
    2    0.7612  -0.1699  -0.6259
    3    0.6485   0.1848   0.7384
 Exiting AOResponse driver routine

 Task  times  cpu:      398.7s     wall:      407.1s
 
 
                                NWChem Input Module
                                -------------------
 
 
 Summary of allocated global arrays
-----------------------------------
  No active global arrays



                         GA Statistics for process    0
                         ------------------------------

       create   destroy   get      put      acc     scatter   gather  read&inc
calls: 3294     3294     7.74e+06 3.14e+06 8.38e+05 2694        0     1214     
number of processes/call 1.01e+00 1.03e+00 1.46e+00 0.00e+00 0.00e+00
bytes total:             1.96e+09 1.26e+08 2.01e+09 1.84e+02 0.00e+00 9.71e+03
bytes remote:            8.82e+08 3.29e+07 1.23e+09 0.00e+00 0.00e+00 0.00e+00
Max memory consumed for GA by this process: 11242192 bytes
 
MA_summarize_allocated_blocks: starting scan ...
MA_summarize_allocated_blocks: scan completed: 0 heap blocks, 0 stack blocks
MA usage statistics:

	allocation statistics:
					      heap	     stack
					      ----	     -----
	current number of blocks	         0	         0
	maximum number of blocks	        24	        52
	current total bytes		         0	         0
	maximum total bytes		   7519824	  48954952
	maximum total K-bytes		      7520	     48955
	maximum total M-bytes		         8	        49
 
 
                                     CITATION
                                     --------
                Please cite the following reference when publishing
                           results obtained with NWChem:
 
                 M. Valiev, E.J. Bylaska, N. Govind, K. Kowalski,
              T.P. Straatsma, H.J.J. van Dam, D. Wang, J. Nieplocha,
                        E. Apra, T.L. Windus, W.A. de Jong
                 "NWChem: a comprehensive and scalable open-source
                  solution for large scale molecular simulations"
                      Comput. Phys. Commun. 181, 1477 (2010)
                           doi:10.1016/j.cpc.2010.04.018
 
                                      AUTHORS
                                      -------
          E. Apra, E. J. Bylaska, W. A. de Jong, N. Govind, K. Kowalski,
       T. P. Straatsma, M. Valiev, H. J. J. van Dam, D. Wang, T. L. Windus,
        J. Hammond, J. Autschbach, K. Bhaskaran-Nair, J. Brabec, K. Lopata,
    S. A. Fischer, S. Krishnamoorthy, M. Jacquelin, W. Ma, M. Klemm, O. Villa,
      Y. Chen, V. Anisimov, F. Aquino, S. Hirata, M. T. Hackler, V. Konjkov,
            D. Mejia-Rodriguez, T. Risthaus, M. Malagoli, A. Marenich,
   A. Otero-de-la-Roza, J. Mullin, P. Nichols, R. Peverati, J. Pittner, Y. Zhao,
        P.-D. Fan, A. Fonari, M. J. Williamson, R. J. Harrison, J. R. Rehr,
      M. Dupuis, D. Silverstein, D. M. A. Smith, J. Nieplocha, V. Tipparaju,
    M. Krishnan, B. E. Van Kuiken, A. Vazquez-Mayagoitia, L. Jensen, M. Swart,
      Q. Wu, T. Van Voorhis, A. A. Auer, M. Nooijen, L. D. Crosby, E. Brown,
      G. Cisneros, G. I. Fann, H. Fruchtl, J. Garza, K. Hirao, R. A. Kendall,
      J. A. Nichols, K. Tsemekhman, K. Wolinski, J. Anchell, D. E. Bernholdt,
      P. Borowski, T. Clark, D. Clerc, H. Dachsel, M. J. O. Deegan, K. Dyall,
    D. Elwood, E. Glendening, M. Gutowski, A. C. Hess, J. Jaffe, B. G. Johnson,
     J. Ju, R. Kobayashi, R. Kutteh, Z. Lin, R. Littlefield, X. Long, B. Meng,
      T. Nakajima, S. Niu, L. Pollack, M. Rosing, K. Glaesemann, G. Sandrone,
      M. Stave, H. Taylor, G. Thomas, J. H. van Lenthe, A. T. Wong, Z. Zhang.

 Total times  cpu:      450.1s     wall:      459.3s
