 argument  1 = methyloxirane_blyp-def2-tzvp_488.9_43.inp
 


============================== echo of input deck ==============================
echo
start methyloxirane_blyp-def2-tzvp_488.9_43.inp
title "methyloxirane roa calculations at 488.9 nm, input generated in va  with delta_type=2"
charge 0



geometry units angstrom nocenter noautoz noautosym nucleus point;symmetry c1
 O -0.879116 -0.180294  0.205257
 C  0.574153 -0.157591  0.122514
 C -0.185517  1.088321  0.340137
 C  1.186420 -0.520837 -1.212548
 H  1.059260 -0.604456  0.999165
 H -0.228021  1.538115  1.335748
 H -0.325393  1.782770 -0.493626
 H  2.221370 -0.222199 -1.245332
 H  1.143506 -1.588297 -1.371941
 H  0.659094 -0.033955 -2.022707
end

basis spherical
* library def2-TZVP
end

 set prop:newaoresp 1
 set aor:roadata T
 set cphf:maxsub 100
 set cphf:acc 1.0d-10
 set cphf:maxiter 100

property
    response 1   0.093196
    bdtensor
    convergence 1e-7
    damping 0.0037
    giao
end

dft
 direct
 mult 1
 xc becke88 lyp
 iterations 250
 tolerances tight
 grid xfine
 convergence nolevelshifting
 convergence energy 1e-8
 convergence gradient 1e-7


end

task dft gradient
task dft property
================================================================================


                                         
                                         
 
 
              Northwest Computational Chemistry Package (NWChem) 6.8
              ------------------------------------------------------
 
 
                    Environmental Molecular Sciences Laboratory
                       Pacific Northwest National Laboratory
                                Richland, WA 99352
 
                              Copyright (c) 1994-2017
                       Pacific Northwest National Laboratory
                            Battelle Memorial Institute
 
             NWChem is an open-source computational chemistry package
                        distributed under the terms of the
                      Educational Community License (ECL) 2.0
             A copy of the license is included with this distribution
                              in the LICENSE.TXT file
 
                                  ACKNOWLEDGMENT
                                  --------------

            This software and its documentation were developed at the
            EMSL at Pacific Northwest National Laboratory, a multiprogram
            national laboratory, operated for the U.S. Department of Energy
            by Battelle under Contract Number DE-AC05-76RL01830. Support
            for this work was provided by the Department of Energy Office
            of Biological and Environmental Research, Office of Basic
            Energy Sciences, and the Office of Advanced Scientific Computing.


           Job information
           ---------------

    hostname        = cpn-d11-01.cbls.ccr.buffalo.edu
    program         = /util/academic/nwchem/nwchem-6.8/bin/LINUX64/nwchem
    date            = Fri Mar  1 10:46:32 2019

    compiled        = Tue_Nov_06_14:59:08_2018
    source          = /util/academic/nwchem/nwchem-6.8
    nwchem branch   = 6.8
    nwchem revision = v6.8-47-gdf6c956
    ga revision     = ga-5.6.3
    use scalapack   = F
    input           = methyloxirane_blyp-def2-tzvp_488.9_43.inp
    prefix          = methyloxirane_blyp-def2-tzvp_488.9_43.inp.
    data base       = ./methyloxirane_blyp-def2-tzvp_488.9_43.inp.db
    status          = startup
    nproc           =        7
    time left       =     -1s



           Memory information
           ------------------

    heap     =   13107196 doubles =    100.0 Mbytes
    stack    =   13107201 doubles =    100.0 Mbytes
    global   =   26214400 doubles =    200.0 Mbytes (distinct from heap & stack)
    total    =   52428797 doubles =    400.0 Mbytes
    verify   = yes
    hardfail = no 


           Directory information
           ---------------------
 
  0 permanent = .
  0 scratch   = .
 
 
 
 
                                NWChem Input Module
                                -------------------
 
 
                    methyloxirane roa calculations at 488.9 nm, input generated in va  with delta_type=2
                    ------------------------------------------

 Scaling coordinates for geometry "geometry" by  1.889725989
 (inverse scale =  0.529177249)

 
 
                             Geometry "geometry" -> ""
                             -------------------------
 
 Output coordinates in angstroms (scale by  1.889725989 to convert to a.u.)
 
  No.       Tag          Charge          X              Y              Z
 ---- ---------------- ---------- -------------- -------------- --------------
    1 O                    8.0000    -0.87911600    -0.18029400     0.20525700
    2 C                    6.0000     0.57415300    -0.15759100     0.12251400
    3 C                    6.0000    -0.18551700     1.08832100     0.34013700
    4 C                    6.0000     1.18642000    -0.52083700    -1.21254800
    5 H                    1.0000     1.05926000    -0.60445600     0.99916500
    6 H                    1.0000    -0.22802100     1.53811500     1.33574800
    7 H                    1.0000    -0.32539300     1.78277000    -0.49362600
    8 H                    1.0000     2.22137000    -0.22219900    -1.24533200
    9 H                    1.0000     1.14350600    -1.58829700    -1.37194100
   10 H                    1.0000     0.65909400    -0.03395500    -2.02270700
 
      Atomic Mass 
      ----------- 
 
      O                 15.994910
      C                 12.000000
      H                  1.007825
 

 Effective nuclear repulsion energy (a.u.)     123.7198564654

            Nuclear Dipole moment (a.u.) 
            ----------------------------
        X                 Y               Z
 ---------------- ---------------- ----------------
    13.1283497413     3.5696621568   -10.6883260962
 
 
            XYZ format geometry
            -------------------
    10
 geometry
 O                    -0.87911600    -0.18029400     0.20525700
 C                     0.57415300    -0.15759100     0.12251400
 C                    -0.18551700     1.08832100     0.34013700
 C                     1.18642000    -0.52083700    -1.21254800
 H                     1.05926000    -0.60445600     0.99916500
 H                    -0.22802100     1.53811500     1.33574800
 H                    -0.32539300     1.78277000    -0.49362600
 H                     2.22137000    -0.22219900    -1.24533200
 H                     1.14350600    -1.58829700    -1.37194100
 H                     0.65909400    -0.03395500    -2.02270700
 
 ==============================================================================
                                internuclear distances
 ------------------------------------------------------------------------------
       center one      |      center two      | atomic units |  angstroms
 ------------------------------------------------------------------------------
    2 C                |   1 O                |     2.75106  |     1.45580
    3 C                |   1 O                |     2.74411  |     1.45212
    3 C                |   2 C                |     2.78807  |     1.47538
    4 C                |   2 C                |     2.85918  |     1.51301
    5 H                |   2 C                |     2.07314  |     1.09706
    6 H                |   3 C                |     2.06609  |     1.09333
    7 H                |   3 C                |     2.06749  |     1.09407
    8 H                |   4 C                |     2.03651  |     1.07767
    9 H                |   4 C                |     2.04118  |     1.08015
   10 H                |   4 C                |     2.04535  |     1.08235
 ------------------------------------------------------------------------------
                         number of included internuclear distances:         10
 ==============================================================================



 ==============================================================================
                                 internuclear angles
 ------------------------------------------------------------------------------
        center 1       |       center 2       |       center 3       |  degrees
 ------------------------------------------------------------------------------
    2 C                |   1 O                |   3 C                |    60.98
    2 C                |   1 O                |   3 C                |    60.98
    1 O                |   2 C                |   4 C                |   116.77
    1 O                |   2 C                |   5 H                |   112.93
    3 C                |   2 C                |   4 C                |   122.77
    3 C                |   2 C                |   5 H                |   116.99
    4 C                |   2 C                |   5 H                |   115.36
    3 C                |   1 O                |   2 C                |    60.98
    1 O                |   3 C                |   6 H                |   115.18
    1 O                |   3 C                |   7 H                |   115.00
    2 C                |   3 C                |   6 H                |   120.12
    2 C                |   3 C                |   7 H                |   119.30
    6 H                |   3 C                |   7 H                |   115.33
    2 C                |   4 C                |   8 H                |   110.42
    2 C                |   4 C                |   9 H                |   110.57
    2 C                |   4 C                |  10 H                |   110.81
    8 H                |   4 C                |   9 H                |   107.91
    8 H                |   4 C                |  10 H                |   108.69
    9 H                |   4 C                |  10 H                |   108.35
 ------------------------------------------------------------------------------
                            number of included internuclear angles:         19
 ==============================================================================



  warning:::::::::::::: from_environment
  NWCHEM_BASIS_LIBRARY set to: <
 /util/academic/nwchem/nwchem-6.8/src/basis/libraries>
  but file does not exist !
  using .nwchemrc or compiled library


 Summary of "ao basis" -> "" (spherical)
 ------------------------------------------------------------------------------
       Tag                 Description            Shells   Functions and Types
 ---------------- ------------------------------  ------  ---------------------
 *                         def2-TZVP                  on all atoms 


 
                                 NWChem DFT Module
                                 -----------------
 
 
                    methyloxirane roa calculations at 488.9 nm, input generated in va  with delta_type=2
 
 
                      Basis "ao basis" -> "ao basis" (spherical)
                      -----
  O (Oxygen)
  ----------
            Exponent  Coefficients 
       -------------- ---------------------------------------------------------
  1 S  2.70323826E+04  0.000217
  1 S  4.05238714E+03  0.001684
  1 S  9.22327227E+02  0.008740
  1 S  2.61240710E+02  0.035240
  1 S  8.53546414E+01  0.111535
  1 S  3.10350352E+01  0.255890
 
  2 S  1.22608607E+01  0.397687
  2 S  4.99870760E+00  0.246278
 
  3 S  1.17031082E+00  1.000000
 
  4 S  4.64747410E-01  1.000000
 
  5 S  1.85045364E-01  1.000000
 
  6 P  6.32749548E+01  0.006069
  6 P  1.46270494E+01  0.041913
  6 P  4.45012235E+00  0.161538
  6 P  1.52757996E+00  0.357070
 
  7 P  5.29351179E-01  1.000000
 
  8 P  1.74784213E-01  1.000000
 
  9 D  2.31400000E+00  1.000000
 
 10 D  6.45000000E-01  1.000000
 
 11 F  1.42800000E+00  1.000000
 
  C (Carbon)
  ----------
            Exponent  Coefficients 
       -------------- ---------------------------------------------------------
  1 S  1.35753497E+04  0.000222
  1 S  2.03523337E+03  0.001723
  1 S  4.63225624E+02  0.008926
  1 S  1.31200196E+02  0.035728
  1 S  4.28530159E+01  0.110763
  1 S  1.55841858E+01  0.242956
 
  2 S  6.20671385E+00  0.414403
  2 S  2.57648965E+00  0.237450
 
  3 S  5.76963394E-01  1.000000
 
  4 S  2.29728314E-01  1.000000
 
  5 S  9.51644400E-02  1.000000
 
  6 P  3.46972322E+01  0.005333
  6 P  7.95826228E+00  0.035864
  6 P  2.37808269E+00  0.142159
  6 P  8.14332082E-01  0.342705
 
  7 P  2.88875473E-01  1.000000
 
  8 P  1.00568237E-01  1.000000
 
  9 D  1.09700000E+00  1.000000
 
 10 D  3.18000000E-01  1.000000
 
 11 F  7.61000000E-01  1.000000
 
  H (Hydrogen)
  ------------
            Exponent  Coefficients 
       -------------- ---------------------------------------------------------
  1 S  3.40613410E+01  0.006025
  1 S  5.12357460E+00  0.045021
  1 S  1.16466260E+00  0.201897
 
  2 S  3.27230410E-01  1.000000
 
  3 S  1.03072410E-01  1.000000
 
  4 P  8.00000000E-01  1.000000
 


 Summary of "ao basis" -> "ao basis" (spherical)
 ------------------------------------------------------------------------------
       Tag                 Description            Shells   Functions and Types
 ---------------- ------------------------------  ------  ---------------------
 O                         def2-TZVP                11       31   5s3p2d1f
 C                         def2-TZVP                11       31   5s3p2d1f
 H                         def2-TZVP                 4        6   3s1p




 Summary of "ao basis" -> "ao basis" (spherical)
 ------------------------------------------------------------------------------
       Tag                 Description            Shells   Functions and Types
 ---------------- ------------------------------  ------  ---------------------
 O                         def2-TZVP                11       31   5s3p2d1f
 C                         def2-TZVP                11       31   5s3p2d1f
 H                         def2-TZVP                 4        6   3s1p


  Caching 1-el integrals 
  itol2e modified to match energy
  convergence criterion.
  tol_rho modified to match energy
  convergence criterion.
 
            General Information
            -------------------
          SCF calculation type: DFT
          Wavefunction type:  closed shell.
          No. of atoms     :    10
          No. of electrons :    32
           Alpha electrons :    16
            Beta electrons :    16
          Charge           :     0
          Spin multiplicity:     1
          Use of symmetry is: off; symmetry adaption is: off
          Maximum number of iterations: 250
          This is a Direct SCF calculation.
          AO basis - number of functions:   160
                     number of shells:    68
          Convergence on energy requested:  1.00D-08
          Convergence on density requested:  1.00D-05
          Convergence on gradient requested:  1.00D-07
 
              XC Information
              --------------
                    Becke 1988 Exchange Functional  1.000          
              Lee-Yang-Parr Correlation Functional  1.000          
 
             Grid Information
             ----------------
          Grid used for XC integration:  xfine     
          Radial quadrature: Mura-Knowles        
          Angular quadrature: Lebedev. 
          Tag              B.-S. Rad. Rad. Pts. Rad. Cut. Ang. Pts.
          ---              ---------- --------- --------- ---------
          O                   0.60      100          11.0      1454
          C                   0.70      100          11.0      1454
          H                   0.35      100          12.0      1202
          Grid pruning is: on 
          Number of quadrature shells:  1000
          Spatial weights used:  Erf1
 
          Convergence Information
          -----------------------
          Convergence aids based upon iterative change in 
          total energy or number of iterations. 
          Levelshifting, if invoked, occurs when the 
          HOMO/LUMO gap drops below (HL_TOL):  1.00D-02
          DIIS, if invoked, will attempt to extrapolate 
          using up to (NFOCK): 10 stored Fock matrices.

                    Damping( 0%)  Levelshifting(0.0)       DIIS
                  --------------- ------------------- ---------------
          dE  on:    start             N/A                start   
          dE off:    2 iters           N/A              250 iters 

 
      Screening Tolerance Information
      -------------------------------
          Density screening/tol_rho:  1.00D-11
          AO Gaussian exp screening on grid/accAOfunc:  18
          CD Gaussian exp screening on grid/accCDfunc:  20
          XC Gaussian exp screening on grid/accXCfunc:  20
          Schwarz screening/accCoul:  1.00D-09

 
      Superposition of Atomic Density Guess
      -------------------------------------
 
 Sum of atomic energies:        -190.79714706
 
      Non-variational initial energy
      ------------------------------

 Total energy =    -193.198926
 1-e energy   =    -502.345086
 2-e energy   =     185.426304
 HOMO         =      -0.352719
 LUMO         =       0.090514
 
   Time after variat. SCF:      0.6
   Time prior to 1st pass:      0.6

 Grid_pts file          = ./methyloxirane_blyp-def2-tzvp_488.9_43.inp.gridpts.0
 Record size in doubles =  12289        No. of grid_pts per rec  =   3070
 Max. records in memory =     76        Max. recs in file   =    317624


           Memory utilization after 1st SCF pass: 
           Heap Space remaining (MW):       12.17            12167540
          Stack Space remaining (MW):       13.11            13106124

   convergence    iter        energy       DeltaE   RMS-Dens  Diis-err    time
 ---------------- ----- ----------------- --------- --------- ---------  ------
 d= 0,ls=0.0,diis     1   -193.0196750377 -3.17D+02  9.21D-03  1.06D+00     7.0
 d= 0,ls=0.0,diis     2   -192.8586148341  1.61D-01  7.60D-03  2.55D+00    13.0
 d= 0,ls=0.0,diis     3   -193.0765039241 -2.18D-01  1.84D-03  3.87D-01    19.1
 d= 0,ls=0.0,diis     4   -193.1065689048 -3.01D-02  6.95D-04  1.92D-02    25.1
 d= 0,ls=0.0,diis     5   -193.1083491157 -1.78D-03  2.91D-04  2.70D-03    31.1
 d= 0,ls=0.0,diis     6   -193.1086847701 -3.36D-04  2.95D-05  3.36D-05    37.2
 d= 0,ls=0.0,diis     7   -193.1086887963 -4.03D-06  8.30D-06  3.47D-06    43.2
 d= 0,ls=0.0,diis     8   -193.1086891825 -3.86D-07  1.82D-06  2.56D-07    49.3
 d= 0,ls=0.0,diis     9   -193.1086892102 -2.77D-08  6.25D-07  1.46D-08    55.3
 d= 0,ls=0.0,diis    10   -193.1086892119 -1.68D-09  1.72D-07  1.61D-09    61.3


         Total DFT energy =     -193.108689211912
      One electron energy =     -506.039103270572
           Coulomb energy =      216.249683099875
    Exchange-Corr. energy =      -27.039125506605
 Nuclear repulsion energy =      123.719856465390

 Numeric. integr. density =       32.000000025157

     Total iterative time =     60.7s


 
                       DFT Final Molecular Orbital Analysis
                       ------------------------------------
 
 Vector    1  Occ=2.000000D+00  E=-1.877948D+01
              MO Center= -8.8D-01, -1.8D-01,  2.1D-01, r^2= 1.5D-02
   Bfn.  Coefficient  Atom+Function         Bfn.  Coefficient  Atom+Function  
  ----- ------------  ---------------      ----- ------------  ---------------
     2      0.638477   1 O  s                 1      0.435422   1 O  s         
     3      0.039885   1 O  s                 4     -0.033234   1 O  s         
 
 Vector    2  Occ=2.000000D+00  E=-9.963016D+00
              MO Center=  5.7D-01, -1.6D-01,  1.2D-01, r^2= 2.8D-02
   Bfn.  Coefficient  Atom+Function         Bfn.  Coefficient  Atom+Function  
  ----- ------------  ---------------      ----- ------------  ---------------
    33      0.606917   2 C  s                32      0.467264   2 C  s         
    34      0.042509   2 C  s                36      0.037315   2 C  s         
    35     -0.027399   2 C  s         
 
 Vector    3  Occ=2.000000D+00  E=-9.955420D+00
              MO Center= -1.9D-01,  1.1D+00,  3.4D-01, r^2= 2.8D-02
   Bfn.  Coefficient  Atom+Function         Bfn.  Coefficient  Atom+Function  
  ----- ------------  ---------------      ----- ------------  ---------------
    64      0.607028   3 C  s                63      0.467224   3 C  s         
    65      0.039701   3 C  s         
 
 Vector    4  Occ=2.000000D+00  E=-9.902548D+00
              MO Center=  1.2D+00, -5.2D-01, -1.2D+00, r^2= 2.8D-02
   Bfn.  Coefficient  Atom+Function         Bfn.  Coefficient  Atom+Function  
  ----- ------------  ---------------      ----- ------------  ---------------
    95      0.606868   4 C  s                94      0.467193   4 C  s         
    96      0.040862   4 C  s                98      0.035711   4 C  s         
 
 Vector    5  Occ=2.000000D+00  E=-9.622054D-01
              MO Center= -4.7D-01,  5.6D-02,  2.1D-01, r^2= 6.5D-01
   Bfn.  Coefficient  Atom+Function         Bfn.  Coefficient  Atom+Function  
  ----- ------------  ---------------      ----- ------------  ---------------
     4      0.375261   1 O  s                 3      0.277462   1 O  s         
     2     -0.192805   1 O  s                34      0.139721   2 C  s         
    65      0.139148   3 C  s                 5      0.122810   1 O  s         
    35      0.105047   2 C  s                 6      0.093279   1 O  px        
    66      0.093588   3 C  s                69     -0.091401   3 C  py        
 
 Vector    6  Occ=2.000000D+00  E=-6.720128D-01
              MO Center=  9.6D-01, -4.0D-01, -8.0D-01, r^2= 1.5D+00
   Bfn.  Coefficient  Atom+Function         Bfn.  Coefficient  Atom+Function  
  ----- ------------  ---------------      ----- ------------  ---------------
    97      0.284431   4 C  s                96      0.278945   4 C  s         
    35      0.179393   2 C  s                95     -0.176011   4 C  s         
    34      0.169754   2 C  s                 4     -0.143601   1 O  s         
    33     -0.106101   2 C  s                 3     -0.100321   1 O  s         
    94     -0.084373   4 C  s               144      0.073855   8 H  s         
 
 Vector    7  Occ=2.000000D+00  E=-5.898753D-01
              MO Center= -1.3D-01,  7.1D-01,  2.2D-01, r^2= 2.0D+00
   Bfn.  Coefficient  Atom+Function         Bfn.  Coefficient  Atom+Function  
  ----- ------------  ---------------      ----- ------------  ---------------
    66      0.324354   3 C  s                65      0.277099   3 C  s         
     4     -0.240968   1 O  s                64     -0.171253   3 C  s         
     3     -0.170248   1 O  s                 5     -0.149470   1 O  s         
     2      0.112404   1 O  s                38      0.104087   2 C  py        
   132      0.102093   6 H  s               138      0.097552   7 H  s         
 
 Vector    8  Occ=2.000000D+00  E=-5.308155D-01
              MO Center=  4.1D-01,  2.3D-02, -8.3D-02, r^2= 2.7D+00
   Bfn.  Coefficient  Atom+Function         Bfn.  Coefficient  Atom+Function  
  ----- ------------  ---------------      ----- ------------  ---------------
    35      0.307120   2 C  s                34      0.227401   2 C  s         
    66     -0.156838   3 C  s                97     -0.147463   4 C  s         
    33     -0.139997   2 C  s               126      0.132249   5 H  s         
    96     -0.124176   4 C  s                 6      0.106523   1 O  px        
   125      0.105850   5 H  s                65     -0.102286   3 C  s         
 
 Vector    9  Occ=2.000000D+00  E=-4.478695D-01
              MO Center=  1.3D-01,  2.8D-01,  2.4D-01, r^2= 2.5D+00
   Bfn.  Coefficient  Atom+Function         Bfn.  Coefficient  Atom+Function  
  ----- ------------  ---------------      ----- ------------  ---------------
    70      0.209857   3 C  pz               39      0.157002   2 C  pz        
   132      0.144186   6 H  s                73      0.131924   3 C  pz        
     8      0.127626   1 O  pz              126      0.115950   5 H  s         
     6     -0.108395   1 O  px              131      0.106982   6 H  s         
    38     -0.105307   2 C  py               42      0.104012   2 C  pz        
 
 Vector   10  Occ=2.000000D+00  E=-4.137856D-01
              MO Center=  4.3D-02,  2.9D-01, -2.3D-01, r^2= 2.5D+00
   Bfn.  Coefficient  Atom+Function         Bfn.  Coefficient  Atom+Function  
  ----- ------------  ---------------      ----- ------------  ---------------
    69      0.216437   3 C  py              101      0.154424   4 C  pz        
   138      0.153545   7 H  s                 6     -0.144251   1 O  px        
    38     -0.140905   2 C  py               37      0.129209   2 C  px        
     7     -0.122125   1 O  py               72      0.122258   3 C  py        
     9     -0.115265   1 O  px               70     -0.114779   3 C  pz        
 
 Vector   11  Occ=2.000000D+00  E=-3.791402D-01
              MO Center=  9.5D-01, -3.5D-01, -7.9D-01, r^2= 2.6D+00
   Bfn.  Coefficient  Atom+Function         Bfn.  Coefficient  Atom+Function  
  ----- ------------  ---------------      ----- ------------  ---------------
    99      0.213736   4 C  px              144      0.189161   8 H  s         
   100      0.173203   4 C  py              150     -0.146777   9 H  s         
   102      0.134654   4 C  px              143      0.133646   8 H  s         
    37      0.123602   2 C  px                6     -0.113728   1 O  px        
   103      0.112408   4 C  py                7      0.104460   1 O  py        
 
 Vector   12  Occ=2.000000D+00  E=-3.579553D-01
              MO Center=  6.0D-01, -3.3D-01, -8.9D-01, r^2= 2.8D+00
   Bfn.  Coefficient  Atom+Function         Bfn.  Coefficient  Atom+Function  
  ----- ------------  ---------------      ----- ------------  ---------------
   100      0.253837   4 C  py              150     -0.182837   9 H  s         
   156      0.181477  10 H  s                 7     -0.166321   1 O  py        
   103      0.162043   4 C  py               10     -0.133200   1 O  py        
   155      0.129215  10 H  s               149     -0.128366   9 H  s         
    70      0.117730   3 C  pz               99     -0.103318   4 C  px        
 
 Vector   13  Occ=2.000000D+00  E=-3.288488D-01
              MO Center=  2.9D-01,  2.4D-01, -2.2D-01, r^2= 2.7D+00
   Bfn.  Coefficient  Atom+Function         Bfn.  Coefficient  Atom+Function  
  ----- ------------  ---------------      ----- ------------  ---------------
    39      0.207374   2 C  pz              101     -0.185404   4 C  pz        
     7     -0.183308   1 O  py               70     -0.164953   3 C  pz        
   138      0.161386   7 H  s                10     -0.148142   1 O  py        
    42      0.141218   2 C  pz               99      0.138698   4 C  px        
   104     -0.130315   4 C  pz              137      0.108511   7 H  s         
 
 Vector   14  Occ=2.000000D+00  E=-3.219401D-01
              MO Center=  3.8D-01, -2.9D-02, -1.7D-01, r^2= 3.0D+00
   Bfn.  Coefficient  Atom+Function         Bfn.  Coefficient  Atom+Function  
  ----- ------------  ---------------      ----- ------------  ---------------
     7      0.197832   1 O  py              126      0.169777   5 H  s         
    10      0.162410   1 O  py              156      0.150119  10 H  s         
    39      0.146498   2 C  pz                6     -0.144117   1 O  px        
    99     -0.143047   4 C  px               37      0.129965   2 C  px        
   101     -0.130343   4 C  pz              144     -0.120762   8 H  s         
 
 Vector   15  Occ=2.000000D+00  E=-2.635190D-01
              MO Center=  6.3D-03,  1.6D-01,  4.6D-02, r^2= 2.3D+00
   Bfn.  Coefficient  Atom+Function         Bfn.  Coefficient  Atom+Function  
  ----- ------------  ---------------      ----- ------------  ---------------
    68      0.265356   3 C  px               38      0.257458   2 C  py        
     6     -0.237472   1 O  px               41      0.200657   2 C  py        
    71      0.197252   3 C  px                9     -0.185709   1 O  px        
    12     -0.157268   1 O  px              150      0.112126   9 H  s         
   100     -0.109382   4 C  py               67      0.106586   3 C  s         
 
 Vector   16  Occ=2.000000D+00  E=-2.193971D-01
              MO Center= -5.8D-01, -2.6D-02,  2.0D-01, r^2= 1.6D+00
   Bfn.  Coefficient  Atom+Function         Bfn.  Coefficient  Atom+Function  
  ----- ------------  ---------------      ----- ------------  ---------------
     8      0.449021   1 O  pz               11      0.357604   1 O  pz        
    14      0.296300   1 O  pz              133     -0.131006   6 H  s         
   139      0.116554   7 H  s               132     -0.103761   6 H  s         
   138      0.103859   7 H  s               145     -0.104039   8 H  s         
   126     -0.097184   5 H  s                98      0.093379   4 C  s         
 
 Vector   17  Occ=0.000000D+00  E= 2.687480D-02
              MO Center=  1.2D+00, -2.5D-02, -5.1D-01, r^2= 7.3D+00
   Bfn.  Coefficient  Atom+Function         Bfn.  Coefficient  Atom+Function  
  ----- ------------  ---------------      ----- ------------  ---------------
    98      4.525740   4 C  s               145     -1.538417   8 H  s         
   151     -1.505185   9 H  s               157     -1.357292  10 H  s         
   127     -1.285512   5 H  s                45      1.135880   2 C  pz        
   139     -0.906725   7 H  s                67      0.770214   3 C  s         
   133     -0.657159   6 H  s                74     -0.335019   3 C  px        
 
 Vector   18  Occ=0.000000D+00  E= 4.327364D-02
              MO Center= -1.4D-01,  6.5D-01,  9.6D-02, r^2= 4.5D+00
   Bfn.  Coefficient  Atom+Function         Bfn.  Coefficient  Atom+Function  
  ----- ------------  ---------------      ----- ------------  ---------------
    98      2.279693   4 C  s                36     -1.989787   2 C  s         
     5      1.274529   1 O  s                74      0.938929   3 C  px        
   151     -0.845632   9 H  s                45      0.529991   2 C  pz        
    67      0.525077   3 C  s               157     -0.495777  10 H  s         
    13      0.435874   1 O  py               44     -0.430477   2 C  py        
 
 Vector   19  Occ=0.000000D+00  E= 5.064741D-02
              MO Center=  3.9D-01,  4.4D-01, -9.6D-02, r^2= 6.6D+00
   Bfn.  Coefficient  Atom+Function         Bfn.  Coefficient  Atom+Function  
  ----- ------------  ---------------      ----- ------------  ---------------
    36      2.787899   2 C  s                67     -2.549265   3 C  s         
   127     -1.903523   5 H  s               139      1.636878   7 H  s         
   157      0.905098  10 H  s                98     -0.725395   4 C  s         
    76      0.561972   3 C  pz               45      0.538163   2 C  pz        
    43      0.481388   2 C  px                5      0.474629   1 O  s         
 
 Vector   20  Occ=0.000000D+00  E= 5.174477D-02
              MO Center=  5.8D-01,  5.9D-01,  3.6D-01, r^2= 7.8D+00
   Bfn.  Coefficient  Atom+Function         Bfn.  Coefficient  Atom+Function  
  ----- ------------  ---------------      ----- ------------  ---------------
    98      3.712483   4 C  s                67     -2.880173   3 C  s         
   133      1.873039   6 H  s               145     -1.273069   8 H  s         
    44      1.112723   2 C  py              157     -1.105178  10 H  s         
   127      0.966459   5 H  s               151     -0.868622   9 H  s         
    36     -0.742396   2 C  s                43     -0.621849   2 C  px        
 
 Vector   21  Occ=0.000000D+00  E= 6.540152D-02
              MO Center=  2.8D-01,  1.2D-01, -1.3D-01, r^2= 4.5D+00
   Bfn.  Coefficient  Atom+Function         Bfn.  Coefficient  Atom+Function  
  ----- ------------  ---------------      ----- ------------  ---------------
    98      1.240228   4 C  s               139      1.202423   7 H  s         
     5     -0.892697   1 O  s               151     -0.865347   9 H  s         
    43     -0.846784   2 C  px               67     -0.803268   3 C  s         
    75     -0.584931   3 C  py              133      0.510035   6 H  s         
    12     -0.490865   1 O  px              127     -0.396128   5 H  s         
 
 Vector   22  Occ=0.000000D+00  E= 8.784760D-02
              MO Center=  1.0D+00,  3.4D-01, -2.8D-01, r^2= 7.6D+00
   Bfn.  Coefficient  Atom+Function         Bfn.  Coefficient  Atom+Function  
  ----- ------------  ---------------      ----- ------------  ---------------
    36      3.389298   2 C  s               145      1.717948   8 H  s         
    67     -1.505601   3 C  s               133      1.443218   6 H  s         
   127     -1.402799   5 H  s                98     -1.391976   4 C  s         
   107     -1.258388   4 C  pz              157     -1.232005  10 H  s         
    75      0.829276   3 C  py               76     -0.831884   3 C  pz        
 
 Vector   23  Occ=0.000000D+00  E= 9.337282D-02
              MO Center=  1.4D+00, -7.0D-01, -7.5D-01, r^2= 6.1D+00
   Bfn.  Coefficient  Atom+Function         Bfn.  Coefficient  Atom+Function  
  ----- ------------  ---------------      ----- ------------  ---------------
   151      2.132278   9 H  s               145     -2.083309   8 H  s         
    36      2.002926   2 C  s               105      1.378025   4 C  px        
    98     -1.154939   4 C  s               106      1.125589   4 C  py        
   133      0.761983   6 H  s                67     -0.706584   3 C  s         
    44     -0.596767   2 C  py              127     -0.512203   5 H  s         
 
 Vector   24  Occ=0.000000D+00  E= 1.044732D-01
              MO Center=  4.6D-01,  2.9D-01, -1.2D+00, r^2= 6.6D+00
   Bfn.  Coefficient  Atom+Function         Bfn.  Coefficient  Atom+Function  
  ----- ------------  ---------------      ----- ------------  ---------------
   157      2.185835  10 H  s               151     -1.608694   9 H  s         
   106     -1.553575   4 C  py              133      1.472792   6 H  s         
   139     -1.381352   7 H  s                98     -1.254724   4 C  s         
    76     -1.089073   3 C  pz              105      0.984301   4 C  px        
    36      0.945220   2 C  s                45     -0.518660   2 C  pz        
 
 Vector   25  Occ=0.000000D+00  E= 1.392958D-01
              MO Center=  7.9D-01,  2.0D-01, -4.3D-01, r^2= 7.8D+00
   Bfn.  Coefficient  Atom+Function         Bfn.  Coefficient  Atom+Function  
  ----- ------------  ---------------      ----- ------------  ---------------
    36      4.627794   2 C  s                45     -3.386963   2 C  pz        
    98     -3.384142   4 C  s                67     -2.812446   3 C  s         
   127      2.725820   5 H  s                76      2.164559   3 C  pz        
   105      2.105014   4 C  px              133     -1.786220   6 H  s         
   139      1.689004   7 H  s               107     -1.530873   4 C  pz        
 
 Vector   26  Occ=0.000000D+00  E= 1.706060D-01
              MO Center=  4.6D-01,  5.2D-01, -1.4D-01, r^2= 7.3D+00
   Bfn.  Coefficient  Atom+Function         Bfn.  Coefficient  Atom+Function  
  ----- ------------  ---------------      ----- ------------  ---------------
    75      2.291243   3 C  py              107      1.644123   4 C  pz        
    67     -1.549884   3 C  s                36      1.520728   2 C  s         
   139     -1.195517   7 H  s               157      1.151766  10 H  s         
    74     -0.974705   3 C  px               44      0.741618   2 C  py        
   106     -0.636014   4 C  py               43     -0.594787   2 C  px        
 
 Vector   27  Occ=0.000000D+00  E= 1.970812D-01
              MO Center=  8.0D-01, -9.3D-02, -9.9D-01, r^2= 5.1D+00
   Bfn.  Coefficient  Atom+Function         Bfn.  Coefficient  Atom+Function  
  ----- ------------  ---------------      ----- ------------  ---------------
    67      3.024499   3 C  s                44     -2.559252   2 C  py        
   106      1.992380   4 C  py               36     -1.808436   2 C  s         
    43      0.938752   2 C  px              105      0.783313   4 C  px        
    74      0.724666   3 C  px               45     -0.687718   2 C  pz        
   145     -0.662746   8 H  s               150      0.654042   9 H  s         
 
 Vector   28  Occ=0.000000D+00  E= 2.016736D-01
              MO Center=  9.6D-01, -4.3D-01, -7.0D-01, r^2= 6.7D+00
   Bfn.  Coefficient  Atom+Function         Bfn.  Coefficient  Atom+Function  
  ----- ------------  ---------------      ----- ------------  ---------------
    36      2.513387   2 C  s                75      1.683347   3 C  py        
   105     -1.422117   4 C  px              133     -1.243231   6 H  s         
   107     -0.900157   4 C  pz              106      0.880312   4 C  py        
   139     -0.768407   7 H  s               156     -0.735101  10 H  s         
    45      0.725680   2 C  pz               76      0.671732   3 C  pz        
 
 Vector   29  Occ=0.000000D+00  E= 2.367174D-01
              MO Center= -3.1D-01,  4.0D-01, -4.8D-02, r^2= 5.4D+00
   Bfn.  Coefficient  Atom+Function         Bfn.  Coefficient  Atom+Function  
  ----- ------------  ---------------      ----- ------------  ---------------
    67      4.482442   3 C  s                36     -3.066005   2 C  s         
   139     -1.530691   7 H  s                66     -1.451392   3 C  s         
   133     -1.237182   6 H  s                98      1.226152   4 C  s         
   107      1.009235   4 C  pz               74     -0.807484   3 C  px        
     5     -0.770804   1 O  s               106      0.766069   4 C  py        
 
 Vector   30  Occ=0.000000D+00  E= 2.477538D-01
              MO Center=  5.6D-01,  1.2D-02, -8.9D-02, r^2= 5.8D+00
   Bfn.  Coefficient  Atom+Function         Bfn.  Coefficient  Atom+Function  
  ----- ------------  ---------------      ----- ------------  ---------------
    67      6.024239   3 C  s                43      4.201559   2 C  px        
    75     -3.014589   3 C  py               44     -2.642229   2 C  py        
    36     -2.276276   2 C  s               107     -2.053760   4 C  pz        
   157     -1.907313  10 H  s                45     -1.472355   2 C  pz        
   105     -1.229193   4 C  px               98     -1.207606   4 C  s         
 
 Vector   31  Occ=0.000000D+00  E= 2.692357D-01
              MO Center=  2.4D-01, -1.8D-01,  2.6D-01, r^2= 5.6D+00
   Bfn.  Coefficient  Atom+Function         Bfn.  Coefficient  Atom+Function  
  ----- ------------  ---------------      ----- ------------  ---------------
    36      4.444271   2 C  s                 5     -2.297053   1 O  s         
    67      2.172973   3 C  s                43     -1.586582   2 C  px        
   105      1.545568   4 C  px               66     -1.157873   3 C  s         
    98     -1.083155   4 C  s               133     -0.915519   6 H  s         
   139     -0.895570   7 H  s               127     -0.851865   5 H  s         
 
 Vector   32  Occ=0.000000D+00  E= 2.781847D-01
              MO Center=  4.4D-01,  3.6D-01,  3.0D-01, r^2= 4.2D+00
   Bfn.  Coefficient  Atom+Function         Bfn.  Coefficient  Atom+Function  
  ----- ------------  ---------------      ----- ------------  ---------------
    36      2.334042   2 C  s                67     -1.737108   3 C  s         
     5     -1.632012   1 O  s                43     -1.177125   2 C  px        
    74     -0.737229   3 C  px               98     -0.668007   4 C  s         
    45     -0.631840   2 C  pz              145      0.633744   8 H  s         
     4      0.486107   1 O  s                66      0.456120   3 C  s         
 
 Vector   33  Occ=0.000000D+00  E= 3.011727D-01
              MO Center=  4.4D-01,  3.7D-01, -3.9D-01, r^2= 5.0D+00
   Bfn.  Coefficient  Atom+Function         Bfn.  Coefficient  Atom+Function  
  ----- ------------  ---------------      ----- ------------  ---------------
    43      1.889230   2 C  px              106      1.747557   4 C  py        
    98     -1.693120   4 C  s               151      1.695474   9 H  s         
    76      1.351969   3 C  pz               44     -1.241268   2 C  py        
    36     -1.201297   2 C  s               107     -1.046389   4 C  pz        
    66      1.036452   3 C  s               139      0.951732   7 H  s         
 
 Vector   34  Occ=0.000000D+00  E= 3.378409D-01
              MO Center=  1.2D-01,  4.2D-01, -4.3D-01, r^2= 5.8D+00
   Bfn.  Coefficient  Atom+Function         Bfn.  Coefficient  Atom+Function  
  ----- ------------  ---------------      ----- ------------  ---------------
    67      4.549547   3 C  s                76     -3.935961   3 C  pz        
   139     -3.144238   7 H  s                36     -2.297750   2 C  s         
   133      1.981923   6 H  s                98      1.917422   4 C  s         
   157     -1.878038  10 H  s               107     -1.804643   4 C  pz        
    43      1.356025   2 C  px               44     -1.106837   2 C  py        
 
 Vector   35  Occ=0.000000D+00  E= 3.638307D-01
              MO Center=  6.6D-01,  4.7D-02, -1.9D-01, r^2= 6.7D+00
   Bfn.  Coefficient  Atom+Function         Bfn.  Coefficient  Atom+Function  
  ----- ------------  ---------------      ----- ------------  ---------------
    98      7.056042   4 C  s                76      3.468968   3 C  pz        
   145     -3.132551   8 H  s                97     -2.915772   4 C  s         
   133     -2.420638   6 H  s                36      2.190465   2 C  s         
    67     -1.932799   3 C  s               139      1.864973   7 H  s         
   151     -1.809580   9 H  s                44      1.676619   2 C  py        
 
 Vector   36  Occ=0.000000D+00  E= 3.725826D-01
              MO Center=  5.5D-01,  2.2D-01, -7.5D-02, r^2= 6.5D+00
   Bfn.  Coefficient  Atom+Function         Bfn.  Coefficient  Atom+Function  
  ----- ------------  ---------------      ----- ------------  ---------------
    36     12.650107   2 C  s                98     -9.212245   4 C  s         
    67     -8.336688   3 C  s               127     -3.239341   5 H  s         
    97      2.626110   4 C  s               157      2.345105  10 H  s         
    35     -1.847960   2 C  s               151      1.841831   9 H  s         
    44      1.810548   2 C  py               74     -1.586264   3 C  px        
 
 Vector   37  Occ=0.000000D+00  E= 3.859844D-01
              MO Center=  9.0D-01, -3.5D-01, -1.1D-01, r^2= 6.0D+00
   Bfn.  Coefficient  Atom+Function         Bfn.  Coefficient  Atom+Function  
  ----- ------------  ---------------      ----- ------------  ---------------
    36      5.739946   2 C  s                98      4.559117   4 C  s         
   127     -4.117095   5 H  s                45      2.877853   2 C  pz        
   151     -2.319787   9 H  s                35     -2.231986   2 C  s         
   145     -2.139308   8 H  s                67     -2.123712   3 C  s         
    76     -1.886954   3 C  pz               43      1.605222   2 C  px        
 
 Vector   38  Occ=0.000000D+00  E= 3.962302D-01
              MO Center=  2.4D-01,  1.8D-01, -8.6D-02, r^2= 6.6D+00
   Bfn.  Coefficient  Atom+Function         Bfn.  Coefficient  Atom+Function  
  ----- ------------  ---------------      ----- ------------  ---------------
    98     12.938144   4 C  s                67     -6.330727   3 C  s         
    45      5.130204   2 C  pz               76     -2.897234   3 C  pz        
   157     -2.739290  10 H  s               133      2.574396   6 H  s         
    44      2.539405   2 C  py               43     -2.080339   2 C  px        
    97     -2.015986   4 C  s                75      1.893646   3 C  py        
 
 Vector   39  Occ=0.000000D+00  E= 4.020253D-01
              MO Center= -2.4D-01,  2.0D-01,  1.8D-01, r^2= 6.5D+00
   Bfn.  Coefficient  Atom+Function         Bfn.  Coefficient  Atom+Function  
  ----- ------------  ---------------      ----- ------------  ---------------
    36     12.408695   2 C  s                67    -12.306687   3 C  s         
    98     -5.312976   4 C  s                45     -5.274057   2 C  pz        
    44      3.880043   2 C  py              127      2.840319   5 H  s         
    66      2.705267   3 C  s               105      2.470373   4 C  px        
   139      2.450001   7 H  s                43     -2.427254   2 C  px        
 
 Vector   40  Occ=0.000000D+00  E= 4.202649D-01
              MO Center=  5.5D-01, -1.5D-01, -6.4D-01, r^2= 6.1D+00
   Bfn.  Coefficient  Atom+Function         Bfn.  Coefficient  Atom+Function  
  ----- ------------  ---------------      ----- ------------  ---------------
    98      7.211403   4 C  s                45      3.243214   2 C  pz        
    36     -2.572447   2 C  s               105     -2.435366   4 C  px        
   157     -2.202995  10 H  s               151     -1.973637   9 H  s         
   145      1.542669   8 H  s                97     -1.143827   4 C  s         
    67     -1.112959   3 C  s                44      0.975876   2 C  py        
 
 Vector   41  Occ=0.000000D+00  E= 4.296966D-01
              MO Center=  5.5D-01,  1.2D-01, -2.0D-01, r^2= 7.0D+00
   Bfn.  Coefficient  Atom+Function         Bfn.  Coefficient  Atom+Function  
  ----- ------------  ---------------      ----- ------------  ---------------
    36     10.371547   2 C  s                98     -6.192118   4 C  s         
    67     -4.570976   3 C  s               151      2.787410   9 H  s         
    44      2.722072   2 C  py               75      2.721440   3 C  py        
    45     -2.465688   2 C  pz               43     -1.940923   2 C  px        
   105      1.810177   4 C  px               35     -1.516320   2 C  s         
 
 Vector   42  Occ=0.000000D+00  E= 4.493440D-01
              MO Center=  2.8D-01, -2.3D-01, -2.8D-01, r^2= 6.2D+00
   Bfn.  Coefficient  Atom+Function         Bfn.  Coefficient  Atom+Function  
  ----- ------------  ---------------      ----- ------------  ---------------
    36      8.766708   2 C  s                98     -8.760996   4 C  s         
    45     -5.433649   2 C  pz              127      2.760713   5 H  s         
    76      2.619111   3 C  pz               67     -2.501494   3 C  s         
   106     -2.260313   4 C  py              157      2.074129  10 H  s         
   133     -1.972495   6 H  s                44      1.900686   2 C  py        
 
 Vector   43  Occ=0.000000D+00  E= 4.601950D-01
              MO Center=  4.6D-02,  8.7D-01, -4.7D-01, r^2= 5.0D+00
   Bfn.  Coefficient  Atom+Function         Bfn.  Coefficient  Atom+Function  
  ----- ------------  ---------------      ----- ------------  ---------------
   139      3.032862   7 H  s               157     -2.489492  10 H  s         
    75     -2.066498   3 C  py              107     -1.995736   4 C  pz        
    44     -1.549798   2 C  py               43      1.496280   2 C  px        
   138     -1.487571   7 H  s                36     -1.083302   2 C  s         
    45     -1.064310   2 C  pz               76      0.892988   3 C  pz        
 
 Vector   44  Occ=0.000000D+00  E= 4.720016D-01
              MO Center=  5.6D-01,  7.5D-02, -2.3D-01, r^2= 5.8D+00
   Bfn.  Coefficient  Atom+Function         Bfn.  Coefficient  Atom+Function  
  ----- ------------  ---------------      ----- ------------  ---------------
    98      6.059602   4 C  s                36     -5.258973   2 C  s         
    45      2.701728   2 C  pz              107      2.110542   4 C  pz        
   145     -1.984474   8 H  s                67      1.412746   3 C  s         
   133     -1.378577   6 H  s               157      1.355104  10 H  s         
    35      1.289988   2 C  s                43     -1.166653   2 C  px        
 
 Vector   45  Occ=0.000000D+00  E= 5.154405D-01
              MO Center=  7.5D-01, -3.7D-01, -8.5D-01, r^2= 4.9D+00
   Bfn.  Coefficient  Atom+Function         Bfn.  Coefficient  Atom+Function  
  ----- ------------  ---------------      ----- ------------  ---------------
    98      9.272576   4 C  s                36     -5.859197   2 C  s         
    45      3.642339   2 C  pz              107      2.601803   4 C  pz        
   144     -1.450483   8 H  s               106      1.266355   4 C  py        
    14     -1.173689   1 O  pz              156     -1.111254  10 H  s         
   127     -1.032764   5 H  s               150     -1.025481   9 H  s         
 
 Vector   46  Occ=0.000000D+00  E= 5.388658D-01
              MO Center=  2.6D-01, -4.3D-01, -6.0D-01, r^2= 4.4D+00
   Bfn.  Coefficient  Atom+Function         Bfn.  Coefficient  Atom+Function  
  ----- ------------  ---------------      ----- ------------  ---------------
    98     -8.152432   4 C  s                36      7.457293   2 C  s         
    45     -4.014665   2 C  pz               76      3.138131   3 C  pz        
   107     -1.760644   4 C  pz              133     -1.680455   6 H  s         
   105      1.568449   4 C  px              139      1.455395   7 H  s         
     5     -1.255221   1 O  s               150      1.105585   9 H  s         
 
 Vector   47  Occ=0.000000D+00  E= 6.579903D-01
              MO Center= -3.8D-01,  3.2D-02, -2.1D-02, r^2= 4.3D+00
   Bfn.  Coefficient  Atom+Function         Bfn.  Coefficient  Atom+Function  
  ----- ------------  ---------------      ----- ------------  ---------------
    36     11.719349   2 C  s                67     -9.020714   3 C  s         
    98     -4.190081   4 C  s                43     -2.609096   2 C  px        
    75      2.447892   3 C  py               13      2.234192   1 O  py        
    76      2.089248   3 C  pz              105      1.615295   4 C  px        
   139      1.526546   7 H  s                44      1.481575   2 C  py        
 
 Vector   48  Occ=0.000000D+00  E= 6.748659D-01
              MO Center= -2.8D-01,  3.5D-01,  1.2D-01, r^2= 3.9D+00
   Bfn.  Coefficient  Atom+Function         Bfn.  Coefficient  Atom+Function  
  ----- ------------  ---------------      ----- ------------  ---------------
    36      8.029956   2 C  s                67     -7.848382   3 C  s         
     5      2.995892   1 O  s                75      2.566765   3 C  py        
    98     -2.113165   4 C  s                13      2.099445   1 O  py        
    43     -1.231476   2 C  px               45     -1.217632   2 C  pz        
     4     -1.103649   1 O  s                44      0.962455   2 C  py        
 
 Vector   49  Occ=0.000000D+00  E= 7.085062D-01
              MO Center=  1.7D-01, -3.2D-01, -2.7D-01, r^2= 4.5D+00
   Bfn.  Coefficient  Atom+Function         Bfn.  Coefficient  Atom+Function  
  ----- ------------  ---------------      ----- ------------  ---------------
    67      9.426823   3 C  s                36     -7.229967   2 C  s         
    43      3.633365   2 C  px               44     -3.465982   2 C  py        
    75     -2.737074   3 C  py               98     -2.615036   4 C  s         
     5      2.233833   1 O  s                12      1.675362   1 O  px        
   106      1.664938   4 C  py               13     -1.304467   1 O  py        
 
 Vector   50  Occ=0.000000D+00  E= 7.620431D-01
              MO Center=  6.3D-01, -6.6D-03, -3.4D-01, r^2= 4.1D+00
   Bfn.  Coefficient  Atom+Function         Bfn.  Coefficient  Atom+Function  
  ----- ------------  ---------------      ----- ------------  ---------------
    45      2.435968   2 C  pz              127     -1.697983   5 H  s         
   105     -1.644808   4 C  px               43      1.469772   2 C  px        
     5     -1.460744   1 O  s                36      1.366253   2 C  s         
   144      1.343694   8 H  s               126     -1.332965   5 H  s         
    76     -1.046613   3 C  pz               66      0.990483   3 C  s         
 
 Vector   51  Occ=0.000000D+00  E= 7.944052D-01
              MO Center=  2.7D-01,  5.3D-02, -1.9D-01, r^2= 4.4D+00
   Bfn.  Coefficient  Atom+Function         Bfn.  Coefficient  Atom+Function  
  ----- ------------  ---------------      ----- ------------  ---------------
     5      4.102705   1 O  s                36     -2.755699   2 C  s         
    76     -2.510777   3 C  pz                4     -1.610834   1 O  s         
    45      1.524626   2 C  pz               12      1.360365   1 O  px        
   133      1.316773   6 H  s                43      1.231788   2 C  px        
    66     -1.063422   3 C  s                35     -1.041034   2 C  s         
 
 Vector   52  Occ=0.000000D+00  E= 8.324149D-01
              MO Center=  3.2D-01,  1.6D-01, -7.6D-03, r^2= 4.5D+00
   Bfn.  Coefficient  Atom+Function         Bfn.  Coefficient  Atom+Function  
  ----- ------------  ---------------      ----- ------------  ---------------
    36      6.751306   2 C  s                98     -4.185919   4 C  s         
     5     -3.986616   1 O  s                43     -2.613343   2 C  px        
   105      1.979301   4 C  px               45     -1.859592   2 C  pz        
    35     -1.843480   2 C  s                44      1.510158   2 C  py        
    66     -1.172558   3 C  s                97      1.068203   4 C  s         
 
 Vector   53  Occ=0.000000D+00  E= 8.546434D-01
              MO Center=  6.1D-01,  1.2D-01, -4.0D-01, r^2= 4.2D+00
   Bfn.  Coefficient  Atom+Function         Bfn.  Coefficient  Atom+Function  
  ----- ------------  ---------------      ----- ------------  ---------------
    98     -4.600690   4 C  s                36      4.571739   2 C  s         
    45     -4.520258   2 C  pz               76      2.018924   3 C  pz        
   127      1.771541   5 H  s               106     -1.557971   4 C  py        
    44      1.458385   2 C  py              105      1.331768   4 C  px        
   150     -1.299388   9 H  s               139      1.064509   7 H  s         
 
 Vector   54  Occ=0.000000D+00  E= 8.716423D-01
              MO Center=  1.9D-01, -4.7D-02, -1.3D-01, r^2= 4.2D+00
   Bfn.  Coefficient  Atom+Function         Bfn.  Coefficient  Atom+Function  
  ----- ------------  ---------------      ----- ------------  ---------------
     5      4.590170   1 O  s                36     -1.664025   2 C  s         
     4     -1.556904   1 O  s               138      1.416863   7 H  s         
    76      1.354769   3 C  pz               67     -1.229795   3 C  s         
    12      1.188945   1 O  px               66     -1.140929   3 C  s         
    98     -1.099309   4 C  s                43      0.859013   2 C  px        
 
 Vector   55  Occ=0.000000D+00  E= 9.199652D-01
              MO Center=  5.0D-01,  3.1D-01, -4.7D-01, r^2= 4.6D+00
   Bfn.  Coefficient  Atom+Function         Bfn.  Coefficient  Atom+Function  
  ----- ------------  ---------------      ----- ------------  ---------------
    35      4.944845   2 C  s                36     -1.693358   2 C  s         
    67      1.463307   3 C  s               132     -1.329115   6 H  s         
    72      1.278446   3 C  py               66     -1.239471   3 C  s         
   156     -1.210966  10 H  s                84      1.165747   3 C  d  0      
    41      1.142166   2 C  py               98     -1.093040   4 C  s         
 
 Vector   56  Occ=0.000000D+00  E= 9.609185D-01
              MO Center=  4.6D-01,  2.9D-01, -5.4D-01, r^2= 4.7D+00
   Bfn.  Coefficient  Atom+Function         Bfn.  Coefficient  Atom+Function  
  ----- ------------  ---------------      ----- ------------  ---------------
    35      4.158871   2 C  s                67      2.603559   3 C  s         
   138     -2.342820   7 H  s                76     -1.830146   3 C  pz        
    42     -1.738411   2 C  pz               83     -1.639480   3 C  d -1      
    36     -1.538804   2 C  s               115     -1.488575   4 C  d  0      
    98     -1.366949   4 C  s               132      1.357790   6 H  s         
 
 Vector   57  Occ=0.000000D+00  E= 9.922895D-01
              MO Center=  3.4D-01,  4.9D-01, -1.2D-01, r^2= 4.1D+00
   Bfn.  Coefficient  Atom+Function         Bfn.  Coefficient  Atom+Function  
  ----- ------------  ---------------      ----- ------------  ---------------
    36      7.390715   2 C  s                98     -4.892945   4 C  s         
    67     -3.856328   3 C  s                45     -3.728322   2 C  pz        
    43     -2.284838   2 C  px               44      2.114332   2 C  py        
    66     -1.642186   3 C  s               127      1.556237   5 H  s         
    75      1.436913   3 C  py              126      1.349217   5 H  s         
 
 Vector   58  Occ=0.000000D+00  E= 1.011686D+00
              MO Center=  3.9D-01,  5.3D-01, -6.1D-02, r^2= 4.3D+00
   Bfn.  Coefficient  Atom+Function         Bfn.  Coefficient  Atom+Function  
  ----- ------------  ---------------      ----- ------------  ---------------
    36      5.444816   2 C  s                67     -4.439450   3 C  s         
    45     -2.149048   2 C  pz               44      1.833536   2 C  py        
    98     -1.744542   4 C  s               156     -1.541257  10 H  s         
   144      1.463865   8 H  s                82      1.332873   3 C  d -2      
    43     -1.315811   2 C  px               74     -1.313420   3 C  px        
 
 Vector   59  Occ=0.000000D+00  E= 1.041503D+00
              MO Center=  7.0D-01, -1.6D-01, -4.6D-01, r^2= 4.2D+00
   Bfn.  Coefficient  Atom+Function         Bfn.  Coefficient  Atom+Function  
  ----- ------------  ---------------      ----- ------------  ---------------
    36      2.767033   2 C  s                35      2.724554   2 C  s         
    66     -2.342885   3 C  s               150      2.069468   9 H  s         
   144     -2.007730   8 H  s                 5     -1.901556   1 O  s         
   117      1.758580   4 C  d  2             41      1.535856   2 C  py        
    44      1.388302   2 C  py               67     -1.363362   3 C  s         
 
 Vector   60  Occ=0.000000D+00  E= 1.078876D+00
              MO Center=  6.7D-01,  2.0D-02, -6.6D-02, r^2= 4.1D+00
   Bfn.  Coefficient  Atom+Function         Bfn.  Coefficient  Atom+Function  
  ----- ------------  ---------------      ----- ------------  ---------------
    66     -4.028876   3 C  s                98      3.983294   4 C  s         
    45      3.720518   2 C  pz               97      3.680509   4 C  s         
    36     -3.223955   2 C  s                41      2.556562   2 C  py        
   104      2.516621   4 C  pz               42      2.338217   2 C  pz        
    72      2.331729   3 C  py               53     -2.210224   2 C  d  0      
 
 Vector   61  Occ=0.000000D+00  E= 1.105045D+00
              MO Center=  3.7D-01,  6.2D-02,  6.4D-02, r^2= 3.8D+00
   Bfn.  Coefficient  Atom+Function         Bfn.  Coefficient  Atom+Function  
  ----- ------------  ---------------      ----- ------------  ---------------
    36      7.674371   2 C  s                67     -5.311290   3 C  s         
    98     -3.030528   4 C  s                66      2.197535   3 C  s         
    45     -2.020383   2 C  pz              126     -1.992130   5 H  s         
   132      1.672684   6 H  s                72     -1.633899   3 C  py        
    41     -1.509573   2 C  py               53      1.478972   2 C  d  0      
 
 Vector   62  Occ=0.000000D+00  E= 1.147189D+00
              MO Center=  6.2D-01,  1.1D-02, -3.4D-02, r^2= 3.6D+00
   Bfn.  Coefficient  Atom+Function         Bfn.  Coefficient  Atom+Function  
  ----- ------------  ---------------      ----- ------------  ---------------
    67      5.150096   3 C  s                36     -3.923482   2 C  s         
    44     -2.385571   2 C  py              126      1.820865   5 H  s         
    97     -1.752150   4 C  s                54      1.577805   2 C  d  1      
    43      1.548197   2 C  px               55      1.479490   2 C  d  2      
    75     -1.428581   3 C  py               42     -1.418463   2 C  pz        
 
 Vector   63  Occ=0.000000D+00  E= 1.215156D+00
              MO Center=  5.5D-01,  2.0D-01, -1.4D-01, r^2= 3.8D+00
   Bfn.  Coefficient  Atom+Function         Bfn.  Coefficient  Atom+Function  
  ----- ------------  ---------------      ----- ------------  ---------------
    36      6.794882   2 C  s                66     -5.021776   3 C  s         
    67     -3.350427   3 C  s                97     -3.354086   4 C  s         
    35      3.139093   2 C  s                72      1.930781   3 C  py        
    51     -1.768308   2 C  d -2             52      1.684621   2 C  d -1      
   138      1.659773   7 H  s                41      1.510479   2 C  py        
 
 Vector   64  Occ=0.000000D+00  E= 1.349938D+00
              MO Center=  3.3D-01,  5.6D-01,  2.4D-01, r^2= 3.5D+00
   Bfn.  Coefficient  Atom+Function         Bfn.  Coefficient  Atom+Function  
  ----- ------------  ---------------      ----- ------------  ---------------
    66      4.759719   3 C  s                35      3.871186   2 C  s         
    67     -3.121762   3 C  s                36     -2.713824   2 C  s         
    65     -2.437682   3 C  s               132     -2.070096   6 H  s         
   133      1.451521   6 H  s                34     -1.426995   2 C  s         
    72      1.370654   3 C  py              139      1.090385   7 H  s         
 
 Vector   65  Occ=0.000000D+00  E= 1.416917D+00
              MO Center=  1.3D-01,  5.3D-01, -3.6D-02, r^2= 3.3D+00
   Bfn.  Coefficient  Atom+Function         Bfn.  Coefficient  Atom+Function  
  ----- ------------  ---------------      ----- ------------  ---------------
    36     -4.118025   2 C  s                66     -3.809826   3 C  s         
    35      3.770125   2 C  s                67      3.784656   3 C  s         
    73      2.345326   3 C  pz              138      2.247542   7 H  s         
   139     -2.210834   7 H  s               126     -1.749836   5 H  s         
    76     -1.719496   3 C  pz               34     -1.534713   2 C  s         
 
 Vector   66  Occ=0.000000D+00  E= 1.428361D+00
              MO Center=  1.2D+00, -5.0D-01, -1.2D+00, r^2= 3.4D+00
   Bfn.  Coefficient  Atom+Function         Bfn.  Coefficient  Atom+Function  
  ----- ------------  ---------------      ----- ------------  ---------------
    98     10.997568   4 C  s                97     -8.174780   4 C  s         
    96      3.163822   4 C  s                36     -2.998774   2 C  s         
   145     -2.598836   8 H  s               151     -2.499308   9 H  s         
   157     -2.272413  10 H  s               144      1.902849   8 H  s         
   150      1.813870   9 H  s               104      1.471888   4 C  pz        
 
 Vector   67  Occ=0.000000D+00  E= 1.444129D+00
              MO Center=  2.8D-01, -3.8D-02,  1.5D-01, r^2= 3.9D+00
   Bfn.  Coefficient  Atom+Function         Bfn.  Coefficient  Atom+Function  
  ----- ------------  ---------------      ----- ------------  ---------------
    98      4.440389   4 C  s                66      3.885066   3 C  s         
    35     -3.473811   2 C  s                45      2.559819   2 C  pz        
    67     -2.427977   3 C  s               127     -2.080161   5 H  s         
   133      2.059974   6 H  s                76     -2.020509   3 C  pz        
    97     -2.020981   4 C  s               132     -1.567696   6 H  s         
 
 Vector   68  Occ=0.000000D+00  E= 1.448638D+00
              MO Center=  2.1D-01,  1.4D-01, -1.6D-01, r^2= 3.1D+00
   Bfn.  Coefficient  Atom+Function         Bfn.  Coefficient  Atom+Function  
  ----- ------------  ---------------      ----- ------------  ---------------
    36      3.211872   2 C  s                98     -3.004279   4 C  s         
    66      2.471240   3 C  s                 5     -2.320784   1 O  s         
    67     -2.161928   3 C  s                97      1.700217   4 C  s         
    44      1.109435   2 C  py               45     -1.051888   2 C  pz        
    12     -0.920199   1 O  px               40     -0.923756   2 C  px        
 
 Vector   69  Occ=0.000000D+00  E= 1.478116D+00
              MO Center=  9.8D-01, -3.6D-01, -1.0D+00, r^2= 3.3D+00
   Bfn.  Coefficient  Atom+Function         Bfn.  Coefficient  Atom+Function  
  ----- ------------  ---------------      ----- ------------  ---------------
    36      2.960165   2 C  s               156     -2.902905  10 H  s         
   157      2.203425  10 H  s               102     -2.171664   4 C  px        
   103      1.836520   4 C  py              104     -1.823199   4 C  pz        
   126      1.723282   5 H  s                66     -1.481716   3 C  s         
   127     -1.356869   5 H  s               144      1.306070   8 H  s         
 
 Vector   70  Occ=0.000000D+00  E= 1.484272D+00
              MO Center=  1.1D+00, -3.7D-01, -1.1D+00, r^2= 3.0D+00
   Bfn.  Coefficient  Atom+Function         Bfn.  Coefficient  Atom+Function  
  ----- ------------  ---------------      ----- ------------  ---------------
    66      1.672846   3 C  s                67     -0.917333   3 C  s         
   133      0.871290   6 H  s                 5     -0.861475   1 O  s         
    71     -0.849286   3 C  px               97      0.826814   4 C  s         
   132     -0.806283   6 H  s                65     -0.760889   3 C  s         
   103      0.723463   4 C  py               98     -0.698185   4 C  s         
 
 Vector   71  Occ=0.000000D+00  E= 1.512650D+00
              MO Center=  3.0D-01,  1.5D-01, -3.3D-01, r^2= 3.9D+00
   Bfn.  Coefficient  Atom+Function         Bfn.  Coefficient  Atom+Function  
  ----- ------------  ---------------      ----- ------------  ---------------
    98      2.666670   4 C  s               144      1.915536   8 H  s         
   102     -1.554782   4 C  px              103     -1.481204   4 C  py        
   145     -1.385336   8 H  s                45      1.321004   2 C  pz        
    97     -1.220165   4 C  s                36     -1.091102   2 C  s         
   150     -1.056054   9 H  s                66      0.969689   3 C  s         
 
 Vector   72  Occ=0.000000D+00  E= 1.543702D+00
              MO Center=  3.8D-01,  4.4D-01, -2.1D-01, r^2= 4.7D+00
   Bfn.  Coefficient  Atom+Function         Bfn.  Coefficient  Atom+Function  
  ----- ------------  ---------------      ----- ------------  ---------------
    36      4.362420   2 C  s                35     -3.719882   2 C  s         
    98     -3.437973   4 C  s                97      2.937828   4 C  s         
    67     -2.560237   3 C  s                73      2.132184   3 C  pz        
   132     -1.758310   6 H  s               102     -1.523425   4 C  px        
   133      1.458967   6 H  s               150     -1.418213   9 H  s         
 
 Vector   73  Occ=0.000000D+00  E= 1.576577D+00
              MO Center=  4.9D-01, -4.8D-02, -6.9D-02, r^2= 3.2D+00
   Bfn.  Coefficient  Atom+Function         Bfn.  Coefficient  Atom+Function  
  ----- ------------  ---------------      ----- ------------  ---------------
    35      3.765765   2 C  s                36     -2.984464   2 C  s         
    40     -2.124650   2 C  px               97     -2.035187   4 C  s         
    67      1.987437   3 C  s               126      1.806808   5 H  s         
    72      1.686715   3 C  py               34     -1.521643   2 C  s         
    42     -1.481966   2 C  pz               45      1.361210   2 C  pz        
 
 Vector   74  Occ=0.000000D+00  E= 1.597447D+00
              MO Center=  3.3D-01,  4.1D-01, -1.4D-01, r^2= 3.4D+00
   Bfn.  Coefficient  Atom+Function         Bfn.  Coefficient  Atom+Function  
  ----- ------------  ---------------      ----- ------------  ---------------
    66     -5.277571   3 C  s                35      5.096120   2 C  s         
    36     -5.068851   2 C  s                67      3.870854   3 C  s         
    41      3.710147   2 C  py               71     -2.582167   3 C  px        
    72      2.340487   3 C  py               40     -1.992118   2 C  px        
    82      1.697715   3 C  d -2             98      1.598505   4 C  s         
 
 Vector   75  Occ=0.000000D+00  E= 1.642211D+00
              MO Center=  4.5D-01,  2.1D-01, -1.2D-02, r^2= 3.6D+00
   Bfn.  Coefficient  Atom+Function         Bfn.  Coefficient  Atom+Function  
  ----- ------------  ---------------      ----- ------------  ---------------
    66      2.745111   3 C  s                35      2.036833   2 C  s         
    98      2.044358   4 C  s                 5     -1.790856   1 O  s         
    97     -1.453616   4 C  s                67     -1.390864   3 C  s         
   144      1.187362   8 H  s               104     -1.090938   4 C  pz        
   150     -1.092527   9 H  s               103     -1.030349   4 C  py        
 
 Vector   76  Occ=0.000000D+00  E= 1.700313D+00
              MO Center=  3.0D-01,  4.4D-01, -3.0D-01, r^2= 4.0D+00
   Bfn.  Coefficient  Atom+Function         Bfn.  Coefficient  Atom+Function  
  ----- ------------  ---------------      ----- ------------  ---------------
    97      5.694637   4 C  s                35     -4.996595   2 C  s         
    42      3.152412   2 C  pz              104      3.140581   4 C  pz        
    72      2.557357   3 C  py                5      2.315877   1 O  s         
   138     -1.788088   7 H  s                34      1.581267   2 C  s         
   102     -1.583796   4 C  px               96     -1.491743   4 C  s         
 
 Vector   77  Occ=0.000000D+00  E= 1.703590D+00
              MO Center=  1.9D-01, -3.1D-02, -1.6D-01, r^2= 3.5D+00
   Bfn.  Coefficient  Atom+Function         Bfn.  Coefficient  Atom+Function  
  ----- ------------  ---------------      ----- ------------  ---------------
     5      3.222989   1 O  s                66     -2.465904   3 C  s         
    72      2.460528   3 C  py               36     -2.186706   2 C  s         
    35      1.406938   2 C  s                12      1.274042   1 O  px        
   138     -1.273269   7 H  s                41      1.172323   2 C  py        
    67      1.149370   3 C  s                43      0.991390   2 C  px        
 
 Vector   78  Occ=0.000000D+00  E= 1.792033D+00
              MO Center=  3.8D-01,  2.6D-01,  5.0D-03, r^2= 3.5D+00
   Bfn.  Coefficient  Atom+Function         Bfn.  Coefficient  Atom+Function  
  ----- ------------  ---------------      ----- ------------  ---------------
    35      3.356319   2 C  s                97     -2.849333   4 C  s         
    36      1.698740   2 C  s                45     -1.284825   2 C  pz        
   104     -1.228353   4 C  pz               67     -1.078098   3 C  s         
    42     -1.070995   2 C  pz               72      1.049871   3 C  py        
   102      1.004749   4 C  px                5     -0.973916   1 O  s         
 
 Vector   79  Occ=0.000000D+00  E= 1.816056D+00
              MO Center= -6.2D-01,  1.9D-01,  1.9D-01, r^2= 2.6D+00
   Bfn.  Coefficient  Atom+Function         Bfn.  Coefficient  Atom+Function  
  ----- ------------  ---------------      ----- ------------  ---------------
    35      4.024277   2 C  s                 5     -3.264490   1 O  s         
    40     -2.437522   2 C  px               41      2.155471   2 C  py        
    72      1.976168   3 C  py               66     -1.818337   3 C  s         
    71     -1.696967   3 C  px               12     -1.364890   1 O  px        
   132     -1.043612   6 H  s                67      1.019470   3 C  s         
 
 Vector   80  Occ=0.000000D+00  E= 1.842031D+00
              MO Center=  7.9D-02,  2.7D-01, -7.0D-02, r^2= 3.7D+00
   Bfn.  Coefficient  Atom+Function         Bfn.  Coefficient  Atom+Function  
  ----- ------------  ---------------      ----- ------------  ---------------
    35      1.531921   2 C  s                36     -1.113907   2 C  s         
   156     -1.003910  10 H  s               104     -0.841921   4 C  pz        
    41     -0.806573   2 C  py               66      0.797380   3 C  s         
   157      0.688891  10 H  s                97     -0.666090   4 C  s         
   150      0.656185   9 H  s               126     -0.645654   5 H  s         
 
 Vector   81  Occ=0.000000D+00  E= 1.872386D+00
              MO Center=  5.5D-01,  1.5D-01, -4.5D-01, r^2= 4.0D+00
   Bfn.  Coefficient  Atom+Function         Bfn.  Coefficient  Atom+Function  
  ----- ------------  ---------------      ----- ------------  ---------------
    35      6.669056   2 C  s                66     -4.295873   3 C  s         
    97     -3.464655   4 C  s                72      3.408360   3 C  py        
    36      2.172574   2 C  s               104     -1.967594   4 C  pz        
    34     -1.663619   2 C  s                67     -1.566455   3 C  s         
    41      1.454749   2 C  py               45     -1.381696   2 C  pz        
 
 Vector   82  Occ=0.000000D+00  E= 1.923821D+00
              MO Center=  3.1D-01, -1.5D-01, -3.1D-01, r^2= 3.2D+00
   Bfn.  Coefficient  Atom+Function         Bfn.  Coefficient  Atom+Function  
  ----- ------------  ---------------      ----- ------------  ---------------
    36      1.576396   2 C  s                98     -1.458595   4 C  s         
    45     -1.313097   2 C  pz               97     -1.316816   4 C  s         
   103     -1.254130   4 C  py               35      1.168384   2 C  s         
    42     -0.844246   2 C  pz               66     -0.845998   3 C  s         
   150     -0.794687   9 H  s               104     -0.721231   4 C  pz        
 
 Vector   83  Occ=0.000000D+00  E= 1.990429D+00
              MO Center=  7.8D-01, -1.9D-01, -3.0D-01, r^2= 3.4D+00
   Bfn.  Coefficient  Atom+Function         Bfn.  Coefficient  Atom+Function  
  ----- ------------  ---------------      ----- ------------  ---------------
    98      3.299969   4 C  s                35      3.094944   2 C  s         
    66     -2.619244   3 C  s                40     -2.314153   2 C  px        
    72      1.886597   3 C  py               41      1.711214   2 C  py        
    43     -1.543323   2 C  px               67     -1.413917   3 C  s         
    71     -1.395795   3 C  px               36     -1.223434   2 C  s         
 
 Vector   84  Occ=0.000000D+00  E= 1.995152D+00
              MO Center=  6.8D-01, -1.4D-01, -8.3D-01, r^2= 3.4D+00
   Bfn.  Coefficient  Atom+Function         Bfn.  Coefficient  Atom+Function  
  ----- ------------  ---------------      ----- ------------  ---------------
    36      4.486348   2 C  s                98     -4.234871   4 C  s         
    45     -2.107605   2 C  pz               35     -1.947255   2 C  s         
    67     -1.408624   3 C  s               156      1.247250  10 H  s         
   107     -1.131860   4 C  pz              104      0.943344   4 C  pz        
    34      0.809561   2 C  s               150      0.787170   9 H  s         
 
 Vector   85  Occ=0.000000D+00  E= 2.089465D+00
              MO Center= -7.3D-02,  1.6D-01,  1.4D-02, r^2= 3.4D+00
   Bfn.  Coefficient  Atom+Function         Bfn.  Coefficient  Atom+Function  
  ----- ------------  ---------------      ----- ------------  ---------------
    36      3.239752   2 C  s                98     -2.263518   4 C  s         
    67     -1.445685   3 C  s                35     -0.970202   2 C  s         
   138     -0.752214   7 H  s               156      0.712818  10 H  s         
    13      0.647919   1 O  py              144      0.648898   8 H  s         
    40     -0.604165   2 C  px               45     -0.558528   2 C  pz        
 
 Vector   86  Occ=0.000000D+00  E= 2.100096D+00
              MO Center= -3.4D-01,  7.2D-02,  4.9D-02, r^2= 3.0D+00
   Bfn.  Coefficient  Atom+Function         Bfn.  Coefficient  Atom+Function  
  ----- ------------  ---------------      ----- ------------  ---------------
    67     -5.460269   3 C  s                36      5.280486   2 C  s         
    66      3.305080   3 C  s                35     -3.264564   2 C  s         
    41     -3.087514   2 C  py               71      2.704804   3 C  px        
    13      1.779531   1 O  py               82     -1.441802   3 C  d -2      
    75      1.319755   3 C  py               43     -1.313059   2 C  px        
 
 Vector   87  Occ=0.000000D+00  E= 2.166263D+00
              MO Center=  5.0D-01, -4.5D-02, -4.8D-01, r^2= 3.2D+00
   Bfn.  Coefficient  Atom+Function         Bfn.  Coefficient  Atom+Function  
  ----- ------------  ---------------      ----- ------------  ---------------
    98      2.067303   4 C  s                67     -1.798519   3 C  s         
    35     -1.248498   2 C  s                73      1.010504   3 C  pz        
    40      0.902424   2 C  px               36      0.861617   2 C  s         
   156     -0.824650  10 H  s                44      0.807759   2 C  py        
    43     -0.783586   2 C  px               42     -0.766444   2 C  pz        
 
 Vector   88  Occ=0.000000D+00  E= 2.198866D+00
              MO Center=  4.2D-01,  2.1D-01, -2.7D-01, r^2= 3.7D+00
   Bfn.  Coefficient  Atom+Function         Bfn.  Coefficient  Atom+Function  
  ----- ------------  ---------------      ----- ------------  ---------------
    98      2.192985   4 C  s                36     -1.317108   2 C  s         
    45      1.057242   2 C  pz               76     -0.922509   3 C  pz        
   132      0.809054   6 H  s                42     -0.723607   2 C  pz        
   117     -0.663451   4 C  d  2            103     -0.659349   4 C  py        
    97     -0.597428   4 C  s               138     -0.587116   7 H  s         
 
 Vector   89  Occ=0.000000D+00  E= 2.234866D+00
              MO Center=  4.7D-01,  1.4D-01,  1.3D-01, r^2= 3.3D+00
   Bfn.  Coefficient  Atom+Function         Bfn.  Coefficient  Atom+Function  
  ----- ------------  ---------------      ----- ------------  ---------------
    36      3.024199   2 C  s                67     -1.725334   3 C  s         
    66      1.429785   3 C  s                72     -1.299011   3 C  py        
     5     -1.225285   1 O  s                42     -1.140389   2 C  pz        
    35     -1.076157   2 C  s                98     -1.016571   4 C  s         
    51      0.813083   2 C  d -2            102      0.741154   4 C  px        
 
 Vector   90  Occ=0.000000D+00  E= 2.258271D+00
              MO Center=  8.5D-01, -3.2D-01, -8.9D-01, r^2= 3.3D+00
   Bfn.  Coefficient  Atom+Function         Bfn.  Coefficient  Atom+Function  
  ----- ------------  ---------------      ----- ------------  ---------------
    36      1.780499   2 C  s               150      1.360174   9 H  s         
    98     -1.270208   4 C  s                67     -0.958454   3 C  s         
    66     -0.773369   3 C  s               144     -0.737285   8 H  s         
   117      0.681911   4 C  d  2             45     -0.622071   2 C  pz        
    72      0.583894   3 C  py              149     -0.562047   9 H  s         
 
 Vector   91  Occ=0.000000D+00  E= 2.271982D+00
              MO Center=  6.9D-01,  2.0D-04, -8.3D-01, r^2= 3.4D+00
   Bfn.  Coefficient  Atom+Function         Bfn.  Coefficient  Atom+Function  
  ----- ------------  ---------------      ----- ------------  ---------------
    98     -2.396847   4 C  s                36      2.201487   2 C  s         
    66      1.117411   3 C  s                76      1.112296   3 C  pz        
    67     -1.028540   3 C  s                41     -0.939759   2 C  py        
   156      0.841090  10 H  s                45     -0.779901   2 C  pz        
   117     -0.614361   4 C  d  2            139      0.615026   7 H  s         
 
 Vector   92  Occ=0.000000D+00  E= 2.292409D+00
              MO Center=  7.9D-01, -1.8D-01, -5.3D-01, r^2= 3.6D+00
   Bfn.  Coefficient  Atom+Function         Bfn.  Coefficient  Atom+Function  
  ----- ------------  ---------------      ----- ------------  ---------------
    66      2.966738   3 C  s                98      2.963545   4 C  s         
[...]
    21     -0.871613   1 O  d -1             42     -0.805997   2 C  pz        
    97     -0.714792   4 C  s                45     -0.699528   2 C  pz        
    98     -0.523255   4 C  s                 5     -0.514312   1 O  s         
    67     -0.507037   3 C  s               102      0.497992   4 C  px        
 
 Vector  154  Occ=0.000000D+00  E= 6.676826D+00
              MO Center= -8.7D-01, -1.8D-01,  2.0D-01, r^2= 5.7D-01
   Bfn.  Coefficient  Atom+Function         Bfn.  Coefficient  Atom+Function  
  ----- ------------  ---------------      ----- ------------  ---------------
    18      1.062054   1 O  d  1             23     -1.036459   1 O  d  1      
    97     -0.845987   4 C  s                42     -0.778813   2 C  pz        
    35      0.757036   2 C  s               102      0.652097   4 C  px        
    54     -0.545183   2 C  d  1             14      0.405522   1 O  pz        
    16     -0.393208   1 O  d -1             11      0.388640   1 O  pz        
 
 Vector  155  Occ=0.000000D+00  E= 6.842340D+00
              MO Center= -8.8D-01, -1.9D-01,  2.0D-01, r^2= 5.9D-01
   Bfn.  Coefficient  Atom+Function         Bfn.  Coefficient  Atom+Function  
  ----- ------------  ---------------      ----- ------------  ---------------
     5      2.111789   1 O  s                40      1.768800   2 C  px        
     9      1.361792   1 O  px               97     -1.278000   4 C  s         
     4      1.205276   1 O  s                20      1.048608   1 O  d -2      
    42     -0.971082   2 C  pz               35     -0.853315   2 C  s         
    12      0.846981   1 O  px               15     -0.833677   1 O  d -2      
 
 Vector  156  Occ=0.000000D+00  E= 7.055840D+00
              MO Center= -8.9D-01, -1.9D-01,  2.0D-01, r^2= 6.4D-01
   Bfn.  Coefficient  Atom+Function         Bfn.  Coefficient  Atom+Function  
  ----- ------------  ---------------      ----- ------------  ---------------
    66     -3.177769   3 C  s                35      3.033560   2 C  s         
    40     -2.723971   2 C  px               72      2.692256   3 C  py        
    24     -1.578881   1 O  d  2             36      1.446736   2 C  s         
    10      1.283593   1 O  py               67     -1.285057   3 C  s         
    19      1.016707   1 O  d  2             13      0.866276   1 O  py        
 
 Vector  157  Occ=0.000000D+00  E= 2.194524D+01
              MO Center= -1.1D-01,  9.9D-01,  2.9D-01, r^2= 4.7D-01
   Bfn.  Coefficient  Atom+Function         Bfn.  Coefficient  Atom+Function  
  ----- ------------  ---------------      ----- ------------  ---------------
    64      1.701190   3 C  s                65     -1.486334   3 C  s         
    63     -1.339716   3 C  s                67     -1.090558   3 C  s         
    98      0.630975   4 C  s                34     -0.543785   2 C  s         
    35      0.523466   2 C  s                40     -0.390953   2 C  px        
    33      0.379565   2 C  s               138      0.377076   7 H  s         
 
 Vector  158  Occ=0.000000D+00  E= 2.202711D+01
              MO Center=  9.0D-01, -3.5D-01, -6.0D-01, r^2= 7.9D-01
   Bfn.  Coefficient  Atom+Function         Bfn.  Coefficient  Atom+Function  
  ----- ------------  ---------------      ----- ------------  ---------------
    36      1.512338   2 C  s                95     -1.304757   4 C  s         
    34      1.249671   2 C  s                33     -1.208161   2 C  s         
    67     -1.208504   3 C  s                96      1.185747   4 C  s         
    94      1.023829   4 C  s                32      0.945267   2 C  s         
    98      0.909917   4 C  s                35     -0.647557   2 C  s         
 
 Vector  159  Occ=0.000000D+00  E= 2.212104D+01
              MO Center=  7.9D-01, -2.3D-01, -4.4D-01, r^2= 9.6D-01
   Bfn.  Coefficient  Atom+Function         Bfn.  Coefficient  Atom+Function  
  ----- ------------  ---------------      ----- ------------  ---------------
    36      1.820049   2 C  s                98     -1.615534   4 C  s         
    33     -1.252949   2 C  s                34      1.231927   2 C  s         
    35     -1.236232   2 C  s                95      1.167905   4 C  s         
    96     -1.056089   4 C  s                32      0.981467   2 C  s         
    94     -0.916508   4 C  s                67     -0.800346   3 C  s         
 
 Vector  160  Occ=0.000000D+00  E= 4.341429D+01
              MO Center= -8.8D-01, -1.8D-01,  2.0D-01, r^2= 1.2D-01
   Bfn.  Coefficient  Atom+Function         Bfn.  Coefficient  Atom+Function  
  ----- ------------  ---------------      ----- ------------  ---------------
     4      2.506142   1 O  s                 3     -1.874269   1 O  s         
     2      1.731512   1 O  s                 1     -1.395838   1 O  s         
     5     -0.878364   1 O  s                36      0.830793   2 C  s         
     9      0.561432   1 O  px               66     -0.514395   3 C  s         
    40      0.464265   2 C  px               72      0.456210   3 C  py        
 

 center of mass
 --------------
 x =   0.30619328 y =   0.09486521 z =  -0.27792438

 moments of inertia (a.u.)
 ------------------
         199.810326617301          45.690140030767          83.814182009458
          45.690140030767         247.759302415806         -52.654495477993
          83.814182009458         -52.654495477993         238.567147263015
 
     Multipole analysis of the density
     ---------------------------------
 
     L   x y z        total         alpha         beta         nuclear
     -   - - -        -----         -----         ----         -------
     0   0 0 0     -0.000000    -16.000000    -16.000000     32.000000
 
     1   1 0 0      0.695673     -6.216338     -6.216338     13.128350
     1   0 1 0      0.322837     -1.623412     -1.623412      3.569662
     1   0 0 1     -0.063151      5.312587      5.312587    -10.688326
 
     2   2 0 0    -19.980918    -54.216528    -54.216528     88.452138
     2   1 1 0     -1.118585     13.898495     13.898495    -28.915574
     2   1 0 1      0.130780     26.465486     26.465486    -52.800193
     2   0 2 0    -17.812071    -40.377800    -40.377800     62.943530
     2   0 1 1      0.258892    -15.392929    -15.392929     31.044750
     2   0 0 2    -18.153610    -45.668669    -45.668669     73.183728
 
 *** CALLING NEW AORESP DRIVER FOR CLOSED AND OPEN SHELLS ***
 Entering AOResponse driver routine


--------------------------------------------------------------------------------

          ****************
          *** RESPONSE ***
          ****************

 Response module for NWChem and dynamic CPKS solver
 developed by J. Autschbach and coworkers, SUNY Buffalo
 The methodology used in this program is described in 
 ChemPhysChem 12 (2011), 3224-3235 (main reference)
 J. Chem. Phys. 123 (2005), 114103
 J. Chem. Phys. 122 (2005), 224115
 J. Chem. Phys. 122 (2005), 074105
 Comp. Lett. 3 (2007), 131-150 (contact JA for a copy)
 Please cite this work in publications based on results
 obtained with this code. Thank you!

 For extension of response module to open shell
 calculations please acknowledge:
 F. Aquino, Northwestern University, Schatz Rsrch Group
 The update to the methodology is described in
 J. Phys. Chem. A 118 (2014) 517-525



          -----------------------------------------------
          Solving response equations for perturbing field
          -----------------------------------------------

 number of frequencies:     1
 frequency in a.u.:  0.9319600E-01
 Perturbing field: electric
 Using GIAO formalism for OptRot
 Adding quadrupole terms to OptRot
 to create an origin in dependent tensor.
 Using El. Dipole Length Gauge
 
 Applying DAMPING constant of  0.003700 a.u.
 
 Setting up CPKS
 with frequency omega =      0.09319600 a.u.
 and a damping of            0.00370000 a.u.

 
                            NWChem Dynamic CPHF Module
                            --------------------------
 
 
    scftype = RHF 
    nclosed =   16
      nopen =    0
  variables =     9216
  num. vecs =        3
  tolerance =   1.0D-07
  max. iter =  100

 SCF residual:   3.970873839352863E-006


Iterative solution of linear equations
  No. of variables     4608
  No. of equations        3
  Maximum subspace       99
       Convergence  1.0D-07
        Start time     94.2


   iter   nsub   residual    time 
   ----  ------  --------  --------- 
 dft_CPHF2_read: failed to open
 ./methyloxirane_blyp-def2-tzvp_488.9_43.inp.aoresp_fiao_f1
     1      3    3.79D+00     143.7
     2      6    2.46D+00     193.1
     3      9    2.40D-01     242.8
     4     12    4.80D-02     292.5
     5     15    1.07D-02     342.0
     6     18    1.33D-03     391.5
     7     21    1.46D-04     441.0
     8     24    1.38D-05     490.5
     9     27    1.19D-06     540.3
    10     30    4.87D-07     589.8
    11     33    1.24D-08     639.5

 Calculating some arrays needed for GIAO optical rotation

    0 giaofock schwarz done =      93.11%
    0 giaofock schwarz done =      95.50%
 aor_r1_tensor_giao: roadata output requested
 dip-quad polarizability Re:

              1        2        3        4        5        6      
    1   74.0746  -6.1640 -26.2205  -4.3281   1.2264   9.5033
    2  -12.1846  24.5620   3.3222  25.3447 -20.2666   3.8904
    3   -6.4507   1.0986  38.8505  -0.0196  14.1842 -39.2809
 traceless dip-quad polarizability:

              1        2        3      
    1   71.4870  -9.2460 -39.3307
    2   -9.2460 -46.1170   1.8397
    3  -39.3307   1.8397 -25.3700

              1        2        3      
    1  -26.8022  36.8430   4.9833
    2   36.8430  29.4919 -30.3999
    3    4.9833 -30.3999  -2.6897

              1        2        3      
    1   13.1996   1.6480  58.2758
    2    1.6480  22.8462  21.2764
    3   58.2758  21.2764 -36.0458

 roa begin

 alpha real:
 XX       0.4048263017489E+02
 XY      -0.5190243725581E+01
 XZ      -0.2961926343497E+01
 YX      -0.5190243735793E+01
 YY       0.4360453328717E+02
 YZ       0.3117725441822E+01
 ZX      -0.2961926353490E+01
 ZY       0.3117725443278E+01
 ZZ       0.4118531182084E+02

 alpha im:
 XX       0.1078555377744E+00
 XY      -0.2971886806461E-01
 XZ      -0.1032114974104E-01
 YX      -0.2971886317474E-01
 YY       0.1266932491559E+00
 YZ       0.1768400426373E-01
 ZX      -0.1032114674889E-01
 ZY       0.1768400660400E-01
 ZZ       0.1211336012180E+00

 beta real:
 XX      -0.1358268777991E+00
 XY       0.8771322937357E+00
 XZ       0.2351223913306E+00
 YX      -0.8233069205706E+00
 YY       0.1395136118477E+00
 YZ      -0.1487950934733E+01
 ZX      -0.5044415376576E+00
 ZY       0.1834034027521E+01
 ZZ      -0.4768760575555E-02

 G-prime = -omega beta(real):
 XX      -0.1358268777991E+00
 XY       0.8771322937357E+00
 XZ       0.2351223913306E+00
 YX      -0.8233069205706E+00
 YY       0.1395136118477E+00
 YZ      -0.1487950934733E+01
 ZX      -0.5044415376576E+00
 ZY       0.1834034027521E+01
 ZZ      -0.4768760575555E-02

 beta im:
 XX      -0.5797249228943E-02
 XY       0.1186643684858E-01
 XZ       0.3699628335843E-02
 YX      -0.5927002516272E-02
 YY       0.4527439163490E-02
 YZ      -0.2200714918232E-01
 ZX      -0.1410369586671E-01
 ZY       0.3941402526233E-01
 ZZ       0.6028103770433E-03

 G-prime = -omega beta(imag):
 XX      -0.5797249228943E-02
 XY       0.1186643684858E-01
 XZ       0.3699628335843E-02
 YX      -0.5927002516272E-02
 YY       0.4527439163490E-02
 YZ      -0.2200714918232E-01
 ZX      -0.1410369586671E-01
 ZY       0.3941402526233E-01
 ZZ       0.6028103770433E-03

 dipole-quadrupole real (Cartesian):
 XXX      0.7407458694979E+02
 XXY     -0.6163999920444E+01
 XXZ     -0.2622049175677E+02
 XYY     -0.4328058248692E+01
 XYZ      0.1226447041543E+01
 XZZ      0.9503257649560E+01
 YXX     -0.1218462908323E+02
 YXY      0.2456202810133E+02
 YXZ      0.3322181312153E+01
 YYY      0.2534474598688E+02
 YYZ     -0.2026661635787E+02
 YZZ      0.3890380031631E+01
 ZXX     -0.6450690039491E+01
 ZXY      0.1098641125260E+01
 ZXZ      0.3885053879911E+02
 ZYY     -0.1964653405748E-01
 ZYZ      0.1418424280104E+02
 ZZZ     -0.3928094305079E+02

 dipole-quadrupole imag (Cartesian):
 XXX      0.2517068814883E+00
 XXY     -0.3484903330286E-01
 XXZ     -0.6874140522261E-01
 XYY     -0.2721233212552E-01
 XYZ      0.2343752823381E-02
 XZZ      0.6283243401791E-01
 YXX     -0.5884341158498E-01
 YXY      0.5681842384796E-01
 YXZ      0.1848900801894E-01
 YYY      0.1036802362572E+00
 YYZ     -0.5353594354073E-01
 YZZ      0.8844559081774E-02
 ZXX     -0.3165420177707E-01
 ZXY     -0.3068342046978E-03
 ZXZ      0.1435485470709E+00
 ZYY      0.5631617202130E-02
 ZYZ      0.6775156524222E-01
 ZZZ     -0.8683234752048E-01

 dipole-quadrupole (traceless):
 XXX      0.7148698724935E+02
 XXY     -0.9245999880666E+01
 XXZ     -0.3933073763516E+02
 XYY     -0.4611698054837E+02
 XYZ      0.1839670562315E+01
 XZZ     -0.2537000670099E+02
 YXX     -0.2680219209248E+02
 YXY      0.3684304215200E+02
 YXZ      0.4983271968229E+01
 YYY      0.2949187051268E+02
 YYZ     -0.3039992453681E+02
 YZZ     -0.2689678420195E+01
 ZXX      0.1319960475293E+02
 ZXY      0.1647961687891E+01
 ZXZ      0.5827580819866E+02
 ZYY      0.2284617001108E+02
 ZYZ      0.2127636420156E+02
 ZZZ     -0.3604577476402E+02

 roa end


 Electric Dipole Response Matrix (nonzero elements):

              1        2        3      
    1   40.4826  -5.1902  -2.9619
    2   -5.1902  43.6045   3.1177
    3   -2.9619   3.1177  41.1853
 
 Imaginary part:

              1        2        3      
    1    0.1079  -0.0297  -0.0103
    2   -0.0297   0.1267   0.0177
    3   -0.0103   0.0177   0.1211

 ------------------------------------------
 average:        41.75749 + I       0.11856


 DFT Linear Response polarizability / au 
 Frequency  =       0.0931960 / au
 Wavelength =     488.8981609 / nm
              X              Y              Z
 -----------------------------------------------
 X      40.4826302     -5.1902437     -2.9619263
 Y      -5.1902437     43.6045333      3.1177254
 Z      -2.9619264      3.1177254     41.1853118
 -----------------------------------------------
 Eigenvalues =      36.5341958     49.6276420     39.1106374
 Isotropic   =      41.7574918
 Anisotropic =       9.8095832
 -----------------------------------------------
 *************************

 DFT Linear Response IMAG polarizability / au 
 Frequency  =       0.0931960 / au
 Wavelength =     488.8981609 / nm
              X              Y              Z
 -----------------------------------------------
 X       0.1078555     -0.0297189     -0.0103211
 Y      -0.0297189      0.1266932      0.0176840
 Z      -0.0103211      0.0176840      0.1211336
 -----------------------------------------------
 Eigenvalues =       0.0859416      0.1593271      0.1104137
 Isotropic   =       0.1185608
 Anisotropic =       0.0528420
 -----------------------------------------------
 *************************

 Magnetic Dipole Response Matrix (nonzero elements):
 Optical rotation tensor Beta
 (Buckingham-Dunn version including dipole-quadrupole terms)

              1        2        3      
    1    2.5692  -0.4081   0.3766
    2   -0.4081  -1.5609  -1.7424
    3    0.3766  -1.7424  -0.9967
 
 Imaginary part:

              1        2        3      
    1    0.0622  -0.1273  -0.0397
    2    0.0636  -0.0486   0.2361
    3    0.1513  -0.4229  -0.0065

 ------------------------------------------
 average:         0.00387 + I       0.00239

 Principal components and PAS (Real part)
                 -3.04474
                  2.70684
                  0.34951
 ------------------------
 average:         0.00387

              1        2        3      
    1    0.0121   0.9705  -0.2409
    2    0.7627  -0.1647  -0.6254
    3    0.6467   0.1762   0.7421

 Chiral response tensor (Real part):

              1        2        3      
    1   -1.2788   0.2040  -0.1883
    2    0.2040   0.7863   0.8712
    3   -0.1883   0.8712   0.5042
 
 Principal components and PAS (Real part)
                  1.52817
                 -1.34761
                 -0.16895
 ------------------------
 average:         0.00387

              1        2        3      
    1    0.0121   0.9705  -0.2409
    2    0.7627  -0.1647  -0.6254
    3    0.6467   0.1762   0.7421
 Exiting AOResponse driver routine

 Task  times  cpu:      617.8s     wall:      633.7s
 
 
                                NWChem Input Module
                                -------------------
 
 
 Summary of allocated global arrays
-----------------------------------
  No active global arrays



                         GA Statistics for process    0
                         ------------------------------

       create   destroy   get      put      acc     scatter   gather  read&inc
calls: 3294     3294     7.90e+06 3.14e+06 7.12e+05 2694        0     1189     
number of processes/call 1.01e+00 1.03e+00 1.42e+00 0.00e+00 0.00e+00
bytes total:             1.65e+09 1.26e+08 1.69e+09 1.84e+02 0.00e+00 9.51e+03
bytes remote:            6.71e+08 3.29e+07 9.42e+08 0.00e+00 0.00e+00 0.00e+00
Max memory consumed for GA by this process: 11242192 bytes
 
MA_summarize_allocated_blocks: starting scan ...
MA_summarize_allocated_blocks: scan completed: 0 heap blocks, 0 stack blocks
MA usage statistics:

	allocation statistics:
					      heap	     stack
					      ----	     -----
	current number of blocks	         0	         0
	maximum number of blocks	        24	        52
	current total bytes		         0	         0
	maximum total bytes		   7519856	  48998312
	maximum total K-bytes		      7520	     48999
	maximum total M-bytes		         8	        49
 
 
                                     CITATION
                                     --------
                Please cite the following reference when publishing
                           results obtained with NWChem:
 
                 M. Valiev, E.J. Bylaska, N. Govind, K. Kowalski,
              T.P. Straatsma, H.J.J. van Dam, D. Wang, J. Nieplocha,
                        E. Apra, T.L. Windus, W.A. de Jong
                 "NWChem: a comprehensive and scalable open-source
                  solution for large scale molecular simulations"
                      Comput. Phys. Commun. 181, 1477 (2010)
                           doi:10.1016/j.cpc.2010.04.018
 
                                      AUTHORS
                                      -------
          E. Apra, E. J. Bylaska, W. A. de Jong, N. Govind, K. Kowalski,
       T. P. Straatsma, M. Valiev, H. J. J. van Dam, D. Wang, T. L. Windus,
        J. Hammond, J. Autschbach, K. Bhaskaran-Nair, J. Brabec, K. Lopata,
    S. A. Fischer, S. Krishnamoorthy, M. Jacquelin, W. Ma, M. Klemm, O. Villa,
      Y. Chen, V. Anisimov, F. Aquino, S. Hirata, M. T. Hackler, V. Konjkov,
            D. Mejia-Rodriguez, T. Risthaus, M. Malagoli, A. Marenich,
   A. Otero-de-la-Roza, J. Mullin, P. Nichols, R. Peverati, J. Pittner, Y. Zhao,
        P.-D. Fan, A. Fonari, M. J. Williamson, R. J. Harrison, J. R. Rehr,
      M. Dupuis, D. Silverstein, D. M. A. Smith, J. Nieplocha, V. Tipparaju,
    M. Krishnan, B. E. Van Kuiken, A. Vazquez-Mayagoitia, L. Jensen, M. Swart,
      Q. Wu, T. Van Voorhis, A. A. Auer, M. Nooijen, L. D. Crosby, E. Brown,
      G. Cisneros, G. I. Fann, H. Fruchtl, J. Garza, K. Hirao, R. A. Kendall,
      J. A. Nichols, K. Tsemekhman, K. Wolinski, J. Anchell, D. E. Bernholdt,
      P. Borowski, T. Clark, D. Clerc, H. Dachsel, M. J. O. Deegan, K. Dyall,
    D. Elwood, E. Glendening, M. Gutowski, A. C. Hess, J. Jaffe, B. G. Johnson,
     J. Ju, R. Kobayashi, R. Kutteh, Z. Lin, R. Littlefield, X. Long, B. Meng,
      T. Nakajima, S. Niu, L. Pollack, M. Rosing, K. Glaesemann, G. Sandrone,
      M. Stave, H. Taylor, G. Thomas, J. H. van Lenthe, A. T. Wong, Z. Zhang.

 Total times  cpu:      690.9s     wall:      708.7s
