 argument  1 = methyloxirane_blyp-def2-tzvp_488.9_37.inp
 


============================== echo of input deck ==============================
echo
start methyloxirane_blyp-def2-tzvp_488.9_37.inp
title "methyloxirane roa calculations at 488.9 nm, input generated in va  with delta_type=2"
charge 0



geometry units angstrom nocenter noautoz noautosym nucleus point;symmetry c1
 O -0.877455 -0.179527  0.205862
 C  0.572199 -0.154205  0.122646
 C -0.183381  1.084876  0.339878
 C  1.185157 -0.521023 -1.212483
 H  1.040097 -0.599321  1.007334
 H -0.234110  1.531997  1.335812
 H -0.327487  1.776536 -0.494292
 H  2.240600 -0.213859 -1.245419
 H  1.143242 -1.606469 -1.375881
 H  0.653989 -0.026154 -2.035120
end

basis spherical
* library def2-TZVP
end

 set prop:newaoresp 1
 set aor:roadata T
 set cphf:maxsub 100
 set cphf:acc 1.0d-10
 set cphf:maxiter 100

property
    response 1   0.093196
    bdtensor
    convergence 1e-7
    damping 0.0037
    giao
end

dft
 direct
 mult 1
 xc becke88 lyp
 iterations 250
 tolerances tight
 grid xfine
 convergence nolevelshifting
 convergence energy 1e-8
 convergence gradient 1e-7


end

task dft gradient
task dft property
================================================================================


                                         
                                         
 
 
              Northwest Computational Chemistry Package (NWChem) 6.8
              ------------------------------------------------------
 
 
                    Environmental Molecular Sciences Laboratory
                       Pacific Northwest National Laboratory
                                Richland, WA 99352
 
                              Copyright (c) 1994-2017
                       Pacific Northwest National Laboratory
                            Battelle Memorial Institute
 
             NWChem is an open-source computational chemistry package
                        distributed under the terms of the
                      Educational Community License (ECL) 2.0
             A copy of the license is included with this distribution
                              in the LICENSE.TXT file
 
                                  ACKNOWLEDGMENT
                                  --------------

            This software and its documentation were developed at the
            EMSL at Pacific Northwest National Laboratory, a multiprogram
            national laboratory, operated for the U.S. Department of Energy
            by Battelle under Contract Number DE-AC05-76RL01830. Support
            for this work was provided by the Department of Energy Office
            of Biological and Environmental Research, Office of Basic
            Energy Sciences, and the Office of Advanced Scientific Computing.


           Job information
           ---------------

    hostname        = cpn-d11-08.cbls.ccr.buffalo.edu
    program         = /util/academic/nwchem/nwchem-6.8/bin/LINUX64/nwchem
    date            = Fri Mar  1 10:38:32 2019

    compiled        = Tue_Nov_06_14:59:08_2018
    source          = /util/academic/nwchem/nwchem-6.8
    nwchem branch   = 6.8
    nwchem revision = v6.8-47-gdf6c956
    ga revision     = ga-5.6.3
    use scalapack   = F
    input           = methyloxirane_blyp-def2-tzvp_488.9_37.inp
    prefix          = methyloxirane_blyp-def2-tzvp_488.9_37.inp.
    data base       = ./methyloxirane_blyp-def2-tzvp_488.9_37.inp.db
    status          = startup
    nproc           =        7
    time left       =     -1s



           Memory information
           ------------------

    heap     =   13107196 doubles =    100.0 Mbytes
    stack    =   13107201 doubles =    100.0 Mbytes
    global   =   26214400 doubles =    200.0 Mbytes (distinct from heap & stack)
    total    =   52428797 doubles =    400.0 Mbytes
    verify   = yes
    hardfail = no 


           Directory information
           ---------------------
 
  0 permanent = .
  0 scratch   = .
 
 
 
 
                                NWChem Input Module
                                -------------------
 
 
                    methyloxirane roa calculations at 488.9 nm, input generated in va  with delta_type=2
                    ------------------------------------------

 Scaling coordinates for geometry "geometry" by  1.889725989
 (inverse scale =  0.529177249)

 
 
                             Geometry "geometry" -> ""
                             -------------------------
 
 Output coordinates in angstroms (scale by  1.889725989 to convert to a.u.)
 
  No.       Tag          Charge          X              Y              Z
 ---- ---------------- ---------- -------------- -------------- --------------
    1 O                    8.0000    -0.87745500    -0.17952700     0.20586200
    2 C                    6.0000     0.57219900    -0.15420500     0.12264600
    3 C                    6.0000    -0.18338100     1.08487600     0.33987800
    4 C                    6.0000     1.18515700    -0.52102300    -1.21248300
    5 H                    1.0000     1.04009700    -0.59932100     1.00733400
    6 H                    1.0000    -0.23411000     1.53199700     1.33581200
    7 H                    1.0000    -0.32748700     1.77653600    -0.49429200
    8 H                    1.0000     2.24060000    -0.21385900    -1.24541900
    9 H                    1.0000     1.14324200    -1.60646900    -1.37588100
   10 H                    1.0000     0.65398900    -0.02615400    -2.03512000
 
      Atomic Mass 
      ----------- 
 
      O                 15.994910
      C                 12.000000
      H                  1.007825
 

 Effective nuclear repulsion energy (a.u.)     123.7160851377

            Nuclear Dipole moment (a.u.) 
            ----------------------------
        X                 Y               Z
 ---------------- ---------------- ----------------
    13.1157207025     3.5610034323   -10.6966503392
 
 
            XYZ format geometry
            -------------------
    10
 geometry
 O                    -0.87745500    -0.17952700     0.20586200
 C                     0.57219900    -0.15420500     0.12264600
 C                    -0.18338100     1.08487600     0.33987800
 C                     1.18515700    -0.52102300    -1.21248300
 H                     1.04009700    -0.59932100     1.00733400
 H                    -0.23411000     1.53199700     1.33581200
 H                    -0.32748700     1.77653600    -0.49429200
 H                     2.24060000    -0.21385900    -1.24541900
 H                     1.14324200    -1.60646900    -1.37588100
 H                     0.65398900    -0.02615400    -2.03512000
 
 ==============================================================================
                                internuclear distances
 ------------------------------------------------------------------------------
       center one      |      center two      | atomic units |  angstroms
 ------------------------------------------------------------------------------
    2 C                |   1 O                |     2.74438  |     1.45226
    3 C                |   1 O                |     2.73744  |     1.44859
    3 C                |   2 C                |     2.77308  |     1.46745
    4 C                |   2 C                |     2.86145  |     1.51421
    5 H                |   2 C                |     2.06986  |     1.09532
    6 H                |   3 C                |     2.06523  |     1.09287
    7 H                |   3 C                |     2.06577  |     1.09316
    8 H                |   4 C                |     2.07818  |     1.09972
    9 H                |   4 C                |     2.07582  |     1.09848
   10 H                |   4 C                |     2.07334  |     1.09716
 ------------------------------------------------------------------------------
                         number of included internuclear distances:         10
 ==============================================================================



 ==============================================================================
                                 internuclear angles
 ------------------------------------------------------------------------------
        center 1       |       center 2       |       center 3       |  degrees
 ------------------------------------------------------------------------------
    2 C                |   1 O                |   3 C                |    60.78
    2 C                |   1 O                |   3 C                |    60.78
    1 O                |   2 C                |   4 C                |   116.77
    1 O                |   2 C                |   5 H                |   111.90
    3 C                |   2 C                |   4 C                |   122.92
    3 C                |   2 C                |   5 H                |   116.33
    4 C                |   2 C                |   5 H                |   116.16
    3 C                |   1 O                |   2 C                |    60.78
    1 O                |   3 C                |   6 H                |   114.78
    1 O                |   3 C                |   7 H                |   114.74
    2 C                |   3 C                |   6 H                |   120.28
    2 C                |   3 C                |   7 H                |   119.29
    6 H                |   3 C                |   7 H                |   115.49
    2 C                |   4 C                |   8 H                |   110.32
    2 C                |   4 C                |   9 H                |   110.80
    2 C                |   4 C                |  10 H                |   110.85
    8 H                |   4 C                |   9 H                |   107.95
    8 H                |   4 C                |  10 H                |   108.43
    9 H                |   4 C                |  10 H                |   108.40
 ------------------------------------------------------------------------------
                            number of included internuclear angles:         19
 ==============================================================================



  warning:::::::::::::: from_environment
  NWCHEM_BASIS_LIBRARY set to: <
 /util/academic/nwchem/nwchem-6.8/src/basis/libraries>
  but file does not exist !
  using .nwchemrc or compiled library


 Summary of "ao basis" -> "" (spherical)
 ------------------------------------------------------------------------------
       Tag                 Description            Shells   Functions and Types
 ---------------- ------------------------------  ------  ---------------------
 *                         def2-TZVP                  on all atoms 


 
                                 NWChem DFT Module
                                 -----------------
 
 
                    methyloxirane roa calculations at 488.9 nm, input generated in va  with delta_type=2
 
 
                      Basis "ao basis" -> "ao basis" (spherical)
                      -----
  O (Oxygen)
  ----------
            Exponent  Coefficients 
       -------------- ---------------------------------------------------------
  1 S  2.70323826E+04  0.000217
  1 S  4.05238714E+03  0.001684
  1 S  9.22327227E+02  0.008740
  1 S  2.61240710E+02  0.035240
  1 S  8.53546414E+01  0.111535
  1 S  3.10350352E+01  0.255890
 
  2 S  1.22608607E+01  0.397687
  2 S  4.99870760E+00  0.246278
 
  3 S  1.17031082E+00  1.000000
 
  4 S  4.64747410E-01  1.000000
 
  5 S  1.85045364E-01  1.000000
 
  6 P  6.32749548E+01  0.006069
  6 P  1.46270494E+01  0.041913
  6 P  4.45012235E+00  0.161538
  6 P  1.52757996E+00  0.357070
 
  7 P  5.29351179E-01  1.000000
 
  8 P  1.74784213E-01  1.000000
 
  9 D  2.31400000E+00  1.000000
 
 10 D  6.45000000E-01  1.000000
 
 11 F  1.42800000E+00  1.000000
 
  C (Carbon)
  ----------
            Exponent  Coefficients 
       -------------- ---------------------------------------------------------
  1 S  1.35753497E+04  0.000222
  1 S  2.03523337E+03  0.001723
  1 S  4.63225624E+02  0.008926
  1 S  1.31200196E+02  0.035728
  1 S  4.28530159E+01  0.110763
  1 S  1.55841858E+01  0.242956
 
  2 S  6.20671385E+00  0.414403
  2 S  2.57648965E+00  0.237450
 
  3 S  5.76963394E-01  1.000000
 
  4 S  2.29728314E-01  1.000000
 
  5 S  9.51644400E-02  1.000000
 
  6 P  3.46972322E+01  0.005333
  6 P  7.95826228E+00  0.035864
  6 P  2.37808269E+00  0.142159
  6 P  8.14332082E-01  0.342705
 
  7 P  2.88875473E-01  1.000000
 
  8 P  1.00568237E-01  1.000000
 
  9 D  1.09700000E+00  1.000000
 
 10 D  3.18000000E-01  1.000000
 
 11 F  7.61000000E-01  1.000000
 
  H (Hydrogen)
  ------------
            Exponent  Coefficients 
       -------------- ---------------------------------------------------------
  1 S  3.40613410E+01  0.006025
  1 S  5.12357460E+00  0.045021
  1 S  1.16466260E+00  0.201897
 
  2 S  3.27230410E-01  1.000000
 
  3 S  1.03072410E-01  1.000000
 
  4 P  8.00000000E-01  1.000000
 


 Summary of "ao basis" -> "ao basis" (spherical)
 ------------------------------------------------------------------------------
       Tag                 Description            Shells   Functions and Types
 ---------------- ------------------------------  ------  ---------------------
 O                         def2-TZVP                11       31   5s3p2d1f
 C                         def2-TZVP                11       31   5s3p2d1f
 H                         def2-TZVP                 4        6   3s1p




 Summary of "ao basis" -> "ao basis" (spherical)
 ------------------------------------------------------------------------------
       Tag                 Description            Shells   Functions and Types
 ---------------- ------------------------------  ------  ---------------------
 O                         def2-TZVP                11       31   5s3p2d1f
 C                         def2-TZVP                11       31   5s3p2d1f
 H                         def2-TZVP                 4        6   3s1p


  Caching 1-el integrals 
  itol2e modified to match energy
  convergence criterion.
  tol_rho modified to match energy
  convergence criterion.
 
            General Information
            -------------------
          SCF calculation type: DFT
          Wavefunction type:  closed shell.
          No. of atoms     :    10
          No. of electrons :    32
           Alpha electrons :    16
            Beta electrons :    16
          Charge           :     0
          Spin multiplicity:     1
          Use of symmetry is: off; symmetry adaption is: off
          Maximum number of iterations: 250
          This is a Direct SCF calculation.
          AO basis - number of functions:   160
                     number of shells:    68
          Convergence on energy requested:  1.00D-08
          Convergence on density requested:  1.00D-05
          Convergence on gradient requested:  1.00D-07
 
              XC Information
              --------------
                    Becke 1988 Exchange Functional  1.000          
              Lee-Yang-Parr Correlation Functional  1.000          
 
             Grid Information
             ----------------
          Grid used for XC integration:  xfine     
          Radial quadrature: Mura-Knowles        
          Angular quadrature: Lebedev. 
          Tag              B.-S. Rad. Rad. Pts. Rad. Cut. Ang. Pts.
          ---              ---------- --------- --------- ---------
          O                   0.60      100          11.0      1454
          C                   0.70      100          11.0      1454
          H                   0.35      100          12.0      1202
          Grid pruning is: on 
          Number of quadrature shells:  1000
          Spatial weights used:  Erf1
 
          Convergence Information
          -----------------------
          Convergence aids based upon iterative change in 
          total energy or number of iterations. 
          Levelshifting, if invoked, occurs when the 
          HOMO/LUMO gap drops below (HL_TOL):  1.00D-02
          DIIS, if invoked, will attempt to extrapolate 
          using up to (NFOCK): 10 stored Fock matrices.

                    Damping( 0%)  Levelshifting(0.0)       DIIS
                  --------------- ------------------- ---------------
          dE  on:    start             N/A                start   
          dE off:    2 iters           N/A              250 iters 

 
      Screening Tolerance Information
      -------------------------------
          Density screening/tol_rho:  1.00D-11
          AO Gaussian exp screening on grid/accAOfunc:  18
          CD Gaussian exp screening on grid/accCDfunc:  20
          XC Gaussian exp screening on grid/accXCfunc:  20
          Schwarz screening/accCoul:  1.00D-09

 
      Superposition of Atomic Density Guess
      -------------------------------------
 
 Sum of atomic energies:        -190.79714706
 
      Non-variational initial energy
      ------------------------------

 Total energy =    -193.183705
 1-e energy   =    -502.378445
 2-e energy   =     185.478655
 HOMO         =      -0.354072
 LUMO         =       0.091609
 
   Time after variat. SCF:      1.0
   Time prior to 1st pass:      1.0

 Grid_pts file          = ./methyloxirane_blyp-def2-tzvp_488.9_37.inp.gridpts.0
 Record size in doubles =  12289        No. of grid_pts per rec  =   3070
 Max. records in memory =     76        Max. recs in file   =    317624


           Memory utilization after 1st SCF pass: 
           Heap Space remaining (MW):       12.17            12167540
          Stack Space remaining (MW):       13.11            13106124

   convergence    iter        energy       DeltaE   RMS-Dens  Diis-err    time
 ---------------- ----- ----------------- --------- --------- ---------  ------
 d= 0,ls=0.0,diis     1   -193.0203799349 -3.17D+02  9.18D-03  1.06D+00     7.3
 d= 0,ls=0.0,diis     2   -192.8609999441  1.59D-01  7.58D-03  2.53D+00    13.4
 d= 0,ls=0.0,diis     3   -193.0773570826 -2.16D-01  1.81D-03  3.83D-01    19.4
 d= 0,ls=0.0,diis     4   -193.1072540829 -2.99D-02  6.76D-04  1.77D-02    25.5
 d= 0,ls=0.0,diis     5   -193.1088688104 -1.61D-03  2.92D-04  2.67D-03    31.7
 d= 0,ls=0.0,diis     6   -193.1092002919 -3.31D-04  3.01D-05  3.53D-05    37.7
 d= 0,ls=0.0,diis     7   -193.1092044409 -4.15D-06  8.46D-06  4.31D-06    43.8
 d= 0,ls=0.0,diis     8   -193.1092049162 -4.75D-07  2.12D-06  3.04D-07    49.8
 d= 0,ls=0.0,diis     9   -193.1092049491 -3.29D-08  6.79D-07  1.74D-08    55.9
 d= 0,ls=0.0,diis    10   -193.1092049511 -1.94D-09  1.97D-07  2.47D-09    62.0


         Total DFT energy =     -193.109204951070
      One electron energy =     -506.041168017249
           Coulomb energy =      216.242125667377
    Exchange-Corr. energy =      -27.026247738938
 Nuclear repulsion energy =      123.716085137740

 Numeric. integr. density =       31.999999997556

     Total iterative time =     61.0s


 
                       DFT Final Molecular Orbital Analysis
                       ------------------------------------
 
 Vector    1  Occ=2.000000D+00  E=-1.877892D+01
              MO Center= -8.8D-01, -1.8D-01,  2.1D-01, r^2= 1.5D-02
   Bfn.  Coefficient  Atom+Function         Bfn.  Coefficient  Atom+Function  
  ----- ------------  ---------------      ----- ------------  ---------------
     2      0.638474   1 O  s                 1      0.435421   1 O  s         
     3      0.039922   1 O  s                 4     -0.033354   1 O  s         
 
 Vector    2  Occ=2.000000D+00  E=-9.962693D+00
              MO Center=  5.7D-01, -1.5D-01,  1.2D-01, r^2= 2.8D-02
   Bfn.  Coefficient  Atom+Function         Bfn.  Coefficient  Atom+Function  
  ----- ------------  ---------------      ----- ------------  ---------------
    33      0.606898   2 C  s                32      0.467256   2 C  s         
    34      0.042472   2 C  s                36      0.037477   2 C  s         
    35     -0.026702   2 C  s         
 
 Vector    3  Occ=2.000000D+00  E=-9.954852D+00
              MO Center= -1.8D-01,  1.1D+00,  3.4D-01, r^2= 2.8D-02
   Bfn.  Coefficient  Atom+Function         Bfn.  Coefficient  Atom+Function  
  ----- ------------  ---------------      ----- ------------  ---------------
    64      0.607007   3 C  s                63      0.467216   3 C  s         
    65      0.039647   3 C  s         
 
 Vector    4  Occ=2.000000D+00  E=-9.908326D+00
              MO Center=  1.2D+00, -5.2D-01, -1.2D+00, r^2= 2.8D-02
   Bfn.  Coefficient  Atom+Function         Bfn.  Coefficient  Atom+Function  
  ----- ------------  ---------------      ----- ------------  ---------------
    95      0.606964   4 C  s                94      0.467217   4 C  s         
    96      0.040593   4 C  s                98      0.035576   4 C  s         
 
 Vector    5  Occ=2.000000D+00  E=-9.648136D-01
              MO Center= -4.7D-01,  5.8D-02,  2.1D-01, r^2= 6.4D-01
   Bfn.  Coefficient  Atom+Function         Bfn.  Coefficient  Atom+Function  
  ----- ------------  ---------------      ----- ------------  ---------------
     4      0.373977   1 O  s                 3      0.276462   1 O  s         
     2     -0.192223   1 O  s                34      0.140636   2 C  s         
    65      0.140052   3 C  s                 5      0.122192   1 O  s         
    35      0.104754   2 C  s                 6      0.093835   1 O  px        
    66      0.093213   3 C  s                69     -0.092253   3 C  py        
 
 Vector    6  Occ=2.000000D+00  E=-6.692016D-01
              MO Center=  9.4D-01, -3.9D-01, -7.8D-01, r^2= 1.5D+00
   Bfn.  Coefficient  Atom+Function         Bfn.  Coefficient  Atom+Function  
  ----- ------------  ---------------      ----- ------------  ---------------
    97      0.285702   4 C  s                96      0.276664   4 C  s         
    35      0.184739   2 C  s                34      0.173583   2 C  s         
    95     -0.174165   4 C  s                 4     -0.147864   1 O  s         
    33     -0.108489   2 C  s                 3     -0.103368   1 O  s         
    94     -0.083448   4 C  s                 5     -0.073471   1 O  s         
 
 Vector    7  Occ=2.000000D+00  E=-5.900380D-01
              MO Center= -1.2D-01,  7.0D-01,  2.1D-01, r^2= 2.0D+00
   Bfn.  Coefficient  Atom+Function         Bfn.  Coefficient  Atom+Function  
  ----- ------------  ---------------      ----- ------------  ---------------
    66      0.325183   3 C  s                65      0.276991   3 C  s         
     4     -0.240190   1 O  s                64     -0.171284   3 C  s         
     3     -0.169585   1 O  s                 5     -0.149057   1 O  s         
     2      0.112008   1 O  s                38      0.106330   2 C  py        
   132      0.101965   6 H  s                97     -0.101023   4 C  s         
 
 Vector    8  Occ=2.000000D+00  E=-5.303735D-01
              MO Center=  3.9D-01,  2.9D-02, -8.4D-02, r^2= 2.7D+00
   Bfn.  Coefficient  Atom+Function         Bfn.  Coefficient  Atom+Function  
  ----- ------------  ---------------      ----- ------------  ---------------
    35      0.302721   2 C  s                34      0.224467   2 C  s         
    66     -0.156044   3 C  s                97     -0.152397   4 C  s         
    33     -0.138037   2 C  s               126      0.132923   5 H  s         
    96     -0.126973   4 C  s                 6      0.107654   1 O  px        
   125      0.106097   5 H  s                65     -0.100835   3 C  s         
 
 Vector    9  Occ=2.000000D+00  E=-4.487338D-01
              MO Center=  1.1D-01,  2.9D-01,  2.5D-01, r^2= 2.5D+00
   Bfn.  Coefficient  Atom+Function         Bfn.  Coefficient  Atom+Function  
  ----- ------------  ---------------      ----- ------------  ---------------
    70      0.212306   3 C  pz               39      0.156973   2 C  pz        
   132      0.145704   6 H  s                73      0.133244   3 C  pz        
     8      0.128929   1 O  pz              126      0.114909   5 H  s         
     6     -0.107950   1 O  px              131      0.108197   6 H  s         
    38     -0.105651   2 C  py               11      0.104490   1 O  pz        
 
 Vector   10  Occ=2.000000D+00  E=-4.138440D-01
              MO Center=  5.3D-02,  2.7D-01, -2.4D-01, r^2= 2.6D+00
   Bfn.  Coefficient  Atom+Function         Bfn.  Coefficient  Atom+Function  
  ----- ------------  ---------------      ----- ------------  ---------------
    69      0.217150   3 C  py              101      0.155711   4 C  pz        
   138      0.152536   7 H  s                 6     -0.143199   1 O  px        
    38     -0.141848   2 C  py               37      0.130039   2 C  px        
     7     -0.124202   1 O  py               72      0.121628   3 C  py        
     9     -0.114512   1 O  px               70     -0.112370   3 C  pz        
 
 Vector   11  Occ=2.000000D+00  E=-3.765123D-01
              MO Center=  9.2D-01, -3.3D-01, -7.6D-01, r^2= 2.6D+00
   Bfn.  Coefficient  Atom+Function         Bfn.  Coefficient  Atom+Function  
  ----- ------------  ---------------      ----- ------------  ---------------
    99      0.209750   4 C  px              144      0.186374   8 H  s         
   100      0.168994   4 C  py              150     -0.143608   9 H  s         
   102      0.134703   4 C  px              143      0.130450   8 H  s         
    37      0.127819   2 C  px                6     -0.118952   1 O  px        
   103      0.111494   4 C  py                7      0.110416   1 O  py        
 
 Vector   12  Occ=2.000000D+00  E=-3.561520D-01
              MO Center=  6.1D-01, -3.4D-01, -8.9D-01, r^2= 2.8D+00
   Bfn.  Coefficient  Atom+Function         Bfn.  Coefficient  Atom+Function  
  ----- ------------  ---------------      ----- ------------  ---------------
   100      0.253924   4 C  py              150     -0.184136   9 H  s         
   156      0.179939  10 H  s                 7     -0.167203   1 O  py        
   103      0.164381   4 C  py               10     -0.133841   1 O  py        
   149     -0.128323   9 H  s               155      0.127277  10 H  s         
    70      0.116031   3 C  pz              106      0.103002   4 C  py        
 
 Vector   13  Occ=2.000000D+00  E=-3.290405D-01
              MO Center=  3.4D-01,  2.6D-01, -2.2D-01, r^2= 2.8D+00
   Bfn.  Coefficient  Atom+Function         Bfn.  Coefficient  Atom+Function  
  ----- ------------  ---------------      ----- ------------  ---------------
    39      0.218371   2 C  pz              101     -0.195344   4 C  pz        
    70     -0.173641   3 C  pz                7     -0.164016   1 O  py        
   138      0.163373   7 H  s                42      0.148370   2 C  pz        
   104     -0.136849   4 C  pz               10     -0.132193   1 O  py        
    99      0.128658   4 C  px              137      0.110114   7 H  s         
 
 Vector   14  Occ=2.000000D+00  E=-3.206240D-01
              MO Center=  3.8D-01, -5.0D-02, -2.1D-01, r^2= 3.0D+00
   Bfn.  Coefficient  Atom+Function         Bfn.  Coefficient  Atom+Function  
  ----- ------------  ---------------      ----- ------------  ---------------
     7      0.209506   1 O  py               10      0.171738   1 O  py        
   126      0.160784   5 H  s                99     -0.158070   4 C  px        
     6     -0.150980   1 O  px              156      0.149052  10 H  s         
    37      0.135884   2 C  px              144     -0.132375   8 H  s         
    39      0.126668   2 C  pz                9     -0.123817   1 O  px        
 
 Vector   15  Occ=2.000000D+00  E=-2.647404D-01
              MO Center=  1.3D-02,  1.5D-01,  3.6D-02, r^2= 2.3D+00
   Bfn.  Coefficient  Atom+Function         Bfn.  Coefficient  Atom+Function  
  ----- ------------  ---------------      ----- ------------  ---------------
    68      0.264381   3 C  px               38      0.256560   2 C  py        
     6     -0.237683   1 O  px               41      0.199554   2 C  py        
    71      0.195516   3 C  px                9     -0.185772   1 O  px        
    12     -0.157113   1 O  px              150      0.114454   9 H  s         
   100     -0.110865   4 C  py               67      0.106828   3 C  s         
 
 Vector   16  Occ=2.000000D+00  E=-2.192051D-01
              MO Center= -5.8D-01, -2.5D-02,  2.0D-01, r^2= 1.6D+00
   Bfn.  Coefficient  Atom+Function         Bfn.  Coefficient  Atom+Function  
  ----- ------------  ---------------      ----- ------------  ---------------
     8      0.448994   1 O  pz               11      0.357530   1 O  pz        
    14      0.297082   1 O  pz              133     -0.130781   6 H  s         
   139      0.116808   7 H  s               138      0.104426   7 H  s         
   132     -0.103619   6 H  s               145     -0.102549   8 H  s         
   126     -0.097439   5 H  s                98      0.087915   4 C  s         
 
 Vector   17  Occ=0.000000D+00  E= 2.588322D-02
              MO Center=  1.2D+00, -1.1D-01, -6.4D-01, r^2= 7.3D+00
   Bfn.  Coefficient  Atom+Function         Bfn.  Coefficient  Atom+Function  
  ----- ------------  ---------------      ----- ------------  ---------------
    98      4.549354   4 C  s               145     -1.544844   8 H  s         
   151     -1.514847   9 H  s               157     -1.364056  10 H  s         
   127     -1.233721   5 H  s                45      1.153579   2 C  pz        
   139     -0.886192   7 H  s                67      0.700613   3 C  s         
   133     -0.610583   6 H  s                75      0.341619   3 C  py        
 
 Vector   18  Occ=0.000000D+00  E= 4.397137D-02
              MO Center= -1.4D-01,  7.0D-01,  1.5D-01, r^2= 4.3D+00
   Bfn.  Coefficient  Atom+Function         Bfn.  Coefficient  Atom+Function  
  ----- ------------  ---------------      ----- ------------  ---------------
    36      1.862204   2 C  s                98     -1.869809   4 C  s         
     5     -1.315658   1 O  s                74     -0.950018   3 C  px        
   151      0.740753   9 H  s                45     -0.474581   2 C  pz        
    13     -0.442541   1 O  py               44      0.424647   2 C  py        
    67     -0.426581   3 C  s                43     -0.383194   2 C  px        
 
 Vector   19  Occ=0.000000D+00  E= 4.990696D-02
              MO Center=  5.9D-01,  1.1D-01,  9.6D-02, r^2= 7.1D+00
   Bfn.  Coefficient  Atom+Function         Bfn.  Coefficient  Atom+Function  
  ----- ------------  ---------------      ----- ------------  ---------------
    36      2.829905   2 C  s                98     -2.391162   4 C  s         
   127     -2.123277   5 H  s               157      1.333714  10 H  s         
   139      1.145000   7 H  s               133     -0.881615   6 H  s         
    67     -0.748642   3 C  s                76      0.737231   3 C  pz        
    43      0.684389   2 C  px              151      0.394662   9 H  s         
 
 Vector   20  Occ=0.000000D+00  E= 5.127723D-02
              MO Center=  3.5D-01,  9.6D-01,  1.9D-01, r^2= 7.1D+00
   Bfn.  Coefficient  Atom+Function         Bfn.  Coefficient  Atom+Function  
  ----- ------------  ---------------      ----- ------------  ---------------
    67      3.819188   3 C  s                98     -2.594825   4 C  s         
   133     -1.679137   6 H  s               139     -1.255897   7 H  s         
   145      1.252469   8 H  s                44     -1.124400   2 C  py        
    36     -0.802962   2 C  s               151      0.664217   9 H  s         
    45     -0.657181   2 C  pz               74      0.510091   3 C  px        
 
 Vector   21  Occ=0.000000D+00  E= 6.577225D-02
              MO Center=  3.0D-01,  5.6D-02, -2.2D-01, r^2= 4.7D+00
   Bfn.  Coefficient  Atom+Function         Bfn.  Coefficient  Atom+Function  
  ----- ------------  ---------------      ----- ------------  ---------------
   139      1.212681   7 H  s                98      1.125570   4 C  s         
   151     -0.977868   9 H  s                 5     -0.883042   1 O  s         
    43     -0.811593   2 C  px               67     -0.711226   3 C  s         
    75     -0.596275   3 C  py               12     -0.481556   1 O  px        
   133      0.419680   6 H  s               127     -0.395949   5 H  s         
 
 Vector   22  Occ=0.000000D+00  E= 8.629702D-02
              MO Center=  1.3D+00,  1.9D-01, -4.9D-01, r^2= 7.2D+00
   Bfn.  Coefficient  Atom+Function         Bfn.  Coefficient  Atom+Function  
  ----- ------------  ---------------      ----- ------------  ---------------
    36      2.889725   2 C  s               145      2.024324   8 H  s         
    67     -1.456749   3 C  s               127     -1.325054   5 H  s         
   157     -1.294353  10 H  s               133      1.210227   6 H  s         
   107     -1.099513   4 C  pz              105     -1.014727   4 C  px        
    98     -0.914564   4 C  s                75      0.762786   3 C  py        
 
 Vector   23  Occ=0.000000D+00  E= 9.172167D-02
              MO Center=  1.2D+00, -5.9D-01, -4.9D-01, r^2= 6.7D+00
   Bfn.  Coefficient  Atom+Function         Bfn.  Coefficient  Atom+Function  
  ----- ------------  ---------------      ----- ------------  ---------------
    36      2.604115   2 C  s               151      2.013038   9 H  s         
   145     -1.539902   8 H  s                98     -1.312098   4 C  s         
   105      1.115836   4 C  px              106      1.114285   4 C  py        
   133      0.981156   6 H  s                67     -0.970159   3 C  s         
   127     -0.863768   5 H  s               107     -0.712693   4 C  pz        
 
 Vector   24  Occ=0.000000D+00  E= 1.024752D-01
              MO Center=  4.4D-01,  3.8D-01, -1.1D+00, r^2= 6.7D+00
   Bfn.  Coefficient  Atom+Function         Bfn.  Coefficient  Atom+Function  
  ----- ------------  ---------------      ----- ------------  ---------------
   157      2.057188  10 H  s               133      1.553452   6 H  s         
   106     -1.497914   4 C  py              139     -1.475872   7 H  s         
    98     -1.448577   4 C  s               151     -1.451896   9 H  s         
    36      1.235275   2 C  s                76     -1.132173   3 C  pz        
   105      0.999377   4 C  px               45     -0.562799   2 C  pz        
 
 Vector   25  Occ=0.000000D+00  E= 1.392324D-01
              MO Center=  7.9D-01,  1.9D-01, -4.4D-01, r^2= 7.9D+00
   Bfn.  Coefficient  Atom+Function         Bfn.  Coefficient  Atom+Function  
  ----- ------------  ---------------      ----- ------------  ---------------
    36      4.659286   2 C  s                98     -3.596765   4 C  s         
    45     -3.470544   2 C  pz               67     -2.750220   3 C  s         
   127      2.748848   5 H  s                76      2.228245   3 C  pz        
   105      2.065101   4 C  px              133     -1.842620   6 H  s         
   139      1.740062   7 H  s               107     -1.596243   4 C  pz        
 
 Vector   26  Occ=0.000000D+00  E= 1.701504D-01
              MO Center=  4.3D-01,  5.4D-01, -1.1D-01, r^2= 7.2D+00
   Bfn.  Coefficient  Atom+Function         Bfn.  Coefficient  Atom+Function  
  ----- ------------  ---------------      ----- ------------  ---------------
    75      2.328415   3 C  py               36      1.592111   2 C  s         
    67     -1.589547   3 C  s               107      1.591143   4 C  pz        
   139     -1.176006   7 H  s               157      1.055972  10 H  s         
    74     -0.990498   3 C  px               44      0.723267   2 C  py        
    43     -0.603515   2 C  px              106     -0.581646   4 C  py        
 
 Vector   27  Occ=0.000000D+00  E= 1.977481D-01
              MO Center=  8.0D-01, -9.8D-02, -1.0D+00, r^2= 5.1D+00
   Bfn.  Coefficient  Atom+Function         Bfn.  Coefficient  Atom+Function  
  ----- ------------  ---------------      ----- ------------  ---------------
    67      3.147669   3 C  s                44     -2.609329   2 C  py        
   106      1.983060   4 C  py               36     -1.952817   2 C  s         
    43      0.972529   2 C  px               74      0.760004   3 C  px        
   105      0.763317   4 C  px               45     -0.693382   2 C  pz        
   157     -0.680520  10 H  s               150      0.635899   9 H  s         
 
 Vector   28  Occ=0.000000D+00  E= 2.020533D-01
              MO Center=  9.8D-01, -4.4D-01, -7.1D-01, r^2= 6.7D+00
   Bfn.  Coefficient  Atom+Function         Bfn.  Coefficient  Atom+Function  
  ----- ------------  ---------------      ----- ------------  ---------------
    36      2.554509   2 C  s                75      1.672850   3 C  py        
   105     -1.397012   4 C  px              133     -1.244865   6 H  s         
   106      0.930362   4 C  py              107     -0.909164   4 C  pz        
   139     -0.742593   7 H  s                45      0.731344   2 C  pz        
   156     -0.724409  10 H  s                76      0.693292   3 C  pz        
 
 Vector   29  Occ=0.000000D+00  E= 2.369233D-01
              MO Center= -3.1D-01,  3.9D-01, -4.1D-02, r^2= 5.4D+00
   Bfn.  Coefficient  Atom+Function         Bfn.  Coefficient  Atom+Function  
  ----- ------------  ---------------      ----- ------------  ---------------
    67      4.552046   3 C  s                36     -3.097219   2 C  s         
   139     -1.537472   7 H  s                66     -1.471392   3 C  s         
   133     -1.263957   6 H  s                98      1.242674   4 C  s         
   107      0.988795   4 C  pz               74     -0.824596   3 C  px        
     5     -0.758441   1 O  s               106      0.737379   4 C  py        
 
 Vector   30  Occ=0.000000D+00  E= 2.470072D-01
              MO Center=  5.6D-01,  8.5D-03, -1.0D-01, r^2= 5.8D+00
   Bfn.  Coefficient  Atom+Function         Bfn.  Coefficient  Atom+Function  
  ----- ------------  ---------------      ----- ------------  ---------------
    67      6.160058   3 C  s                43      4.142415   2 C  px        
    75     -3.029557   3 C  py               44     -2.662885   2 C  py        
    36     -2.301966   2 C  s               107     -2.026935   4 C  pz        
   157     -1.835302  10 H  s                45     -1.442011   2 C  pz        
    98     -1.271137   4 C  s               105     -1.180722   4 C  px        
 
 Vector   31  Occ=0.000000D+00  E= 2.692339D-01
              MO Center=  2.6D-01, -1.8D-01,  2.5D-01, r^2= 5.6D+00
   Bfn.  Coefficient  Atom+Function         Bfn.  Coefficient  Atom+Function  
  ----- ------------  ---------------      ----- ------------  ---------------
    36      4.501131   2 C  s                 5     -2.335823   1 O  s         
    67      2.022102   3 C  s                43     -1.733656   2 C  px        
   105      1.537126   4 C  px               66     -1.186512   3 C  s         
    98     -1.091292   4 C  s               139     -0.949125   7 H  s         
   133     -0.888329   6 H  s               127     -0.853045   5 H  s         
 
 Vector   32  Occ=0.000000D+00  E= 2.794176D-01
              MO Center=  4.2D-01,  3.6D-01,  3.0D-01, r^2= 4.1D+00
   Bfn.  Coefficient  Atom+Function         Bfn.  Coefficient  Atom+Function  
  ----- ------------  ---------------      ----- ------------  ---------------
    36      2.359839   2 C  s                67     -1.741986   3 C  s         
     5     -1.648808   1 O  s                43     -1.186947   2 C  px        
    74     -0.731398   3 C  px               45     -0.653510   2 C  pz        
    98     -0.656082   4 C  s               145      0.582948   8 H  s         
     4      0.488338   1 O  s                66      0.457317   3 C  s         
 
 Vector   33  Occ=0.000000D+00  E= 3.010806D-01
              MO Center=  4.6D-01,  3.5D-01, -4.0D-01, r^2= 5.0D+00
   Bfn.  Coefficient  Atom+Function         Bfn.  Coefficient  Atom+Function  
  ----- ------------  ---------------      ----- ------------  ---------------
    43      1.913408   2 C  px              106      1.774218   4 C  py        
    98     -1.705359   4 C  s               151      1.693961   9 H  s         
    36     -1.356312   2 C  s                44     -1.318568   2 C  py        
    76      1.302493   3 C  pz              107     -1.067004   4 C  pz        
    66      1.026418   3 C  s               139      0.916010   7 H  s         
 
 Vector   34  Occ=0.000000D+00  E= 3.379306D-01
              MO Center=  1.3D-01,  4.2D-01, -4.3D-01, r^2= 5.9D+00
   Bfn.  Coefficient  Atom+Function         Bfn.  Coefficient  Atom+Function  
  ----- ------------  ---------------      ----- ------------  ---------------
    67      4.895783   3 C  s                76     -4.020844   3 C  pz        
   139     -3.208356   7 H  s                36     -2.596017   2 C  s         
   133      2.035474   6 H  s               107     -1.838773   4 C  pz        
   157     -1.812524  10 H  s                98      1.675517   4 C  s         
    43      1.479782   2 C  px               44     -1.280679   2 C  py        
 
 Vector   35  Occ=0.000000D+00  E= 3.642949D-01
              MO Center=  9.0D-01, -8.5D-02, -4.8D-01, r^2= 6.9D+00
   Bfn.  Coefficient  Atom+Function         Bfn.  Coefficient  Atom+Function  
  ----- ------------  ---------------      ----- ------------  ---------------
    98      8.540713   4 C  s               145     -3.488166   8 H  s         
    97     -3.389253   4 C  s                76      3.173219   3 C  pz        
   133     -2.306223   6 H  s               151     -2.137401   9 H  s         
   157     -1.611986  10 H  s               139      1.545838   7 H  s         
    45     -1.404373   2 C  pz              105      1.298563   4 C  px        
 
 Vector   36  Occ=0.000000D+00  E= 3.734516D-01
              MO Center=  5.9D-01,  2.1D-01,  5.8D-02, r^2= 6.3D+00
   Bfn.  Coefficient  Atom+Function         Bfn.  Coefficient  Atom+Function  
  ----- ------------  ---------------      ----- ------------  ---------------
    36     13.615694   2 C  s                98     -8.547768   4 C  s         
    67     -8.336496   3 C  s               127     -3.494300   5 H  s         
    97      2.188507   4 C  s               157      2.195359  10 H  s         
    35     -2.071659   2 C  s                44      1.721530   2 C  py        
    74     -1.591084   3 C  px               75      1.505655   3 C  py        
 
 Vector   37  Occ=0.000000D+00  E= 3.866169D-01
              MO Center=  7.7D-01, -2.3D-01, -1.5D-01, r^2= 5.9D+00
   Bfn.  Coefficient  Atom+Function         Bfn.  Coefficient  Atom+Function  
  ----- ------------  ---------------      ----- ------------  ---------------
    36      5.030854   2 C  s                98      4.052704   4 C  s         
   127     -3.746178   5 H  s                45      2.838788   2 C  pz        
   151     -2.189689   9 H  s                76     -2.074088   3 C  pz        
    35     -2.047841   2 C  s                67     -1.893236   3 C  s         
   145     -1.853568   8 H  s               133      1.666004   6 H  s         
 
 Vector   38  Occ=0.000000D+00  E= 3.950150D-01
              MO Center=  2.3D-01,  2.8D-01,  2.5D-02, r^2= 6.6D+00
   Bfn.  Coefficient  Atom+Function         Bfn.  Coefficient  Atom+Function  
  ----- ------------  ---------------      ----- ------------  ---------------
    98     11.430034   4 C  s                67     -7.820600   3 C  s         
    45      5.067635   2 C  pz               76     -3.074023   3 C  pz        
   133      2.929594   6 H  s                44      2.900599   2 C  py        
   157     -2.499196  10 H  s                43     -2.204790   2 C  px        
    75      2.107053   3 C  py               97     -1.747071   4 C  s         
 
 Vector   39  Occ=0.000000D+00  E= 4.021527D-01
              MO Center= -3.1D-01,  1.4D-01,  1.5D-01, r^2= 6.3D+00
   Bfn.  Coefficient  Atom+Function         Bfn.  Coefficient  Atom+Function  
  ----- ------------  ---------------      ----- ------------  ---------------
    36     11.819086   2 C  s                67    -11.594374   3 C  s         
    98     -6.061474   4 C  s                45     -5.795234   2 C  pz        
    44      3.698729   2 C  py              127      3.134268   5 H  s         
    66      2.638676   3 C  s               139      2.601936   7 H  s         
   105      2.460266   4 C  px               43     -2.283344   2 C  px        
 
 Vector   40  Occ=0.000000D+00  E= 4.152841D-01
              MO Center=  7.7D-01, -3.6D-01, -8.3D-01, r^2= 5.9D+00
   Bfn.  Coefficient  Atom+Function         Bfn.  Coefficient  Atom+Function  
  ----- ------------  ---------------      ----- ------------  ---------------
    98      6.788685   4 C  s                36     -2.950149   2 C  s         
    45      2.845149   2 C  pz              105     -2.479716   4 C  px        
   151     -2.351299   9 H  s               157     -2.045652  10 H  s         
   145      1.763575   8 H  s                97     -1.158234   4 C  s         
   144     -0.962189   8 H  s               127     -0.922509   5 H  s         
 
 Vector   41  Occ=0.000000D+00  E= 4.269282D-01
              MO Center=  4.7D-01,  1.8D-01, -1.7D-01, r^2= 6.8D+00
   Bfn.  Coefficient  Atom+Function         Bfn.  Coefficient  Atom+Function  
  ----- ------------  ---------------      ----- ------------  ---------------
    36      9.582270   2 C  s                67     -4.860222   3 C  s         
    98     -4.382285   4 C  s                44      2.646437   2 C  py        
    75      2.614655   3 C  py              151      2.439826   9 H  s         
    43     -1.787134   2 C  px               45     -1.592877   2 C  pz        
    74     -1.476705   3 C  px               35     -1.302542   2 C  s         
 
 Vector   42  Occ=0.000000D+00  E= 4.478026D-01
              MO Center=  1.0D-01, -9.2D-02, -2.0D-01, r^2= 6.1D+00
   Bfn.  Coefficient  Atom+Function         Bfn.  Coefficient  Atom+Function  
  ----- ------------  ---------------      ----- ------------  ---------------
    36      9.836920   2 C  s                98     -9.170897   4 C  s         
    45     -5.673388   2 C  pz               67     -3.087725   3 C  s         
   127      2.898996   5 H  s                76      2.680965   3 C  pz        
    44      2.289353   2 C  py              157      2.206714  10 H  s         
   106     -2.094232   4 C  py              133     -2.044446   6 H  s         
 
 Vector   43  Occ=0.000000D+00  E= 4.612153D-01
              MO Center=  1.1D-01,  7.0D-01, -5.6D-01, r^2= 5.2D+00
   Bfn.  Coefficient  Atom+Function         Bfn.  Coefficient  Atom+Function  
  ----- ------------  ---------------      ----- ------------  ---------------
   139      3.142157   7 H  s               157     -2.440259  10 H  s         
   107     -2.349888   4 C  pz               75     -2.146843   3 C  py        
    45     -1.796340   2 C  pz               43      1.628843   2 C  px        
    44     -1.614479   2 C  py              138     -1.355933   7 H  s         
    98     -1.088751   4 C  s                76      1.049916   3 C  pz        
 
 Vector   44  Occ=0.000000D+00  E= 4.699001D-01
              MO Center=  4.1D-01,  2.5D-01,  7.9D-02, r^2= 5.6D+00
   Bfn.  Coefficient  Atom+Function         Bfn.  Coefficient  Atom+Function  
  ----- ------------  ---------------      ----- ------------  ---------------
    98      4.845395   4 C  s                36     -4.399946   2 C  s         
    45      2.104122   2 C  pz              145     -1.639091   8 H  s         
   133     -1.520172   6 H  s               107      1.446580   4 C  pz        
    67      1.303949   3 C  s               132      1.184988   6 H  s         
    35      1.173173   2 C  s               126     -1.111902   5 H  s         
 
 Vector   45  Occ=0.000000D+00  E= 5.079180D-01
              MO Center=  8.9D-01, -3.7D-01, -9.3D-01, r^2= 4.8D+00
   Bfn.  Coefficient  Atom+Function         Bfn.  Coefficient  Atom+Function  
  ----- ------------  ---------------      ----- ------------  ---------------
    98     11.326534   4 C  s                36     -7.341677   2 C  s         
    45      4.554637   2 C  pz              107      3.056690   4 C  pz        
   106      1.349880   4 C  py              144     -1.345983   8 H  s         
   156     -1.224607  10 H  s               127     -1.128082   5 H  s         
    14     -1.059526   1 O  pz              150     -1.064031   9 H  s         
 
 Vector   46  Occ=0.000000D+00  E= 5.365457D-01
              MO Center=  1.1D-01, -4.1D-01, -5.0D-01, r^2= 4.4D+00
   Bfn.  Coefficient  Atom+Function         Bfn.  Coefficient  Atom+Function  
  ----- ------------  ---------------      ----- ------------  ---------------
    98     -7.399156   4 C  s                36      6.943378   2 C  s         
    45     -3.791032   2 C  pz               76      3.312530   3 C  pz        
   133     -1.802679   6 H  s               105      1.519165   4 C  px        
   107     -1.513621   4 C  pz              139      1.482777   7 H  s         
     5     -1.150829   1 O  s                14     -1.141500   1 O  pz        
 
 Vector   47  Occ=0.000000D+00  E= 6.584710D-01
              MO Center= -3.5D-01,  3.3D-02, -2.2D-02, r^2= 4.3D+00
   Bfn.  Coefficient  Atom+Function         Bfn.  Coefficient  Atom+Function  
  ----- ------------  ---------------      ----- ------------  ---------------
    36     11.553471   2 C  s                67     -8.950899   3 C  s         
    98     -4.003369   4 C  s                43     -2.617747   2 C  px        
    75      2.412415   3 C  py               13      2.185613   1 O  py        
    76      2.072534   3 C  pz              105      1.587856   4 C  px        
   139      1.519749   7 H  s                44      1.485758   2 C  py        
 
 Vector   48  Occ=0.000000D+00  E= 6.739833D-01
              MO Center= -2.9D-01,  3.6D-01,  1.2D-01, r^2= 3.9D+00
   Bfn.  Coefficient  Atom+Function         Bfn.  Coefficient  Atom+Function  
  ----- ------------  ---------------      ----- ------------  ---------------
    36      8.428050   2 C  s                67     -8.104255   3 C  s         
     5      2.958322   1 O  s                75      2.633258   3 C  py        
    98     -2.269197   4 C  s                13      2.149787   1 O  py        
    43     -1.298219   2 C  px               45     -1.242131   2 C  pz        
     4     -1.090095   1 O  s                44      0.969061   2 C  py        
 
 Vector   49  Occ=0.000000D+00  E= 7.076108D-01
              MO Center=  1.6D-01, -3.1D-01, -2.6D-01, r^2= 4.5D+00
   Bfn.  Coefficient  Atom+Function         Bfn.  Coefficient  Atom+Function  
  ----- ------------  ---------------      ----- ------------  ---------------
    67      9.688002   3 C  s                36     -7.545847   2 C  s         
    43      3.669347   2 C  px               44     -3.512734   2 C  py        
    75     -2.811199   3 C  py               98     -2.511889   4 C  s         
     5      2.209953   1 O  s                12      1.691720   1 O  px        
   106      1.661217   4 C  py               13     -1.336393   1 O  py        
 
 Vector   50  Occ=0.000000D+00  E= 7.618170D-01
              MO Center=  6.2D-01,  5.9D-03, -3.3D-01, r^2= 4.1D+00
   Bfn.  Coefficient  Atom+Function         Bfn.  Coefficient  Atom+Function  
  ----- ------------  ---------------      ----- ------------  ---------------
    45      2.583409   2 C  pz              127     -1.752647   5 H  s         
   105     -1.632259   4 C  px                5     -1.459804   1 O  s         
    36      1.458197   2 C  s                43      1.367327   2 C  px        
   126     -1.338717   5 H  s               144      1.264933   8 H  s         
    76     -1.109867   3 C  pz               66      0.989388   3 C  s         
 
 Vector   51  Occ=0.000000D+00  E= 7.933008D-01
              MO Center=  2.6D-01,  4.2D-02, -1.8D-01, r^2= 4.4D+00
   Bfn.  Coefficient  Atom+Function         Bfn.  Coefficient  Atom+Function  
  ----- ------------  ---------------      ----- ------------  ---------------
     5      4.244860   1 O  s                36     -2.952766   2 C  s         
    76     -2.563722   3 C  pz                4     -1.647432   1 O  s         
    45      1.579682   2 C  pz               12      1.374981   1 O  px        
   133      1.357605   6 H  s                43      1.246616   2 C  px        
    66     -1.052935   3 C  s                35     -1.028898   2 C  s         
 
 Vector   52  Occ=0.000000D+00  E= 8.313596D-01
              MO Center=  3.2D-01,  1.7D-01, -3.2D-03, r^2= 4.4D+00
   Bfn.  Coefficient  Atom+Function         Bfn.  Coefficient  Atom+Function  
  ----- ------------  ---------------      ----- ------------  ---------------
    36      6.762699   2 C  s                98     -4.121517   4 C  s         
     5     -3.884487   1 O  s                43     -2.561186   2 C  px        
   105      1.937282   4 C  px               35     -1.903771   2 C  s         
    45     -1.810883   2 C  pz               44      1.520235   2 C  py        
    66     -1.193263   3 C  s                97      1.041316   4 C  s         
 
 Vector   53  Occ=0.000000D+00  E= 8.538795D-01
              MO Center=  6.1D-01,  1.2D-01, -4.0D-01, r^2= 4.2D+00
   Bfn.  Coefficient  Atom+Function         Bfn.  Coefficient  Atom+Function  
  ----- ------------  ---------------      ----- ------------  ---------------
    98     -4.677242   4 C  s                45     -4.590475   2 C  pz        
    36      4.395258   2 C  s                76      2.045420   3 C  pz        
   127      1.813100   5 H  s               106     -1.583995   4 C  py        
    44      1.424221   2 C  py              105      1.306692   4 C  px        
   150     -1.224584   9 H  s               132     -1.079919   6 H  s         
 
 Vector   54  Occ=0.000000D+00  E= 8.712245D-01
              MO Center=  1.8D-01, -4.3D-02, -1.2D-01, r^2= 4.2D+00
   Bfn.  Coefficient  Atom+Function         Bfn.  Coefficient  Atom+Function  
  ----- ------------  ---------------      ----- ------------  ---------------
     5      4.666948   1 O  s                36     -1.797567   2 C  s         
     4     -1.567186   1 O  s               138      1.442944   7 H  s         
    76      1.354089   3 C  pz               67     -1.238560   3 C  s         
    12      1.191652   1 O  px               66     -1.126189   3 C  s         
    98     -0.912763   4 C  s                43      0.899709   2 C  px        
 
 Vector   55  Occ=0.000000D+00  E= 9.206167D-01
              MO Center=  5.2D-01,  2.9D-01, -4.9D-01, r^2= 4.5D+00
   Bfn.  Coefficient  Atom+Function         Bfn.  Coefficient  Atom+Function  
  ----- ------------  ---------------      ----- ------------  ---------------
    35      5.044094   2 C  s                36     -1.858755   2 C  s         
    67      1.593369   3 C  s                66     -1.321441   3 C  s         
   132     -1.316408   6 H  s                72      1.309211   3 C  py        
    41      1.164430   2 C  py              156     -1.161982  10 H  s         
    84      1.154080   3 C  d  0            116     -1.087562   4 C  d  1      
 
 Vector   56  Occ=0.000000D+00  E= 9.611203D-01
              MO Center=  4.7D-01,  2.7D-01, -5.7D-01, r^2= 4.7D+00
   Bfn.  Coefficient  Atom+Function         Bfn.  Coefficient  Atom+Function  
  ----- ------------  ---------------      ----- ------------  ---------------
    35      4.224330   2 C  s                67      2.736612   3 C  s         
   138     -2.309324   7 H  s                76     -1.852644   3 C  pz        
    36     -1.771426   2 C  s                42     -1.735660   2 C  pz        
    83     -1.619931   3 C  d -1            115     -1.495825   4 C  d  0      
   132      1.333216   6 H  s                43      1.304941   2 C  px        
 
 Vector   57  Occ=0.000000D+00  E= 9.933080D-01
              MO Center=  3.5D-01,  4.7D-01, -1.2D-01, r^2= 4.1D+00
   Bfn.  Coefficient  Atom+Function         Bfn.  Coefficient  Atom+Function  
  ----- ------------  ---------------      ----- ------------  ---------------
    36      7.396274   2 C  s                98     -5.012520   4 C  s         
    45     -3.869932   2 C  pz               67     -3.792583   3 C  s         
    43     -2.161144   2 C  px               44      2.085218   2 C  py        
    66     -1.735593   3 C  s               127      1.594277   5 H  s         
    75      1.404058   3 C  py              126      1.392025   5 H  s         
 
 Vector   58  Occ=0.000000D+00  E= 1.013689D+00
              MO Center=  3.6D-01,  5.7D-01, -3.4D-02, r^2= 4.2D+00
   Bfn.  Coefficient  Atom+Function         Bfn.  Coefficient  Atom+Function  
  ----- ------------  ---------------      ----- ------------  ---------------
    36      5.234755   2 C  s                67     -4.310419   3 C  s         
    45     -2.129309   2 C  pz               44      1.755688   2 C  py        
    98     -1.642102   4 C  s               156     -1.477108  10 H  s         
    82      1.379339   3 C  d -2             74     -1.330672   3 C  px        
    41      1.291974   2 C  py              144      1.296824   8 H  s         
 
 Vector   59  Occ=0.000000D+00  E= 1.041533D+00
              MO Center=  7.1D-01, -1.7D-01, -4.7D-01, r^2= 4.2D+00
   Bfn.  Coefficient  Atom+Function         Bfn.  Coefficient  Atom+Function  
  ----- ------------  ---------------      ----- ------------  ---------------
    35      2.795546   2 C  s                36      2.471638   2 C  s         
    66     -2.395706   3 C  s               150      1.969708   9 H  s         
   144     -1.917134   8 H  s                 5     -1.868512   1 O  s         
   117      1.730215   4 C  d  2             41      1.551403   2 C  py        
    44      1.273248   2 C  py               72      1.260466   3 C  py        
 
 Vector   60  Occ=0.000000D+00  E= 1.079365D+00
              MO Center=  6.6D-01,  2.6D-02, -6.6D-02, r^2= 4.1D+00
   Bfn.  Coefficient  Atom+Function         Bfn.  Coefficient  Atom+Function  
  ----- ------------  ---------------      ----- ------------  ---------------
    66      4.315512   3 C  s                98     -4.048485   4 C  s         
    45     -3.710560   2 C  pz               97     -3.654747   4 C  s         
    36      3.186341   2 C  s                41     -2.725890   2 C  py        
    72     -2.499568   3 C  py              104     -2.480361   4 C  pz        
    42     -2.332610   2 C  pz               40      2.301790   2 C  px        
 
 Vector   61  Occ=0.000000D+00  E= 1.105654D+00
              MO Center=  3.6D-01,  5.9D-02,  6.0D-02, r^2= 3.8D+00
   Bfn.  Coefficient  Atom+Function         Bfn.  Coefficient  Atom+Function  
  ----- ------------  ---------------      ----- ------------  ---------------
    36      7.645757   2 C  s                67     -5.420536   3 C  s         
    98     -2.903435   4 C  s                66      2.277271   3 C  s         
   126     -1.990283   5 H  s                45     -1.926525   2 C  pz        
    72     -1.672949   3 C  py              132      1.668903   6 H  s         
    41     -1.546477   2 C  py               53      1.465179   2 C  d  0      
 
 Vector   62  Occ=0.000000D+00  E= 1.148783D+00
              MO Center=  6.3D-01,  1.7D-02, -3.0D-02, r^2= 3.6D+00
   Bfn.  Coefficient  Atom+Function         Bfn.  Coefficient  Atom+Function  
  ----- ------------  ---------------      ----- ------------  ---------------
    67      5.255716   3 C  s                36     -3.999657   2 C  s         
    44     -2.421339   2 C  py              126      1.891239   5 H  s         
    97     -1.745206   4 C  s                43      1.579843   2 C  px        
    54      1.585005   2 C  d  1             55      1.484186   2 C  d  2      
    75     -1.436550   3 C  py               42     -1.414606   2 C  pz        
 
 Vector   63  Occ=0.000000D+00  E= 1.216177D+00
              MO Center=  5.6D-01,  2.1D-01, -1.3D-01, r^2= 3.8D+00
   Bfn.  Coefficient  Atom+Function         Bfn.  Coefficient  Atom+Function  
  ----- ------------  ---------------      ----- ------------  ---------------
    36      7.018094   2 C  s                66     -5.224490   3 C  s         
    67     -3.521978   3 C  s                97     -3.335564   4 C  s         
    35      3.293757   2 C  s                72      2.020701   3 C  py        
    51     -1.810223   2 C  d -2             52      1.677726   2 C  d -1      
   138      1.657474   7 H  s                41      1.605327   2 C  py        
 
 Vector   64  Occ=0.000000D+00  E= 1.349888D+00
              MO Center=  3.4D-01,  5.4D-01,  2.3D-01, r^2= 3.6D+00
   Bfn.  Coefficient  Atom+Function         Bfn.  Coefficient  Atom+Function  
  ----- ------------  ---------------      ----- ------------  ---------------
    66      4.646467   3 C  s                35      3.941329   2 C  s         
    67     -3.093721   3 C  s                36     -2.665499   2 C  s         
    65     -2.413749   3 C  s               132     -2.074696   6 H  s         
    34     -1.446328   2 C  s               133      1.431690   6 H  s         
    72      1.411021   3 C  py              139      1.091297   7 H  s         
 
 Vector   65  Occ=0.000000D+00  E= 1.416884D+00
              MO Center=  1.6D-01,  5.2D-01, -4.8D-02, r^2= 3.4D+00
   Bfn.  Coefficient  Atom+Function         Bfn.  Coefficient  Atom+Function  
  ----- ------------  ---------------      ----- ------------  ---------------
    36     -4.219849   2 C  s                66     -3.964920   3 C  s         
    35      3.845319   2 C  s                67      3.824804   3 C  s         
    73      2.313944   3 C  pz              138      2.243872   7 H  s         
   139     -2.210394   7 H  s               126     -1.798810   5 H  s         
    76     -1.675220   3 C  pz               65      1.593953   3 C  s         
 
 Vector   66  Occ=0.000000D+00  E= 1.433029D+00
              MO Center=  1.1D+00, -4.9D-01, -1.2D+00, r^2= 3.5D+00
   Bfn.  Coefficient  Atom+Function         Bfn.  Coefficient  Atom+Function  
  ----- ------------  ---------------      ----- ------------  ---------------
    98     10.357985   4 C  s                97     -7.751887   4 C  s         
    96      3.134094   4 C  s               145     -2.427375   8 H  s         
    36     -2.389975   2 C  s               151     -2.383053   9 H  s         
   157     -2.163741  10 H  s               150      1.726635   9 H  s         
   144      1.682842   8 H  s               104      1.480904   4 C  pz        
 
 Vector   67  Occ=0.000000D+00  E= 1.443926D+00
              MO Center=  3.7D-01,  8.5D-03, -8.8D-02, r^2= 4.1D+00
   Bfn.  Coefficient  Atom+Function         Bfn.  Coefficient  Atom+Function  
  ----- ------------  ---------------      ----- ------------  ---------------
    66      4.194899   3 C  s                35     -3.290613   2 C  s         
    67     -2.819287   3 C  s                98      2.814124   4 C  s         
    45      2.075476   2 C  pz              133      2.011083   6 H  s         
    36      1.930684   2 C  s                76     -1.912943   3 C  pz        
   127     -1.750690   5 H  s                65     -1.497358   3 C  s         
 
 Vector   68  Occ=0.000000D+00  E= 1.446974D+00
              MO Center=  3.3D-01, -6.3D-03, -1.8D-01, r^2= 3.1D+00
   Bfn.  Coefficient  Atom+Function         Bfn.  Coefficient  Atom+Function  
  ----- ------------  ---------------      ----- ------------  ---------------
    98      4.554289   4 C  s                36     -2.714529   2 C  s         
    97     -2.496907   4 C  s                 5      2.063433   1 O  s         
    45      1.820953   2 C  pz               35     -1.202951   2 C  s         
   127     -1.178425   5 H  s                96      1.053026   4 C  s         
    44     -1.040546   2 C  py               40      0.974560   2 C  px        
 
 Vector   69  Occ=0.000000D+00  E= 1.474293D+00
              MO Center=  9.5D-01, -2.5D-01, -9.6D-01, r^2= 3.5D+00
   Bfn.  Coefficient  Atom+Function         Bfn.  Coefficient  Atom+Function  
  ----- ------------  ---------------      ----- ------------  ---------------
    36      1.996631   2 C  s                66      1.890661   3 C  s         
    67     -1.430043   3 C  s               103      1.308782   4 C  py        
     5     -1.205487   1 O  s                98     -1.061003   4 C  s         
   156     -0.996273  10 H  s               150      0.970195   9 H  s         
    97      0.935166   4 C  s                71     -0.872473   3 C  px        
 
 Vector   70  Occ=0.000000D+00  E= 1.477986D+00
              MO Center=  9.3D-01, -3.8D-01, -9.9D-01, r^2= 3.5D+00
   Bfn.  Coefficient  Atom+Function         Bfn.  Coefficient  Atom+Function  
  ----- ------------  ---------------      ----- ------------  ---------------
   156     -2.575659  10 H  s                36      2.419206   2 C  s         
    66     -2.145189   3 C  s               102     -2.087609   4 C  px        
   157      1.983908  10 H  s               104     -1.740659   4 C  pz        
   126      1.620132   5 H  s               103      1.454715   4 C  py        
   144      1.380488   8 H  s               127     -1.231269   5 H  s         
 
 Vector   71  Occ=0.000000D+00  E= 1.514628D+00
              MO Center=  3.5D-01,  1.1D-01, -3.4D-01, r^2= 4.0D+00
   Bfn.  Coefficient  Atom+Function         Bfn.  Coefficient  Atom+Function  
  ----- ------------  ---------------      ----- ------------  ---------------
    98      2.502779   4 C  s               144      1.866460   8 H  s         
   102     -1.584975   4 C  px              103     -1.402020   4 C  py        
   145     -1.404147   8 H  s                45      1.322937   2 C  pz        
    97     -1.040478   4 C  s               150     -1.018254   9 H  s         
    66      0.946610   3 C  s               106      0.779300   4 C  py        
 
 Vector   72  Occ=0.000000D+00  E= 1.543291D+00
              MO Center=  3.2D-01,  4.7D-01, -1.9D-01, r^2= 4.6D+00
   Bfn.  Coefficient  Atom+Function         Bfn.  Coefficient  Atom+Function  
  ----- ------------  ---------------      ----- ------------  ---------------
    36      4.378406   2 C  s                98     -3.714674   4 C  s         
    35     -3.682419   2 C  s                97      3.154676   4 C  s         
    67     -2.461131   3 C  s                73      2.129773   3 C  pz        
   132     -1.751913   6 H  s               133      1.405978   6 H  s         
   138      1.371099   7 H  s               102     -1.342673   4 C  px        
 
 Vector   73  Occ=0.000000D+00  E= 1.574771D+00
              MO Center=  5.0D-01, -3.9D-02, -8.8D-02, r^2= 3.2D+00
   Bfn.  Coefficient  Atom+Function         Bfn.  Coefficient  Atom+Function  
  ----- ------------  ---------------      ----- ------------  ---------------
    35      3.846745   2 C  s                36     -3.200069   2 C  s         
    40     -2.310732   2 C  px               67      2.093616   3 C  s         
    72      1.915258   3 C  py              126      1.810607   5 H  s         
    97     -1.799658   4 C  s                66     -1.678728   3 C  s         
    34     -1.514443   2 C  s                98      1.460708   4 C  s         
 
 Vector   74  Occ=0.000000D+00  E= 1.596675D+00
              MO Center=  3.1D-01,  4.2D-01, -1.4D-01, r^2= 3.4D+00
   Bfn.  Coefficient  Atom+Function         Bfn.  Coefficient  Atom+Function  
  ----- ------------  ---------------      ----- ------------  ---------------
    66     -5.334806   3 C  s                36     -5.169098   2 C  s         
    35      5.081417   2 C  s                67      3.871699   3 C  s         
    41      3.805060   2 C  py               71     -2.660397   3 C  px        
    72      2.376355   3 C  py               40     -1.985390   2 C  px        
    98      1.815883   4 C  s                82      1.738545   3 C  d -2      
 
 Vector   75  Occ=0.000000D+00  E= 1.641297D+00
              MO Center=  4.4D-01,  1.9D-01, -9.6D-03, r^2= 3.7D+00
   Bfn.  Coefficient  Atom+Function         Bfn.  Coefficient  Atom+Function  
  ----- ------------  ---------------      ----- ------------  ---------------
    66      2.874525   3 C  s                35      2.183387   2 C  s         
    98      2.051340   4 C  s                 5     -2.009807   1 O  s         
    97     -1.660025   4 C  s                67     -1.400318   3 C  s         
   104     -1.139837   4 C  pz              144      1.127090   8 H  s         
    41     -1.067911   2 C  py              103     -1.052447   4 C  py        
 
 Vector   76  Occ=0.000000D+00  E= 1.696219D+00
              MO Center=  5.9D-01,  7.3D-02, -4.2D-01, r^2= 3.6D+00
   Bfn.  Coefficient  Atom+Function         Bfn.  Coefficient  Atom+Function  
  ----- ------------  ---------------      ----- ------------  ---------------
    97     -5.388301   4 C  s                35      5.152780   2 C  s         
   104     -2.745410   4 C  pz               42     -2.689659   2 C  pz        
   102      1.837591   4 C  px               66     -1.667294   3 C  s         
    40      1.591046   2 C  px               34     -1.510664   2 C  s         
    96      1.490969   4 C  s                54      1.107968   2 C  d  1      
 
 Vector   77  Occ=0.000000D+00  E= 1.699588D+00
              MO Center= -6.1D-02,  3.2D-01, -6.4D-02, r^2= 3.7D+00
   Bfn.  Coefficient  Atom+Function         Bfn.  Coefficient  Atom+Function  
  ----- ------------  ---------------      ----- ------------  ---------------
     5      3.855317   1 O  s                72      3.387966   3 C  py        
    36     -2.498160   2 C  s                97      2.145864   4 C  s         
   138     -2.032339   7 H  s                66     -1.875046   3 C  s         
    42      1.727458   2 C  pz               41      1.510075   2 C  py        
    12      1.480212   1 O  px              104      1.449984   4 C  pz        
 
 Vector   78  Occ=0.000000D+00  E= 1.790496D+00
              MO Center=  3.7D-01,  2.7D-01,  3.1D-02, r^2= 3.5D+00
   Bfn.  Coefficient  Atom+Function         Bfn.  Coefficient  Atom+Function  
  ----- ------------  ---------------      ----- ------------  ---------------
    35      3.103905   2 C  s                97     -2.718360   4 C  s         
    36      1.805131   2 C  s                45     -1.323840   2 C  pz        
   104     -1.152510   4 C  pz               67     -1.095330   3 C  s         
    42     -1.016946   2 C  pz               72      1.001070   3 C  py        
     5     -0.972959   1 O  s               102      0.904602   4 C  px        
 
 Vector   79  Occ=0.000000D+00  E= 1.814809D+00
              MO Center= -6.2D-01,  2.0D-01,  1.9D-01, r^2= 2.6D+00
   Bfn.  Coefficient  Atom+Function         Bfn.  Coefficient  Atom+Function  
  ----- ------------  ---------------      ----- ------------  ---------------
    35      4.317046   2 C  s                 5     -3.309856   1 O  s         
    40     -2.524830   2 C  px               41      2.235539   2 C  py        
    72      2.101232   3 C  py               66     -2.000090   3 C  s         
    71     -1.795497   3 C  px               12     -1.373216   1 O  px        
   132     -1.047997   6 H  s               138     -1.025618   7 H  s         
 
 Vector   80  Occ=0.000000D+00  E= 1.845456D+00
              MO Center=  1.3D-01,  2.3D-01, -1.2D-01, r^2= 3.7D+00
   Bfn.  Coefficient  Atom+Function         Bfn.  Coefficient  Atom+Function  
  ----- ------------  ---------------      ----- ------------  ---------------
    35      1.792313   2 C  s                36     -1.090091   2 C  s         
   156     -0.965964  10 H  s               104     -0.884162   4 C  pz        
    97     -0.765306   4 C  s                71     -0.690111   3 C  px        
    41     -0.679890   2 C  py              126     -0.681181   5 H  s         
   157      0.674343  10 H  s               150      0.632245   9 H  s         
 
 Vector   81  Occ=0.000000D+00  E= 1.867322D+00
              MO Center=  5.0D-01,  1.8D-01, -4.5D-01, r^2= 4.0D+00
   Bfn.  Coefficient  Atom+Function         Bfn.  Coefficient  Atom+Function  
  ----- ------------  ---------------      ----- ------------  ---------------
    35      6.683344   2 C  s                66     -4.519607   3 C  s         
    72      3.558473   3 C  py               97     -3.324855   4 C  s         
    36      2.250470   2 C  s               104     -1.865459   4 C  pz        
    34     -1.641236   2 C  s                67     -1.648957   3 C  s         
    41      1.620712   2 C  py               45     -1.417073   2 C  pz        
 
 Vector   82  Occ=0.000000D+00  E= 1.922919D+00
              MO Center=  3.2D-01, -1.5D-01, -3.0D-01, r^2= 3.2D+00
   Bfn.  Coefficient  Atom+Function         Bfn.  Coefficient  Atom+Function  
  ----- ------------  ---------------      ----- ------------  ---------------
    36      1.454441   2 C  s                98     -1.410148   4 C  s         
    45     -1.281291   2 C  pz              103     -1.199716   4 C  py        
    97     -1.122028   4 C  s                35      1.046354   2 C  s         
    66     -0.949267   3 C  s                41      0.858036   2 C  py        
   150     -0.758389   9 H  s                42     -0.744209   2 C  pz        
 
 Vector   83  Occ=0.000000D+00  E= 1.991642D+00
              MO Center=  9.0D-01, -2.6D-01, -4.7D-01, r^2= 3.4D+00
   Bfn.  Coefficient  Atom+Function         Bfn.  Coefficient  Atom+Function  
  ----- ------------  ---------------      ----- ------------  ---------------
    98      4.013278   4 C  s                35      3.739639   2 C  s         
    66     -2.815489   3 C  s                40     -2.195919   2 C  px        
    36     -2.157195   2 C  s                72      1.985065   3 C  py        
    41      1.769739   2 C  py               43     -1.421112   2 C  px        
    71     -1.341233   3 C  px              107      1.283843   4 C  pz        
 
 Vector   84  Occ=0.000000D+00  E= 1.995565D+00
              MO Center=  5.4D-01, -5.7D-02, -6.1D-01, r^2= 3.5D+00
   Bfn.  Coefficient  Atom+Function         Bfn.  Coefficient  Atom+Function  
  ----- ------------  ---------------      ----- ------------  ---------------
    36      4.066622   2 C  s                98     -3.358933   4 C  s         
    45     -2.045352   2 C  pz               67     -1.704489   3 C  s         
    35     -1.449505   2 C  s               156      1.013281  10 H  s         
     5     -0.966966   1 O  s               104      0.929885   4 C  pz        
   107     -0.839998   4 C  pz               40     -0.759397   2 C  px        
 
 Vector   85  Occ=0.000000D+00  E= 2.091622D+00
              MO Center=  1.3D-02,  1.3D-01, -5.1D-02, r^2= 3.6D+00
   Bfn.  Coefficient  Atom+Function         Bfn.  Coefficient  Atom+Function  
  ----- ------------  ---------------      ----- ------------  ---------------
    98      2.282432   4 C  s                36     -1.922962   2 C  s         
   156     -0.798560  10 H  s               138      0.743951   7 H  s         
    14      0.648377   1 O  pz               41     -0.634584   2 C  py        
    40      0.606100   2 C  px               45      0.607052   2 C  pz        
   150     -0.559709   9 H  s               144     -0.550506   8 H  s         
 
 Vector   86  Occ=0.000000D+00  E= 2.098126D+00
              MO Center= -3.8D-01,  6.0D-02,  6.8D-02, r^2= 2.9D+00
   Bfn.  Coefficient  Atom+Function         Bfn.  Coefficient  Atom+Function  
  ----- ------------  ---------------      ----- ------------  ---------------
    36      6.045283   2 C  s                67     -5.729219   3 C  s         
    35     -3.475401   2 C  s                66      3.431546   3 C  s         
    41     -3.111914   2 C  py               71      2.817385   3 C  px        
    13      1.896416   1 O  py               82     -1.502579   3 C  d -2      
    55      1.366171   2 C  d  2             75      1.356821   3 C  py        
 
 Vector   87  Occ=0.000000D+00  E= 2.166591D+00
              MO Center=  5.0D-01, -5.6D-02, -4.8D-01, r^2= 3.2D+00
   Bfn.  Coefficient  Atom+Function         Bfn.  Coefficient  Atom+Function  
  ----- ------------  ---------------      ----- ------------  ---------------
    98      2.123697   4 C  s                67     -1.916960   3 C  s         
    35     -1.350622   2 C  s                73      1.050782   3 C  pz        
    36      0.941200   2 C  s               156     -0.860460  10 H  s         
    44      0.849489   2 C  py               43     -0.835447   2 C  px        
    40      0.826891   2 C  px               45      0.728957   2 C  pz        
 
 Vector   88  Occ=0.000000D+00  E= 2.201697D+00
              MO Center=  4.4D-01,  2.0D-01, -3.1D-01, r^2= 3.7D+00
   Bfn.  Coefficient  Atom+Function         Bfn.  Coefficient  Atom+Function  
  ----- ------------  ---------------      ----- ------------  ---------------
    98      2.164066   4 C  s                36     -1.278933   2 C  s         
    45      1.081631   2 C  pz               76     -0.947296   3 C  pz        
   132      0.823948   6 H  s                42     -0.732665   2 C  pz        
   103     -0.676507   4 C  py              117     -0.618655   4 C  d  2      
    97     -0.599683   4 C  s               138     -0.601151   7 H  s         
 
 Vector   89  Occ=0.000000D+00  E= 2.228638D+00
              MO Center=  6.2D-01,  3.3D-02, -4.1D-02, r^2= 3.5D+00
   Bfn.  Coefficient  Atom+Function         Bfn.  Coefficient  Atom+Function  
  ----- ------------  ---------------      ----- ------------  ---------------
    36      3.021135   2 C  s                67     -1.642557   3 C  s         
     5     -1.136476   1 O  s                98     -1.127163   4 C  s         
    42     -1.070007   2 C  pz               72     -0.925224   3 C  py        
    66      0.738104   3 C  s               102      0.720515   4 C  px        
    43     -0.711066   2 C  px               35     -0.703241   2 C  s         
 
 Vector   90  Occ=0.000000D+00  E= 2.246166D+00
              MO Center=  7.7D-01, -2.5D-01, -8.0D-01, r^2= 3.5D+00
   Bfn.  Coefficient  Atom+Function         Bfn.  Coefficient  Atom+Function  
  ----- ------------  ---------------      ----- ------------  ---------------
   150      1.351223   9 H  s                36      1.202368   2 C  s         
    66     -0.933654   3 C  s               144     -0.892954   8 H  s         
    67     -0.840619   3 C  s               117      0.824478   4 C  d  2      
    72      0.793154   3 C  py               98     -0.765979   4 C  s         
    83      0.513124   3 C  d -1            138      0.511527   7 H  s         
 
 Vector   91  Occ=0.000000D+00  E= 2.265353D+00
              MO Center=  9.3D-01, -2.7D-01, -1.1D+00, r^2= 3.0D+00
   Bfn.  Coefficient  Atom+Function         Bfn.  Coefficient  Atom+Function  
  ----- ------------  ---------------      ----- ------------  ---------------
    66      2.441608   3 C  s                36      2.025978   2 C  s         
    41     -1.615426   2 C  py               67     -1.512066   3 C  s         
    35     -1.377099   2 C  s                72     -1.097179   3 C  py        
    98     -1.088375   4 C  s                71      0.964005   3 C  px        
   156      0.914943  10 H  s               126     -0.893379   5 H  s         
 
 Vector   92  Occ=0.000000D+00  E= 2.282324D+00
              MO Center=  4.9D-01,  1.3D-01, -2.2D-01, r^2= 3.6D+00
   Bfn.  Coefficient  Atom+Function         Bfn.  Coefficient  Atom+Function  
  ----- ------------  ---------------      ----- ------------  ---------------
    98      3.653074   4 C  s                36     -2.427686   2 C  s         
[...]
    21     -0.876359   1 O  d -1             42     -0.811236   2 C  pz        
    45     -0.717684   2 C  pz               97     -0.688421   4 C  s         
    98     -0.546711   4 C  s                 5     -0.500831   1 O  s         
    67     -0.494301   3 C  s                83     -0.496415   3 C  d -1      
 
 Vector  154  Occ=0.000000D+00  E= 6.680931D+00
              MO Center= -8.7D-01, -1.8D-01,  2.0D-01, r^2= 5.7D-01
   Bfn.  Coefficient  Atom+Function         Bfn.  Coefficient  Atom+Function  
  ----- ------------  ---------------      ----- ------------  ---------------
    18      1.062923   1 O  d  1             23     -1.043413   1 O  d  1      
    97     -0.839645   4 C  s                42     -0.786132   2 C  pz        
    35      0.745420   2 C  s               102      0.634148   4 C  px        
    54     -0.549438   2 C  d  1             14      0.407709   1 O  pz        
    11      0.397302   1 O  pz               16     -0.391014   1 O  d -1      
 
 Vector  155  Occ=0.000000D+00  E= 6.843875D+00
              MO Center= -8.8D-01, -1.9D-01,  2.0D-01, r^2= 5.9D-01
   Bfn.  Coefficient  Atom+Function         Bfn.  Coefficient  Atom+Function  
  ----- ------------  ---------------      ----- ------------  ---------------
     5      2.109483   1 O  s                40      1.779563   2 C  px        
     9      1.368363   1 O  px               97     -1.291668   4 C  s         
     4      1.218692   1 O  s                20      1.053872   1 O  d -2      
    42     -0.974044   2 C  pz               12      0.845754   1 O  px        
    35     -0.847476   2 C  s                15     -0.834250   1 O  d -2      
 
 Vector  156  Occ=0.000000D+00  E= 7.055088D+00
              MO Center= -8.9D-01, -1.9D-01,  2.0D-01, r^2= 6.3D-01
   Bfn.  Coefficient  Atom+Function         Bfn.  Coefficient  Atom+Function  
  ----- ------------  ---------------      ----- ------------  ---------------
    66     -3.155016   3 C  s                35      3.014067   2 C  s         
    40     -2.698389   2 C  px               72      2.661955   3 C  py        
    24     -1.575844   1 O  d  2             36      1.466289   2 C  s         
    67     -1.313822   3 C  s                10      1.279200   1 O  py        
    19      1.016373   1 O  d  2             13      0.869197   1 O  py        
 
 Vector  157  Occ=0.000000D+00  E= 2.194912D+01
              MO Center=  1.6D-01,  6.8D-01, -3.3D-02, r^2= 1.4D+00
   Bfn.  Coefficient  Atom+Function         Bfn.  Coefficient  Atom+Function  
  ----- ------------  ---------------      ----- ------------  ---------------
    64      1.521991   3 C  s                65     -1.287674   3 C  s         
    67     -1.212611   3 C  s                63     -1.198958   3 C  s         
    98      1.186507   4 C  s                95     -0.857656   4 C  s         
    96      0.713024   4 C  s                94      0.678127   4 C  s         
    35      0.619867   2 C  s                40     -0.512473   2 C  px        
 
 Vector  158  Occ=0.000000D+00  E= 2.198496D+01
              MO Center=  8.6D-01, -2.1D-01, -7.1D-01, r^2= 1.2D+00
   Bfn.  Coefficient  Atom+Function         Bfn.  Coefficient  Atom+Function  
  ----- ------------  ---------------      ----- ------------  ---------------
    95      1.424483   4 C  s                96     -1.315340   4 C  s         
    98     -1.145421   4 C  s                94     -1.120636   4 C  s         
    34     -0.909484   2 C  s                36     -0.826759   2 C  s         
    33      0.816968   2 C  s                65     -0.713517   3 C  s         
    64      0.674967   3 C  s                32     -0.637743   2 C  s         
 
 Vector  159  Occ=0.000000D+00  E= 2.211250D+01
              MO Center=  5.6D-01, -5.8D-02, -2.4D-03, r^2= 6.6D-01
   Bfn.  Coefficient  Atom+Function         Bfn.  Coefficient  Atom+Function  
  ----- ------------  ---------------      ----- ------------  ---------------
    36      2.227209   2 C  s                33     -1.563405   2 C  s         
    34      1.533429   2 C  s                67     -1.269641   3 C  s         
    35     -1.248163   2 C  s                32      1.223751   2 C  s         
    98     -1.168874   4 C  s                97      0.710785   4 C  s         
    95      0.601971   4 C  s                64      0.597823   3 C  s         
 
 Vector  160  Occ=0.000000D+00  E= 4.341762D+01
              MO Center= -8.8D-01, -1.8D-01,  2.1D-01, r^2= 1.2D-01
   Bfn.  Coefficient  Atom+Function         Bfn.  Coefficient  Atom+Function  
  ----- ------------  ---------------      ----- ------------  ---------------
     4      2.516468   1 O  s                 3     -1.876808   1 O  s         
     2      1.731692   1 O  s                 1     -1.395868   1 O  s         
     5     -0.874415   1 O  s                36      0.830526   2 C  s         
     9      0.566449   1 O  px               66     -0.527110   3 C  s         
    40      0.468952   2 C  px               72      0.462105   3 C  py        
 

 center of mass
 --------------
 x =   0.30619344 y =   0.09486546 z =  -0.27792469

 moments of inertia (a.u.)
 ------------------
         199.745541793879          45.480167796577          83.886949958140
          45.480167796577         247.771582477597         -52.618329573751
          83.886949958140         -52.618329573751         237.946078082707
 
     Multipole analysis of the density
     ---------------------------------
 
     L   x y z        total         alpha         beta         nuclear
     -   - - -        -----         -----         ----         -------
     0   0 0 0     -0.000000    -16.000000    -16.000000     32.000000
 
     1   1 0 0      0.686096     -6.214813     -6.214813     13.115721
     1   0 1 0      0.324736     -1.618134     -1.618134      3.561003
     1   0 0 1     -0.057568      5.319541      5.319541    -10.696650
 
     2   2 0 0    -20.038582    -54.214947    -54.214947     88.391312
     2   1 1 0     -1.103123     13.847861     13.847861    -28.798844
     2   1 0 1      0.133917     26.523891     26.523891    -52.913865
     2   0 2 0    -17.849618    -40.315327    -40.315327     62.781036
     2   0 1 1      0.250471    -15.387648    -15.387648     31.025767
     2   0 0 2    -18.164062    -45.814621    -45.814621     73.465180
 
 *** CALLING NEW AORESP DRIVER FOR CLOSED AND OPEN SHELLS ***
 Entering AOResponse driver routine


--------------------------------------------------------------------------------

          ****************
          *** RESPONSE ***
          ****************

 Response module for NWChem and dynamic CPKS solver
 developed by J. Autschbach and coworkers, SUNY Buffalo
 The methodology used in this program is described in 
 ChemPhysChem 12 (2011), 3224-3235 (main reference)
 J. Chem. Phys. 123 (2005), 114103
 J. Chem. Phys. 122 (2005), 224115
 J. Chem. Phys. 122 (2005), 074105
 Comp. Lett. 3 (2007), 131-150 (contact JA for a copy)
 Please cite this work in publications based on results
 obtained with this code. Thank you!

 For extension of response module to open shell
 calculations please acknowledge:
 F. Aquino, Northwestern University, Schatz Rsrch Group
 The update to the methodology is described in
 J. Phys. Chem. A 118 (2014) 517-525



          -----------------------------------------------
          Solving response equations for perturbing field
          -----------------------------------------------

 number of frequencies:     1
 frequency in a.u.:  0.9319600E-01
 Perturbing field: electric
 Using GIAO formalism for OptRot
 Adding quadrupole terms to OptRot
 to create an origin in dependent tensor.
 Using El. Dipole Length Gauge
 
 Applying DAMPING constant of  0.003700 a.u.
 
 Setting up CPKS
 with frequency omega =      0.09319600 a.u.
 and a damping of            0.00370000 a.u.

 
                            NWChem Dynamic CPHF Module
                            --------------------------
 
 
    scftype = RHF 
    nclosed =   16
      nopen =    0
  variables =     9216
  num. vecs =        3
  tolerance =   1.0D-07
  max. iter =  100

 SCF residual:   4.610040400206181E-006


Iterative solution of linear equations
  No. of variables     4608
  No. of equations        3
  Maximum subspace       99
       Convergence  1.0D-07
        Start time     95.0


   iter   nsub   residual    time 
   ----  ------  --------  --------- 
 dft_CPHF2_read: failed to open
 ./methyloxirane_blyp-def2-tzvp_488.9_37.inp.aoresp_fiao_f1
     1      3    3.90D+00     144.7
     2      6    2.66D+00     194.6
     3      9    2.41D-01     244.4
     4     12    5.72D-02     294.3
     5     15    1.04D-02     344.4
     6     18    1.30D-03     394.4
     7     21    1.43D-04     444.3
     8     24    1.32D-05     494.2
     9     27    1.25D-06     544.3
    10     30    4.63D-07     594.1
    11     33    1.47D-08     644.2

 Calculating some arrays needed for GIAO optical rotation

    0 giaofock schwarz done =      95.07%
    0 giaofock schwarz done =      93.23%
 aor_r1_tensor_giao: roadata output requested
 dip-quad polarizability Re:

              1        2        3        4        5        6      
    1   77.1015  -6.1297 -27.7641  -4.4272   1.2405   9.0247
    2  -11.5384  25.5081   3.3949  23.0882 -21.7419   4.0775
    3   -6.7896   1.1363  39.1960  -0.2903  13.9240 -40.8636
 traceless dip-quad polarizability:

              1        2        3      
    1   74.8028  -9.1946 -41.6461
    2   -9.1946 -47.4903   1.8607
    3  -41.6461   1.8607 -27.3125

              1        2        3      
    1  -25.1213  38.2621   5.0924
    2   38.2621  26.8187 -32.6128
    3    5.0924 -32.6128  -1.6974

              1        2        3      
    1   13.7873   1.7045  58.7940
    2    1.7045  23.5364  20.8861
    3   58.7940  20.8861 -37.3237

 roa begin

 alpha real:
 XX       0.4084035330592E+02
 XY      -0.5107562109722E+01
 XZ      -0.3042383712216E+01
 YX      -0.5107562115184E+01
 YY       0.4383166284850E+02
 YZ       0.3122279345120E+01
 ZX      -0.3042383719437E+01
 ZY       0.3122279345461E+01
 ZZ       0.4149343139501E+02

 alpha im:
 XX       0.1100205679141E+00
 XY      -0.2911144356816E-01
 XZ      -0.1096336887639E-01
 YX      -0.2911143959055E-01
 YY       0.1276602923427E+00
 YZ       0.1791890193885E-01
 ZX      -0.1096336543019E-01
 ZY       0.1791890239779E-01
 ZZ       0.1228335030212E+00

 beta real:
 XX      -0.1390801495087E+00
 XY       0.9473523524951E+00
 XZ       0.1961416232307E+00
 YX      -0.8922345131577E+00
 YY       0.1423348399131E+00
 YZ      -0.1545560244892E+01
 ZX      -0.4874131413211E+00
 ZY       0.1880763526104E+01
 ZZ      -0.4411066393634E-02

 G-prime = -omega beta(real):
 XX      -0.1390801495087E+00
 XY       0.9473523524951E+00
 XZ       0.1961416232307E+00
 YX      -0.8922345131577E+00
 YY       0.1423348399131E+00
 YZ      -0.1545560244892E+01
 ZX      -0.4874131413211E+00
 ZY       0.1880763526104E+01
 ZZ      -0.4411066393634E-02

 beta im:
 XX      -0.5949978595598E-02
 XY       0.1361865075241E-01
 XZ       0.2679105144114E-02
 YX      -0.7704745876505E-02
 YY       0.4637633664493E-02
 YZ      -0.2340399969134E-01
 ZX      -0.1376827609624E-01
 ZY       0.4059230036943E-01
 ZZ       0.6236113834776E-03

 G-prime = -omega beta(imag):
 XX      -0.5949978595598E-02
 XY       0.1361865075241E-01
 XZ       0.2679105144114E-02
 YX      -0.7704745876505E-02
 YY       0.4637633664493E-02
 YZ      -0.2340399969134E-01
 ZX      -0.1376827609624E-01
 ZY       0.4059230036943E-01
 ZZ       0.6236113834776E-03

 dipole-quadrupole real (Cartesian):
 XXX      0.7710154452813E+02
 XXY     -0.6129708085007E+01
 XXZ     -0.2776409197076E+02
 XYY     -0.4427229836206E+01
 XYZ      0.1240464910113E+01
 XZZ      0.9024670086205E+01
 YXX     -0.1153838833824E+02
 YXY      0.2550809226731E+02
 YXZ      0.3394949201912E+01
 YYY      0.2308822371420E+02
 YYZ     -0.2174185041617E+02
 YZZ      0.4077506106220E+01
 ZXX     -0.6789631862350E+01
 ZXY      0.1136334235353E+01
 ZXZ      0.3919600908620E+02
 ZYY     -0.2902759090328E+00
 ZYZ      0.1392404691988E+02
 ZZZ     -0.4086362041716E+02

 dipole-quadrupole imag (Cartesian):
 XXX      0.2691733084400E+00
 XXY     -0.3432801511509E-01
 XXZ     -0.7732363652881E-01
 XYY     -0.2766213844571E-01
 XYZ      0.2695030853345E-02
 XZZ      0.6039736394717E-01
 YXX     -0.5549910117523E-01
 YXY      0.6162000701174E-01
 YXZ      0.1951501221457E-01
 YYY      0.9146821496757E-01
 YYZ     -0.6119839133225E-01
 YZZ      0.1054223115786E-01
 ZXX     -0.3470499376452E-01
 ZXY      0.9023805557109E-04
 ZXZ      0.1454602473777E+00
 ZYY      0.4379505599361E-02
 ZYZ      0.6683620590637E-01
 ZZZ     -0.9353589819053E-01

 dipole-quadrupole (traceless):
 XXX      0.7480282440313E+02
 XXY     -0.9194562127510E+01
 XXZ     -0.4164613795615E+02
 XYY     -0.4749033714337E+02
 XYZ      0.1860697365169E+01
 XZZ     -0.2731248725976E+02
 YXX     -0.2512125324844E+02
 YXY      0.3826213840096E+02
 YXZ      0.5092423802868E+01
 YYY      0.2681866483020E+02
 YYZ     -0.3261277562425E+02
 YZZ     -0.1697411581760E+01
 ZXX      0.1378731630075E+02
 ZXY      0.1704501353030E+01
 ZXZ      0.5879401362929E+02
 ZYY      0.2353635023072E+02
 ZYZ      0.2088607037981E+02
 ZZZ     -0.3732366653147E+02

 roa end


 Electric Dipole Response Matrix (nonzero elements):

              1        2        3      
    1   40.8404  -5.1076  -3.0424
    2   -5.1076  43.8317   3.1223
    3   -3.0424   3.1223  41.4934
 
 Imaginary part:

              1        2        3      
    1    0.1100  -0.0291  -0.0110
    2   -0.0291   0.1277   0.0179
    3   -0.0110   0.0179   0.1228

 ------------------------------------------
 average:        42.05515 + I       0.12017


 DFT Linear Response polarizability / au 
 Frequency  =       0.0931960 / au
 Wavelength =     488.8981609 / nm
              X              Y              Z
 -----------------------------------------------
 X      40.8403533     -5.1075621     -3.0423837
 Y      -5.1075621     43.8316628      3.1222793
 Z      -3.0423837      3.1222793     41.4934314
 -----------------------------------------------
 Eigenvalues =      36.9029150     49.8902023     39.3723303
 Isotropic   =      42.0551492
 Anisotropic =       9.7535169
 -----------------------------------------------
 *************************

 DFT Linear Response IMAG polarizability / au 
 Frequency  =       0.0931960 / au
 Wavelength =     488.8981609 / nm
              X              Y              Z
 -----------------------------------------------
 X       0.1100206     -0.0291114     -0.0109634
 Y      -0.0291114      0.1276603      0.0179189
 Z      -0.0109634      0.0179189      0.1228335
 -----------------------------------------------
 Eigenvalues =       0.0882941      0.1608031      0.1114172
 Isotropic   =       0.1201715
 Anisotropic =       0.0523806
 -----------------------------------------------
 *************************

 Magnetic Dipole Response Matrix (nonzero elements):
 Optical rotation tensor Beta
 (Buckingham-Dunn version including dipole-quadrupole terms)

              1        2        3      
    1    2.6216  -0.4150   0.4532
    2   -0.4150  -1.5793  -1.7394
    3    0.4532  -1.7394  -1.0299
 
 Imaginary part:

              1        2        3      
    1    0.0638  -0.1461  -0.0287
    2    0.0827  -0.0498   0.2511
    3    0.1477  -0.4356  -0.0067

 ------------------------------------------
 average:         0.00414 + I       0.00246

 Principal components and PAS (Real part)
                 -3.06563
                  2.78378
                  0.29426
 ------------------------
 average:         0.00414

              1        2        3      
    1    0.0038   0.9669  -0.2551
    2    0.7607  -0.1684  -0.6269
    3    0.6491   0.1917   0.7361

 Chiral response tensor (Real part):

              1        2        3      
    1   -1.3046   0.2075  -0.2266
    2    0.2075   0.7959   0.8697
    3   -0.2266   0.8697   0.5212
 
 Principal components and PAS (Real part)
                  1.53902
                 -1.38569
                 -0.14093
 ------------------------
 average:         0.00414

              1        2        3      
    1    0.0038   0.9669  -0.2551
    2    0.7607  -0.1684  -0.6269
    3    0.6491   0.1917   0.7361
 Exiting AOResponse driver routine

 Task  times  cpu:      618.1s     wall:      637.9s
 
 
                                NWChem Input Module
                                -------------------
 
 
 Summary of allocated global arrays
-----------------------------------
  No active global arrays



                         GA Statistics for process    0
                         ------------------------------

       create   destroy   get      put      acc     scatter   gather  read&inc
calls: 3294     3294     7.09e+06 3.14e+06 6.78e+05 2694        0     1125     
number of processes/call 1.01e+00 1.03e+00 1.42e+00 0.00e+00 0.00e+00
bytes total:             1.70e+09 1.26e+08 1.63e+09 1.84e+02 0.00e+00 9.00e+03
bytes remote:            7.32e+08 3.29e+07 9.09e+08 0.00e+00 0.00e+00 0.00e+00
Max memory consumed for GA by this process: 11242192 bytes
 
MA_summarize_allocated_blocks: starting scan ...
MA_summarize_allocated_blocks: scan completed: 0 heap blocks, 0 stack blocks
MA usage statistics:

	allocation statistics:
					      heap	     stack
					      ----	     -----
	current number of blocks	         0	         0
	maximum number of blocks	        24	        52
	current total bytes		         0	         0
	maximum total bytes		   7519856	  48954984
	maximum total K-bytes		      7520	     48955
	maximum total M-bytes		         8	        49
 
 
                                     CITATION
                                     --------
                Please cite the following reference when publishing
                           results obtained with NWChem:
 
                 M. Valiev, E.J. Bylaska, N. Govind, K. Kowalski,
              T.P. Straatsma, H.J.J. van Dam, D. Wang, J. Nieplocha,
                        E. Apra, T.L. Windus, W.A. de Jong
                 "NWChem: a comprehensive and scalable open-source
                  solution for large scale molecular simulations"
                      Comput. Phys. Commun. 181, 1477 (2010)
                           doi:10.1016/j.cpc.2010.04.018
 
                                      AUTHORS
                                      -------
          E. Apra, E. J. Bylaska, W. A. de Jong, N. Govind, K. Kowalski,
       T. P. Straatsma, M. Valiev, H. J. J. van Dam, D. Wang, T. L. Windus,
        J. Hammond, J. Autschbach, K. Bhaskaran-Nair, J. Brabec, K. Lopata,
    S. A. Fischer, S. Krishnamoorthy, M. Jacquelin, W. Ma, M. Klemm, O. Villa,
      Y. Chen, V. Anisimov, F. Aquino, S. Hirata, M. T. Hackler, V. Konjkov,
            D. Mejia-Rodriguez, T. Risthaus, M. Malagoli, A. Marenich,
   A. Otero-de-la-Roza, J. Mullin, P. Nichols, R. Peverati, J. Pittner, Y. Zhao,
        P.-D. Fan, A. Fonari, M. J. Williamson, R. J. Harrison, J. R. Rehr,
      M. Dupuis, D. Silverstein, D. M. A. Smith, J. Nieplocha, V. Tipparaju,
    M. Krishnan, B. E. Van Kuiken, A. Vazquez-Mayagoitia, L. Jensen, M. Swart,
      Q. Wu, T. Van Voorhis, A. A. Auer, M. Nooijen, L. D. Crosby, E. Brown,
      G. Cisneros, G. I. Fann, H. Fruchtl, J. Garza, K. Hirao, R. A. Kendall,
      J. A. Nichols, K. Tsemekhman, K. Wolinski, J. Anchell, D. E. Bernholdt,
      P. Borowski, T. Clark, D. Clerc, H. Dachsel, M. J. O. Deegan, K. Dyall,
    D. Elwood, E. Glendening, M. Gutowski, A. C. Hess, J. Jaffe, B. G. Johnson,
     J. Ju, R. Kobayashi, R. Kutteh, Z. Lin, R. Littlefield, X. Long, B. Meng,
      T. Nakajima, S. Niu, L. Pollack, M. Rosing, K. Glaesemann, G. Sandrone,
      M. Stave, H. Taylor, G. Thomas, J. H. van Lenthe, A. T. Wong, Z. Zhang.

 Total times  cpu:      691.0s     wall:      713.6s
