 argument  1 = methyloxirane_blyp-def2-tzvp_488.9_45.inp
 


============================== echo of input deck ==============================
echo
start methyloxirane_blyp-def2-tzvp_488.9_45.inp
title "methyloxirane roa calculations at 488.9 nm, input generated in va  with delta_type=2"
charge 0



geometry units angstrom nocenter noautoz noautosym nucleus point;symmetry c1
 O -0.879089 -0.180304  0.205236
 C  0.574927 -0.158402  0.124049
 C -0.185575  1.088654  0.339971
 C  1.184873 -0.520135 -1.211906
 H  1.049559 -0.595200  0.981057
 H -0.227908  1.537580  1.334309
 H -0.324933  1.780017 -0.490018
 H  2.244612 -0.215079 -1.245811
 H  1.142249 -1.606910 -1.374451
 H  0.655706 -0.030937 -2.027383
end

basis spherical
* library def2-TZVP
end

 set prop:newaoresp 1
 set aor:roadata T
 set cphf:maxsub 100
 set cphf:acc 1.0d-10
 set cphf:maxiter 100

property
    response 1   0.093196
    bdtensor
    convergence 1e-7
    damping 0.0037
    giao
end

dft
 direct
 mult 1
 xc becke88 lyp
 iterations 250
 tolerances tight
 grid xfine
 convergence nolevelshifting
 convergence energy 1e-8
 convergence gradient 1e-7


end

task dft gradient
task dft property
================================================================================


                                         
                                         
 
 
              Northwest Computational Chemistry Package (NWChem) 6.8
              ------------------------------------------------------
 
 
                    Environmental Molecular Sciences Laboratory
                       Pacific Northwest National Laboratory
                                Richland, WA 99352
 
                              Copyright (c) 1994-2017
                       Pacific Northwest National Laboratory
                            Battelle Memorial Institute
 
             NWChem is an open-source computational chemistry package
                        distributed under the terms of the
                      Educational Community License (ECL) 2.0
             A copy of the license is included with this distribution
                              in the LICENSE.TXT file
 
                                  ACKNOWLEDGMENT
                                  --------------

            This software and its documentation were developed at the
            EMSL at Pacific Northwest National Laboratory, a multiprogram
            national laboratory, operated for the U.S. Department of Energy
            by Battelle under Contract Number DE-AC05-76RL01830. Support
            for this work was provided by the Department of Energy Office
            of Biological and Environmental Research, Office of Basic
            Energy Sciences, and the Office of Advanced Scientific Computing.


           Job information
           ---------------

    hostname        = cpn-d11-04.cbls.ccr.buffalo.edu
    program         = /util/academic/nwchem/nwchem-6.8/bin/LINUX64/nwchem
    date            = Fri Mar  1 10:50:32 2019

    compiled        = Tue_Nov_06_14:59:08_2018
    source          = /util/academic/nwchem/nwchem-6.8
    nwchem branch   = 6.8
    nwchem revision = v6.8-47-gdf6c956
    ga revision     = ga-5.6.3
    use scalapack   = F
    input           = methyloxirane_blyp-def2-tzvp_488.9_45.inp
    prefix          = methyloxirane_blyp-def2-tzvp_488.9_45.inp.
    data base       = ./methyloxirane_blyp-def2-tzvp_488.9_45.inp.db
    status          = startup
    nproc           =        7
    time left       =     -1s



           Memory information
           ------------------

    heap     =   13107196 doubles =    100.0 Mbytes
    stack    =   13107201 doubles =    100.0 Mbytes
    global   =   26214400 doubles =    200.0 Mbytes (distinct from heap & stack)
    total    =   52428797 doubles =    400.0 Mbytes
    verify   = yes
    hardfail = no 


           Directory information
           ---------------------
 
  0 permanent = .
  0 scratch   = .
 
 
 
 
                                NWChem Input Module
                                -------------------
 
 
                    methyloxirane roa calculations at 488.9 nm, input generated in va  with delta_type=2
                    ------------------------------------------

 Scaling coordinates for geometry "geometry" by  1.889725989
 (inverse scale =  0.529177249)

 
 
                             Geometry "geometry" -> ""
                             -------------------------
 
 Output coordinates in angstroms (scale by  1.889725989 to convert to a.u.)
 
  No.       Tag          Charge          X              Y              Z
 ---- ---------------- ---------- -------------- -------------- --------------
    1 O                    8.0000    -0.87908900    -0.18030400     0.20523600
    2 C                    6.0000     0.57492700    -0.15840200     0.12404900
    3 C                    6.0000    -0.18557500     1.08865400     0.33997100
    4 C                    6.0000     1.18487300    -0.52013500    -1.21190600
    5 H                    1.0000     1.04955900    -0.59520000     0.98105700
    6 H                    1.0000    -0.22790800     1.53758000     1.33430900
    7 H                    1.0000    -0.32493300     1.78001700    -0.49001800
    8 H                    1.0000     2.24461200    -0.21507900    -1.24581100
    9 H                    1.0000     1.14224900    -1.60691000    -1.37445100
   10 H                    1.0000     0.65570600    -0.03093700    -2.02738300
 
      Atomic Mass 
      ----------- 
 
      O                 15.994910
      C                 12.000000
      H                  1.007825
 

 Effective nuclear repulsion energy (a.u.)     123.6480236881

            Nuclear Dipole moment (a.u.) 
            ----------------------------
        X                 Y               Z
 ---------------- ---------------- ----------------
    13.1372295637     3.5673132274   -10.7104472286
 
 
            XYZ format geometry
            -------------------
    10
 geometry
 O                    -0.87908900    -0.18030400     0.20523600
 C                     0.57492700    -0.15840200     0.12404900
 C                    -0.18557500     1.08865400     0.33997100
 C                     1.18487300    -0.52013500    -1.21190600
 H                     1.04955900    -0.59520000     0.98105700
 H                    -0.22790800     1.53758000     1.33430900
 H                    -0.32493300     1.78001700    -0.49001800
 H                     2.24461200    -0.21507900    -1.24581100
 H                     1.14224900    -1.60691000    -1.37445100
 H                     0.65570600    -0.03093700    -2.02738300
 
 ==============================================================================
                                internuclear distances
 ------------------------------------------------------------------------------
       center one      |      center two      | atomic units |  angstroms
 ------------------------------------------------------------------------------
    2 C                |   1 O                |     2.75228  |     1.45645
    3 C                |   1 O                |     2.74458  |     1.45237
    3 C                |   2 C                |     2.79023  |     1.47653
    4 C                |   2 C                |     2.85821  |     1.51250
    5 H                |   2 C                |     2.02697  |     1.07263
    6 H                |   3 C                |     2.06321  |     1.09180
    7 H                |   3 C                |     2.05823  |     1.08917
    8 H                |   4 C                |     2.08492  |     1.10329
    9 H                |   4 C                |     2.07811  |     1.09969
   10 H                |   4 C                |     2.05654  |     1.08827
 ------------------------------------------------------------------------------
                         number of included internuclear distances:         10
 ==============================================================================



 ==============================================================================
                                 internuclear angles
 ------------------------------------------------------------------------------
        center 1       |       center 2       |       center 3       |  degrees
 ------------------------------------------------------------------------------
    2 C                |   1 O                |   3 C                |    61.01
    2 C                |   1 O                |   3 C                |    61.01
    1 O                |   2 C                |   4 C                |   116.63
    1 O                |   2 C                |   5 H                |   113.02
    3 C                |   2 C                |   4 C                |   122.61
    3 C                |   2 C                |   5 H                |   117.07
    4 C                |   2 C                |   5 H                |   115.46
    3 C                |   1 O                |   2 C                |    61.01
    1 O                |   3 C                |   6 H                |   115.17
    1 O                |   3 C                |   7 H                |   115.01
    2 C                |   3 C                |   6 H                |   120.03
    2 C                |   3 C                |   7 H                |   119.38
    6 H                |   3 C                |   7 H                |   115.34
    2 C                |   4 C                |   8 H                |   110.39
    2 C                |   4 C                |   9 H                |   110.57
    2 C                |   4 C                |  10 H                |   110.99
    8 H                |   4 C                |   9 H                |   107.81
    8 H                |   4 C                |  10 H                |   108.65
    9 H                |   4 C                |  10 H                |   108.34
 ------------------------------------------------------------------------------
                            number of included internuclear angles:         19
 ==============================================================================



  warning:::::::::::::: from_environment
  NWCHEM_BASIS_LIBRARY set to: <
 /util/academic/nwchem/nwchem-6.8/src/basis/libraries>
  but file does not exist !
  using .nwchemrc or compiled library


 Summary of "ao basis" -> "" (spherical)
 ------------------------------------------------------------------------------
       Tag                 Description            Shells   Functions and Types
 ---------------- ------------------------------  ------  ---------------------
 *                         def2-TZVP                  on all atoms 


 
                                 NWChem DFT Module
                                 -----------------
 
 
                    methyloxirane roa calculations at 488.9 nm, input generated in va  with delta_type=2
 
 
                      Basis "ao basis" -> "ao basis" (spherical)
                      -----
  O (Oxygen)
  ----------
            Exponent  Coefficients 
       -------------- ---------------------------------------------------------
  1 S  2.70323826E+04  0.000217
  1 S  4.05238714E+03  0.001684
  1 S  9.22327227E+02  0.008740
  1 S  2.61240710E+02  0.035240
  1 S  8.53546414E+01  0.111535
  1 S  3.10350352E+01  0.255890
 
  2 S  1.22608607E+01  0.397687
  2 S  4.99870760E+00  0.246278
 
  3 S  1.17031082E+00  1.000000
 
  4 S  4.64747410E-01  1.000000
 
  5 S  1.85045364E-01  1.000000
 
  6 P  6.32749548E+01  0.006069
  6 P  1.46270494E+01  0.041913
  6 P  4.45012235E+00  0.161538
  6 P  1.52757996E+00  0.357070
 
  7 P  5.29351179E-01  1.000000
 
  8 P  1.74784213E-01  1.000000
 
  9 D  2.31400000E+00  1.000000
 
 10 D  6.45000000E-01  1.000000
 
 11 F  1.42800000E+00  1.000000
 
  C (Carbon)
  ----------
            Exponent  Coefficients 
       -------------- ---------------------------------------------------------
  1 S  1.35753497E+04  0.000222
  1 S  2.03523337E+03  0.001723
  1 S  4.63225624E+02  0.008926
  1 S  1.31200196E+02  0.035728
  1 S  4.28530159E+01  0.110763
  1 S  1.55841858E+01  0.242956
 
  2 S  6.20671385E+00  0.414403
  2 S  2.57648965E+00  0.237450
 
  3 S  5.76963394E-01  1.000000
 
  4 S  2.29728314E-01  1.000000
 
  5 S  9.51644400E-02  1.000000
 
  6 P  3.46972322E+01  0.005333
  6 P  7.95826228E+00  0.035864
  6 P  2.37808269E+00  0.142159
  6 P  8.14332082E-01  0.342705
 
  7 P  2.88875473E-01  1.000000
 
  8 P  1.00568237E-01  1.000000
 
  9 D  1.09700000E+00  1.000000
 
 10 D  3.18000000E-01  1.000000
 
 11 F  7.61000000E-01  1.000000
 
  H (Hydrogen)
  ------------
            Exponent  Coefficients 
       -------------- ---------------------------------------------------------
  1 S  3.40613410E+01  0.006025
  1 S  5.12357460E+00  0.045021
  1 S  1.16466260E+00  0.201897
 
  2 S  3.27230410E-01  1.000000
 
  3 S  1.03072410E-01  1.000000
 
  4 P  8.00000000E-01  1.000000
 


 Summary of "ao basis" -> "ao basis" (spherical)
 ------------------------------------------------------------------------------
       Tag                 Description            Shells   Functions and Types
 ---------------- ------------------------------  ------  ---------------------
 O                         def2-TZVP                11       31   5s3p2d1f
 C                         def2-TZVP                11       31   5s3p2d1f
 H                         def2-TZVP                 4        6   3s1p




 Summary of "ao basis" -> "ao basis" (spherical)
 ------------------------------------------------------------------------------
       Tag                 Description            Shells   Functions and Types
 ---------------- ------------------------------  ------  ---------------------
 O                         def2-TZVP                11       31   5s3p2d1f
 C                         def2-TZVP                11       31   5s3p2d1f
 H                         def2-TZVP                 4        6   3s1p


  Caching 1-el integrals 
  itol2e modified to match energy
  convergence criterion.
  tol_rho modified to match energy
  convergence criterion.
 
            General Information
            -------------------
          SCF calculation type: DFT
          Wavefunction type:  closed shell.
          No. of atoms     :    10
          No. of electrons :    32
           Alpha electrons :    16
            Beta electrons :    16
          Charge           :     0
          Spin multiplicity:     1
          Use of symmetry is: off; symmetry adaption is: off
          Maximum number of iterations: 250
          This is a Direct SCF calculation.
          AO basis - number of functions:   160
                     number of shells:    68
          Convergence on energy requested:  1.00D-08
          Convergence on density requested:  1.00D-05
          Convergence on gradient requested:  1.00D-07
 
              XC Information
              --------------
                    Becke 1988 Exchange Functional  1.000          
              Lee-Yang-Parr Correlation Functional  1.000          
 
             Grid Information
             ----------------
          Grid used for XC integration:  xfine     
          Radial quadrature: Mura-Knowles        
          Angular quadrature: Lebedev. 
          Tag              B.-S. Rad. Rad. Pts. Rad. Cut. Ang. Pts.
          ---              ---------- --------- --------- ---------
          O                   0.60      100          11.0      1454
          C                   0.70      100          11.0      1454
          H                   0.35      100          12.0      1202
          Grid pruning is: on 
          Number of quadrature shells:  1000
          Spatial weights used:  Erf1
 
          Convergence Information
          -----------------------
          Convergence aids based upon iterative change in 
          total energy or number of iterations. 
          Levelshifting, if invoked, occurs when the 
          HOMO/LUMO gap drops below (HL_TOL):  1.00D-02
          DIIS, if invoked, will attempt to extrapolate 
          using up to (NFOCK): 10 stored Fock matrices.

                    Damping( 0%)  Levelshifting(0.0)       DIIS
                  --------------- ------------------- ---------------
          dE  on:    start             N/A                start   
          dE off:    2 iters           N/A              250 iters 

 
      Screening Tolerance Information
      -------------------------------
          Density screening/tol_rho:  1.00D-11
          AO Gaussian exp screening on grid/accAOfunc:  18
          CD Gaussian exp screening on grid/accCDfunc:  20
          XC Gaussian exp screening on grid/accXCfunc:  20
          Schwarz screening/accCoul:  1.00D-09

 
      Superposition of Atomic Density Guess
      -------------------------------------
 
 Sum of atomic energies:        -190.79714706
 
      Non-variational initial energy
      ------------------------------

 Total energy =    -193.181692
 1-e energy   =    -502.224638
 2-e energy   =     185.394922
 HOMO         =      -0.352540
 LUMO         =       0.090561
 
   Time after variat. SCF:      0.6
   Time prior to 1st pass:      0.6

 Grid_pts file          = ./methyloxirane_blyp-def2-tzvp_488.9_45.inp.gridpts.0
 Record size in doubles =  12289        No. of grid_pts per rec  =   3070
 Max. records in memory =     76        Max. recs in file   =    317624


           Memory utilization after 1st SCF pass: 
           Heap Space remaining (MW):       12.17            12167540
          Stack Space remaining (MW):       13.11            13106124

   convergence    iter        energy       DeltaE   RMS-Dens  Diis-err    time
 ---------------- ----- ----------------- --------- --------- ---------  ------
 d= 0,ls=0.0,diis     1   -193.0205456003 -3.17D+02  9.11D-03  1.05D+00     6.9
 d= 0,ls=0.0,diis     2   -192.8624518500  1.58D-01  7.53D-03  2.51D+00    13.0
 d= 0,ls=0.0,diis     3   -193.0764937709 -2.14D-01  1.81D-03  3.90D-01    18.9
 d= 0,ls=0.0,diis     4   -193.1069747839 -3.05D-02  6.69D-04  1.78D-02    24.9
 d= 0,ls=0.0,diis     5   -193.1086062687 -1.63D-03  2.87D-04  2.65D-03    30.9
 d= 0,ls=0.0,diis     6   -193.1089354597 -3.29D-04  3.02D-05  3.57D-05    36.9
 d= 0,ls=0.0,diis     7   -193.1089396568 -4.20D-06  9.78D-06  4.45D-06    42.9
 d= 0,ls=0.0,diis     8   -193.1089401689 -5.12D-07  2.13D-06  3.16D-07    48.9
 d= 0,ls=0.0,diis     9   -193.1089402048 -3.58D-08  6.04D-07  2.14D-08    54.8
 d= 0,ls=0.0,diis    10   -193.1089402069 -2.17D-09  2.14D-07  2.92D-09    60.9


         Total DFT energy =     -193.108940206942
      One electron energy =     -505.904148044962
           Coulomb energy =      216.178836400147
    Exchange-Corr. energy =      -27.031652250265
 Nuclear repulsion energy =      123.648023688137

 Numeric. integr. density =       32.000000013632

     Total iterative time =     60.2s


 
                       DFT Final Molecular Orbital Analysis
                       ------------------------------------
 
 Vector    1  Occ=2.000000D+00  E=-1.877931D+01
              MO Center= -8.8D-01, -1.8D-01,  2.1D-01, r^2= 1.5D-02
   Bfn.  Coefficient  Atom+Function         Bfn.  Coefficient  Atom+Function  
  ----- ------------  ---------------      ----- ------------  ---------------
     2      0.638478   1 O  s                 1      0.435422   1 O  s         
     3      0.039880   1 O  s                 4     -0.033213   1 O  s         
 
 Vector    2  Occ=2.000000D+00  E=-9.961071D+00
              MO Center=  5.7D-01, -1.6D-01,  1.2D-01, r^2= 2.8D-02
   Bfn.  Coefficient  Atom+Function         Bfn.  Coefficient  Atom+Function  
  ----- ------------  ---------------      ----- ------------  ---------------
    33      0.606858   2 C  s                32      0.467236   2 C  s         
    34      0.042597   2 C  s                36      0.037153   2 C  s         
    35     -0.026652   2 C  s         
 
 Vector    3  Occ=2.000000D+00  E=-9.954933D+00
              MO Center= -1.9D-01,  1.1D+00,  3.4D-01, r^2= 2.8D-02
   Bfn.  Coefficient  Atom+Function         Bfn.  Coefficient  Atom+Function  
  ----- ------------  ---------------      ----- ------------  ---------------
    64      0.606997   3 C  s                63      0.467205   3 C  s         
    65      0.039749   3 C  s         
 
 Vector    4  Occ=2.000000D+00  E=-9.907312D+00
              MO Center=  1.2D+00, -5.2D-01, -1.2D+00, r^2= 2.8D-02
   Bfn.  Coefficient  Atom+Function         Bfn.  Coefficient  Atom+Function  
  ----- ------------  ---------------      ----- ------------  ---------------
    95      0.606955   4 C  s                94      0.467214   4 C  s         
    96      0.040626   4 C  s                98      0.035686   4 C  s         
 
 Vector    5  Occ=2.000000D+00  E=-9.618955D-01
              MO Center= -4.7D-01,  5.6D-02,  2.1D-01, r^2= 6.5D-01
   Bfn.  Coefficient  Atom+Function         Bfn.  Coefficient  Atom+Function  
  ----- ------------  ---------------      ----- ------------  ---------------
     4      0.375007   1 O  s                 3      0.277406   1 O  s         
     2     -0.192749   1 O  s                34      0.139822   2 C  s         
    65      0.139101   3 C  s                 5      0.122829   1 O  s         
    35      0.105156   2 C  s                 6      0.093186   1 O  px        
    66      0.093382   3 C  s                69     -0.091196   3 C  py        
 
 Vector    6  Occ=2.000000D+00  E=-6.700240D-01
              MO Center=  9.4D-01, -3.9D-01, -7.6D-01, r^2= 1.6D+00
   Bfn.  Coefficient  Atom+Function         Bfn.  Coefficient  Atom+Function  
  ----- ------------  ---------------      ----- ------------  ---------------
    97      0.283558   4 C  s                96      0.275304   4 C  s         
    35      0.186058   2 C  s                34      0.175428   2 C  s         
    95     -0.173377   4 C  s                 4     -0.148507   1 O  s         
    33     -0.109766   2 C  s                 3     -0.103850   1 O  s         
    94     -0.083079   4 C  s                 5     -0.073642   1 O  s         
 
 Vector    7  Occ=2.000000D+00  E=-5.900251D-01
              MO Center= -1.2D-01,  7.2D-01,  2.2D-01, r^2= 2.0D+00
   Bfn.  Coefficient  Atom+Function         Bfn.  Coefficient  Atom+Function  
  ----- ------------  ---------------      ----- ------------  ---------------
    66      0.325103   3 C  s                65      0.277755   3 C  s         
     4     -0.237907   1 O  s                64     -0.171737   3 C  s         
     3     -0.167957   1 O  s                 5     -0.147618   1 O  s         
     2      0.110920   1 O  s                38      0.103492   2 C  py        
   132      0.102893   6 H  s                97     -0.100480   4 C  s         
 
 Vector    8  Occ=2.000000D+00  E=-5.325603D-01
              MO Center=  4.3D-01,  5.2D-03, -9.2D-02, r^2= 2.7D+00
   Bfn.  Coefficient  Atom+Function         Bfn.  Coefficient  Atom+Function  
  ----- ------------  ---------------      ----- ------------  ---------------
    35      0.299460   2 C  s                34      0.222915   2 C  s         
    97     -0.156160   4 C  s                66     -0.154073   3 C  s         
   126      0.138355   5 H  s                33     -0.137503   2 C  s         
    96     -0.129869   4 C  s               125      0.111268   5 H  s         
     6      0.102323   1 O  px               39      0.102702   2 C  pz        
 
 Vector    9  Occ=2.000000D+00  E=-4.483153D-01
              MO Center=  1.1D-01,  2.8D-01,  2.4D-01, r^2= 2.5D+00
   Bfn.  Coefficient  Atom+Function         Bfn.  Coefficient  Atom+Function  
  ----- ------------  ---------------      ----- ------------  ---------------
    70      0.206526   3 C  pz               39      0.154559   2 C  pz        
   132      0.144565   6 H  s                73      0.129629   3 C  pz        
     8      0.124746   1 O  pz                6     -0.116156   1 O  px        
   126      0.115196   5 H  s                38     -0.108685   2 C  py        
   131      0.107453   6 H  s                37      0.106735   2 C  px        
 
 Vector   10  Occ=2.000000D+00  E=-4.138754D-01
              MO Center=  3.9D-02,  3.0D-01, -2.3D-01, r^2= 2.5D+00
   Bfn.  Coefficient  Atom+Function         Bfn.  Coefficient  Atom+Function  
  ----- ------------  ---------------      ----- ------------  ---------------
    69      0.213850   3 C  py              138      0.156499   7 H  s         
   101      0.154342   4 C  pz                6     -0.142586   1 O  px        
    38     -0.138574   2 C  py               37      0.127983   2 C  px        
    70     -0.123207   3 C  pz               72      0.120589   3 C  py        
     7     -0.119412   1 O  py                9     -0.113922   1 O  px        
 
 Vector   11  Occ=2.000000D+00  E=-3.764364D-01
              MO Center=  9.0D-01, -3.0D-01, -7.3D-01, r^2= 2.7D+00
   Bfn.  Coefficient  Atom+Function         Bfn.  Coefficient  Atom+Function  
  ----- ------------  ---------------      ----- ------------  ---------------
    99      0.211222   4 C  px              144      0.185976   8 H  s         
   100      0.161180   4 C  py              150     -0.137116   9 H  s         
   102      0.135793   4 C  px              143      0.130078   8 H  s         
    37      0.126847   2 C  px                7      0.120201   1 O  py        
     6     -0.116568   1 O  px              103      0.106907   4 C  py        
 
 Vector   12  Occ=2.000000D+00  E=-3.562970D-01
              MO Center=  6.1D-01, -3.7D-01, -8.9D-01, r^2= 2.8D+00
   Bfn.  Coefficient  Atom+Function         Bfn.  Coefficient  Atom+Function  
  ----- ------------  ---------------      ----- ------------  ---------------
   100      0.258763   4 C  py              150     -0.188972   9 H  s         
   156      0.176223  10 H  s               103      0.167437   4 C  py        
     7     -0.165630   1 O  py               10     -0.132439   1 O  py        
   149     -0.131697   9 H  s               155      0.125133  10 H  s         
    70      0.112771   3 C  pz              106      0.104131   4 C  py        
 
 Vector   13  Occ=2.000000D+00  E=-3.294081D-01
              MO Center=  3.8D-01,  2.7D-01, -2.1D-01, r^2= 2.8D+00
   Bfn.  Coefficient  Atom+Function         Bfn.  Coefficient  Atom+Function  
  ----- ------------  ---------------      ----- ------------  ---------------
    39      0.232476   2 C  pz              101     -0.209366   4 C  pz        
    70     -0.181626   3 C  pz              138      0.163355   7 H  s         
    42      0.156885   2 C  pz              104     -0.145750   4 C  pz        
     7     -0.138198   1 O  py              132     -0.119035   6 H  s         
   126      0.115723   5 H  s                73     -0.112125   3 C  pz        
 
 Vector   14  Occ=2.000000D+00  E=-3.222889D-01
              MO Center=  3.6D-01, -6.8D-02, -2.5D-01, r^2= 3.0D+00
   Bfn.  Coefficient  Atom+Function         Bfn.  Coefficient  Atom+Function  
  ----- ------------  ---------------      ----- ------------  ---------------
     7      0.227163   1 O  py               10      0.185893   1 O  py        
    99     -0.172994   4 C  px                6     -0.155547   1 O  px        
   126      0.147154   5 H  s               156      0.144506  10 H  s         
   144     -0.143107   8 H  s                37      0.141782   2 C  px        
     9     -0.127599   1 O  px               68     -0.111963   3 C  px        
 
 Vector   15  Occ=2.000000D+00  E=-2.631259D-01
              MO Center=  1.6D-02,  1.5D-01,  3.6D-02, r^2= 2.3D+00
   Bfn.  Coefficient  Atom+Function         Bfn.  Coefficient  Atom+Function  
  ----- ------------  ---------------      ----- ------------  ---------------
    68      0.264046   3 C  px               38      0.256045   2 C  py        
     6     -0.237564   1 O  px               41      0.199770   2 C  py        
    71      0.196359   3 C  px                9     -0.185802   1 O  px        
    12     -0.157278   1 O  px              150      0.114976   9 H  s         
   100     -0.110858   4 C  py               67      0.107630   3 C  s         
 
 Vector   16  Occ=2.000000D+00  E=-2.194409D-01
              MO Center= -5.8D-01, -2.5D-02,  2.0D-01, r^2= 1.6D+00
   Bfn.  Coefficient  Atom+Function         Bfn.  Coefficient  Atom+Function  
  ----- ------------  ---------------      ----- ------------  ---------------
     8      0.449775   1 O  pz               11      0.358194   1 O  pz        
    14      0.296872   1 O  pz              133     -0.131487   6 H  s         
   139      0.116635   7 H  s               132     -0.104338   6 H  s         
   138      0.103743   7 H  s               145     -0.102371   8 H  s         
   126     -0.094741   5 H  s                98      0.089310   4 C  s         
 
 Vector   17  Occ=0.000000D+00  E= 2.610710D-02
              MO Center=  1.2D+00, -1.0D-01, -6.7D-01, r^2= 7.2D+00
   Bfn.  Coefficient  Atom+Function         Bfn.  Coefficient  Atom+Function  
  ----- ------------  ---------------      ----- ------------  ---------------
    98      4.567652   4 C  s               145     -1.557763   8 H  s         
   151     -1.522484   9 H  s               157     -1.377924  10 H  s         
   127     -1.229455   5 H  s                45      1.131175   2 C  pz        
   139     -0.892391   7 H  s                67      0.700751   3 C  s         
   133     -0.592994   6 H  s                75      0.328094   3 C  py        
 
 Vector   18  Occ=0.000000D+00  E= 4.287493D-02
              MO Center= -1.3D-01,  6.7D-01,  1.1D-01, r^2= 4.4D+00
   Bfn.  Coefficient  Atom+Function         Bfn.  Coefficient  Atom+Function  
  ----- ------------  ---------------      ----- ------------  ---------------
    98     -2.080906   4 C  s                36      1.945570   2 C  s         
     5     -1.273790   1 O  s                74     -0.943638   3 C  px        
   151      0.795631   9 H  s                45     -0.489984   2 C  pz        
    13     -0.438052   1 O  py               44      0.415135   2 C  py        
    67     -0.413747   3 C  s               157      0.411404  10 H  s         
 
 Vector   19  Occ=0.000000D+00  E= 5.055228D-02
              MO Center=  3.1D-01,  9.0D-01,  6.6D-02, r^2= 6.5D+00
   Bfn.  Coefficient  Atom+Function         Bfn.  Coefficient  Atom+Function  
  ----- ------------  ---------------      ----- ------------  ---------------
    67      3.791269   3 C  s                98     -1.796065   4 C  s         
    36     -1.470875   2 C  s               139     -1.410002   7 H  s         
   133     -1.372067   6 H  s               145      1.114442   8 H  s         
    44     -1.051630   2 C  py               45     -0.641723   2 C  pz        
    74      0.554094   3 C  px              127      0.552381   5 H  s         
 
 Vector   20  Occ=0.000000D+00  E= 5.303066D-02
              MO Center=  6.4D-01,  1.4D-01,  3.0D-01, r^2= 7.3D+00
   Bfn.  Coefficient  Atom+Function         Bfn.  Coefficient  Atom+Function  
  ----- ------------  ---------------      ----- ------------  ---------------
    98      2.854503   4 C  s                36     -2.556620   2 C  s         
   127      2.124910   5 H  s               157     -1.369128  10 H  s         
   133      1.337368   6 H  s               139     -0.830756   7 H  s         
    43     -0.799028   2 C  px               76     -0.783201   3 C  pz        
   145     -0.544624   8 H  s                44      0.502029   2 C  py        
 
 Vector   21  Occ=0.000000D+00  E= 6.476806D-02
              MO Center=  2.7D-01,  1.5D-01, -1.9D-01, r^2= 4.9D+00
   Bfn.  Coefficient  Atom+Function         Bfn.  Coefficient  Atom+Function  
  ----- ------------  ---------------      ----- ------------  ---------------
   139      1.324822   7 H  s                98      1.172910   4 C  s         
    67     -1.088487   3 C  s               151     -0.958546   9 H  s         
     5     -0.857652   1 O  s                43     -0.800122   2 C  px        
   133      0.569571   6 H  s                75     -0.552188   3 C  py        
   127     -0.519580   5 H  s                12     -0.478968   1 O  px        
 
 Vector   22  Occ=0.000000D+00  E= 8.640332D-02
              MO Center=  1.4D+00,  1.2D-01, -5.5D-01, r^2= 7.0D+00
   Bfn.  Coefficient  Atom+Function         Bfn.  Coefficient  Atom+Function  
  ----- ------------  ---------------      ----- ------------  ---------------
    36      2.764099   2 C  s               145      2.109804   8 H  s         
    67     -1.358734   3 C  s               127     -1.309756   5 H  s         
   157     -1.283079  10 H  s               133      1.109883   6 H  s         
   105     -1.090572   4 C  px              107     -1.061088   4 C  pz        
    98     -0.810840   4 C  s                75      0.746015   3 C  py        
 
 Vector   23  Occ=0.000000D+00  E= 9.139424D-02
              MO Center=  1.1D+00, -5.8D-01, -4.7D-01, r^2= 6.8D+00
   Bfn.  Coefficient  Atom+Function         Bfn.  Coefficient  Atom+Function  
  ----- ------------  ---------------      ----- ------------  ---------------
    36      2.871011   2 C  s               151      2.021315   9 H  s         
    98     -1.424915   4 C  s               145     -1.362388   8 H  s         
   106      1.103435   4 C  py               67     -1.057678   3 C  s         
   133      1.026469   6 H  s               105      1.012611   4 C  px        
   127     -0.987790   5 H  s               107     -0.811757   4 C  pz        
 
 Vector   24  Occ=0.000000D+00  E= 1.033481D-01
              MO Center=  4.5D-01,  4.0D-01, -1.1D+00, r^2= 6.7D+00
   Bfn.  Coefficient  Atom+Function         Bfn.  Coefficient  Atom+Function  
  ----- ------------  ---------------      ----- ------------  ---------------
   157      2.118403  10 H  s                98     -1.610026   4 C  s         
   133      1.554777   6 H  s               106     -1.483195   4 C  py        
   139     -1.461299   7 H  s               151     -1.383255   9 H  s         
    36      1.345957   2 C  s                76     -1.117915   3 C  pz        
   105      1.046882   4 C  px               45     -0.601471   2 C  pz        
 
 Vector   25  Occ=0.000000D+00  E= 1.395324D-01
              MO Center=  7.9D-01,  2.0D-01, -4.1D-01, r^2= 7.9D+00
   Bfn.  Coefficient  Atom+Function         Bfn.  Coefficient  Atom+Function  
  ----- ------------  ---------------      ----- ------------  ---------------
    36      4.482651   2 C  s                98     -3.538373   4 C  s         
    45     -3.473288   2 C  pz              127      2.919211   5 H  s         
    67     -2.781786   3 C  s                76      2.184687   3 C  pz        
   105      2.083093   4 C  px              133     -1.807800   6 H  s         
   139      1.710001   7 H  s               107     -1.534505   4 C  pz        
 
 Vector   26  Occ=0.000000D+00  E= 1.706674D-01
              MO Center=  4.6D-01,  5.2D-01, -1.4D-01, r^2= 7.3D+00
   Bfn.  Coefficient  Atom+Function         Bfn.  Coefficient  Atom+Function  
  ----- ------------  ---------------      ----- ------------  ---------------
    75      2.297314   3 C  py              107      1.647519   4 C  pz        
    36      1.490204   2 C  s                67     -1.496593   3 C  s         
   139     -1.229610   7 H  s               157      1.123466  10 H  s         
    74     -0.973336   3 C  px               44      0.715151   2 C  py        
   106     -0.592497   4 C  py               43     -0.587141   2 C  px        
 
 Vector   27  Occ=0.000000D+00  E= 1.976881D-01
              MO Center=  8.4D-01, -7.8D-02, -9.7D-01, r^2= 5.1D+00
   Bfn.  Coefficient  Atom+Function         Bfn.  Coefficient  Atom+Function  
  ----- ------------  ---------------      ----- ------------  ---------------
    67      3.080099   3 C  s                44     -2.604373   2 C  py        
   106      2.004807   4 C  py               36     -1.654911   2 C  s         
    43      1.007743   2 C  px               74      0.722187   3 C  px        
   157     -0.696386  10 H  s               105      0.659842   4 C  px        
    45     -0.655060   2 C  pz              150      0.641707   9 H  s         
 
 Vector   28  Occ=0.000000D+00  E= 2.021492D-01
              MO Center=  9.3D-01, -4.5D-01, -6.8D-01, r^2= 6.7D+00
   Bfn.  Coefficient  Atom+Function         Bfn.  Coefficient  Atom+Function  
  ----- ------------  ---------------      ----- ------------  ---------------
    36      2.639274   2 C  s                75      1.689161   3 C  py        
   105     -1.439468   4 C  px              133     -1.238363   6 H  s         
   107     -0.906402   4 C  pz              106      0.781648   4 C  py        
    45      0.774943   2 C  pz              139     -0.774603   7 H  s         
   156     -0.717321  10 H  s                76      0.664068   3 C  pz        
 
 Vector   29  Occ=0.000000D+00  E= 2.364951D-01
              MO Center= -2.9D-01,  3.9D-01, -6.1D-02, r^2= 5.4D+00
   Bfn.  Coefficient  Atom+Function         Bfn.  Coefficient  Atom+Function  
  ----- ------------  ---------------      ----- ------------  ---------------
    67      4.510454   3 C  s                36     -3.125664   2 C  s         
   139     -1.564230   7 H  s                66     -1.447024   3 C  s         
    98      1.277075   4 C  s               133     -1.248099   6 H  s         
   107      1.009964   4 C  pz               74     -0.795127   3 C  px        
     5     -0.750598   1 O  s               106      0.752726   4 C  py        
 
 Vector   30  Occ=0.000000D+00  E= 2.474432D-01
              MO Center=  5.2D-01,  4.1D-02, -9.2D-02, r^2= 5.9D+00
   Bfn.  Coefficient  Atom+Function         Bfn.  Coefficient  Atom+Function  
  ----- ------------  ---------------      ----- ------------  ---------------
    67      5.970103   3 C  s                43      4.155639   2 C  px        
    75     -3.003091   3 C  py               44     -2.594462   2 C  py        
    36     -2.086505   2 C  s               107     -2.031478   4 C  pz        
   157     -1.880296  10 H  s                45     -1.394635   2 C  pz        
    98     -1.231131   4 C  s               105     -1.199052   4 C  px        
 
 Vector   31  Occ=0.000000D+00  E= 2.693717D-01
              MO Center=  2.8D-01, -1.9D-01,  2.3D-01, r^2= 5.7D+00
   Bfn.  Coefficient  Atom+Function         Bfn.  Coefficient  Atom+Function  
  ----- ------------  ---------------      ----- ------------  ---------------
    36      4.563681   2 C  s                 5     -2.294746   1 O  s         
    67      2.129978   3 C  s                43     -1.618855   2 C  px        
   105      1.541528   4 C  px               98     -1.192853   4 C  s         
    66     -1.185050   3 C  s               127     -1.006595   5 H  s         
   139     -0.952686   7 H  s               133     -0.866116   6 H  s         
 
 Vector   32  Occ=0.000000D+00  E= 2.779912D-01
              MO Center=  4.4D-01,  3.6D-01,  3.0D-01, r^2= 4.1D+00
   Bfn.  Coefficient  Atom+Function         Bfn.  Coefficient  Atom+Function  
  ----- ------------  ---------------      ----- ------------  ---------------
    36      2.264588   2 C  s                67     -1.729426   3 C  s         
     5     -1.640848   1 O  s                43     -1.224094   2 C  px        
    74     -0.738185   3 C  px               45     -0.678371   2 C  pz        
    98     -0.627165   4 C  s               145      0.572312   8 H  s         
     4      0.487814   1 O  s                66      0.446305   3 C  s         
 
 Vector   33  Occ=0.000000D+00  E= 3.016553D-01
              MO Center=  4.3D-01,  3.6D-01, -4.0D-01, r^2= 4.9D+00
   Bfn.  Coefficient  Atom+Function         Bfn.  Coefficient  Atom+Function  
  ----- ------------  ---------------      ----- ------------  ---------------
    43      1.894183   2 C  px               98     -1.760457   4 C  s         
   106      1.737080   4 C  py              151      1.692139   9 H  s         
    76      1.364838   3 C  pz               44     -1.243640   2 C  py        
    36     -1.030010   2 C  s               107     -1.029506   4 C  pz        
    66      1.019876   3 C  s               139      0.981222   7 H  s         
 
 Vector   34  Occ=0.000000D+00  E= 3.377093D-01
              MO Center=  1.1D-01,  4.3D-01, -4.1D-01, r^2= 5.9D+00
   Bfn.  Coefficient  Atom+Function         Bfn.  Coefficient  Atom+Function  
  ----- ------------  ---------------      ----- ------------  ---------------
    67      4.509774   3 C  s                76     -3.999944   3 C  pz        
   139     -3.189203   7 H  s                36     -2.399810   2 C  s         
   133      2.045910   6 H  s               157     -1.818568  10 H  s         
   107     -1.789559   4 C  pz               98      1.571210   4 C  s         
    43      1.354062   2 C  px               44     -1.102375   2 C  py        
 
 Vector   35  Occ=0.000000D+00  E= 3.630745D-01
              MO Center=  8.0D-01, -2.7D-02, -4.8D-01, r^2= 6.9D+00
   Bfn.  Coefficient  Atom+Function         Bfn.  Coefficient  Atom+Function  
  ----- ------------  ---------------      ----- ------------  ---------------
    98      8.654594   4 C  s                97     -3.409019   4 C  s         
   145     -3.394802   8 H  s                76      3.348685   3 C  pz        
   133     -2.471782   6 H  s               151     -2.061355   9 H  s         
    45     -1.888019   2 C  pz              157     -1.645531  10 H  s         
   139      1.466025   7 H  s                44      1.411178   2 C  py        
 
 Vector   36  Occ=0.000000D+00  E= 3.743355D-01
              MO Center=  4.5D-01,  3.7D-01,  1.4D-02, r^2= 6.0D+00
   Bfn.  Coefficient  Atom+Function         Bfn.  Coefficient  Atom+Function  
  ----- ------------  ---------------      ----- ------------  ---------------
    36     13.045085   2 C  s                67     -9.197040   3 C  s         
    98     -7.488314   4 C  s               127     -2.713005   5 H  s         
    44      2.581764   2 C  py              157      2.030224  10 H  s         
    97      1.951306   4 C  s                75      1.901294   3 C  py        
    35     -1.871475   2 C  s                74     -1.779682   3 C  px        
 
 Vector   37  Occ=0.000000D+00  E= 3.848544D-01
              MO Center=  9.4D-01, -3.6D-01, -8.5D-02, r^2= 6.3D+00
   Bfn.  Coefficient  Atom+Function         Bfn.  Coefficient  Atom+Function  
  ----- ------------  ---------------      ----- ------------  ---------------
    36      7.300054   2 C  s                98      4.591977   4 C  s         
   127     -4.355684   5 H  s                67     -3.941435   3 C  s         
    45      3.136673   2 C  pz               35     -2.387463   2 C  s         
   151     -2.302908   9 H  s               145     -2.228524   8 H  s         
    76     -2.143017   3 C  pz              133      1.949640   6 H  s         
 
 Vector   38  Occ=0.000000D+00  E= 3.960122D-01
              MO Center=  1.6D-01,  8.2D-02, -2.2D-01, r^2= 6.3D+00
   Bfn.  Coefficient  Atom+Function         Bfn.  Coefficient  Atom+Function  
  ----- ------------  ---------------      ----- ------------  ---------------
    98     12.960007   4 C  s                45      5.721076   2 C  pz        
    36     -4.754528   2 C  s                67     -3.778146   3 C  s         
    76     -3.151429   3 C  pz              157     -2.826776  10 H  s         
   133      2.280335   6 H  s               107      1.959316   4 C  pz        
    44      1.837534   2 C  py               43     -1.719290   2 C  px        
 
 Vector   39  Occ=0.000000D+00  E= 4.027495D-01
              MO Center= -2.2D-01,  2.2D-01,  3.3D-01, r^2= 6.4D+00
   Bfn.  Coefficient  Atom+Function         Bfn.  Coefficient  Atom+Function  
  ----- ------------  ---------------      ----- ------------  ---------------
    67     12.368342   3 C  s                36    -10.439617   2 C  s         
    45      4.495966   2 C  pz               44     -4.096970   2 C  py        
    98      3.268654   4 C  s               127     -3.150134   5 H  s         
    66     -2.748764   3 C  s                43      2.709807   2 C  px        
   139     -2.264375   7 H  s               133     -2.100160   6 H  s         
 
 Vector   40  Occ=0.000000D+00  E= 4.156988D-01
              MO Center=  8.9D-01, -4.3D-01, -8.8D-01, r^2= 5.8D+00
   Bfn.  Coefficient  Atom+Function         Bfn.  Coefficient  Atom+Function  
  ----- ------------  ---------------      ----- ------------  ---------------
    98      7.483956   4 C  s                36     -3.899478   2 C  s         
    45      3.171415   2 C  pz              105     -2.624305   4 C  px        
   151     -2.613866   9 H  s               157     -2.008315  10 H  s         
   145      1.788240   8 H  s                97     -1.198270   4 C  s         
   127     -1.139550   5 H  s               144     -0.971962   8 H  s         
 
 Vector   41  Occ=0.000000D+00  E= 4.278725D-01
              MO Center=  4.2D-01,  2.7D-01, -1.2D-01, r^2= 6.7D+00
   Bfn.  Coefficient  Atom+Function         Bfn.  Coefficient  Atom+Function  
  ----- ------------  ---------------      ----- ------------  ---------------
    36      8.612788   2 C  s                67     -4.593853   3 C  s         
    98     -3.178800   4 C  s                44      2.626477   2 C  py        
    75      2.587922   3 C  py              151      2.221518   9 H  s         
    43     -1.784054   2 C  px               74     -1.446448   3 C  px        
   132      1.350337   6 H  s               133     -1.279412   6 H  s         
 
 Vector   42  Occ=0.000000D+00  E= 4.489824D-01
              MO Center=  5.5D-02, -8.1D-02, -2.2D-01, r^2= 6.0D+00
   Bfn.  Coefficient  Atom+Function         Bfn.  Coefficient  Atom+Function  
  ----- ------------  ---------------      ----- ------------  ---------------
    36     10.102760   2 C  s                98     -9.786766   4 C  s         
    45     -5.995228   2 C  pz               67     -3.278331   3 C  s         
   127      3.107178   5 H  s                76      2.621615   3 C  pz        
    44      2.323756   2 C  py              157      2.207088  10 H  s         
    35     -2.013631   2 C  s               106     -2.003560   4 C  py        
 
 Vector   43  Occ=0.000000D+00  E= 4.612408D-01
              MO Center=  1.4D-01,  6.9D-01, -6.3D-01, r^2= 5.3D+00
   Bfn.  Coefficient  Atom+Function         Bfn.  Coefficient  Atom+Function  
  ----- ------------  ---------------      ----- ------------  ---------------
   139      3.238197   7 H  s               157     -2.576807  10 H  s         
   107     -2.366941   4 C  pz               75     -2.149321   3 C  py        
    45     -1.919389   2 C  pz               43      1.581487   2 C  px        
    44     -1.516141   2 C  py              138     -1.366369   7 H  s         
    76      1.136596   3 C  pz               98     -1.016593   4 C  s         
 
 Vector   44  Occ=0.000000D+00  E= 4.720488D-01
              MO Center=  4.9D-01,  2.1D-01,  1.6D-01, r^2= 5.5D+00
   Bfn.  Coefficient  Atom+Function         Bfn.  Coefficient  Atom+Function  
  ----- ------------  ---------------      ----- ------------  ---------------
    36      3.564875   2 C  s                98     -3.463492   4 C  s         
   133      1.676940   6 H  s               127     -1.520728   5 H  s         
   145      1.488131   8 H  s               126      1.297298   5 H  s         
   132     -1.196013   6 H  s               107     -1.132406   4 C  pz        
    35     -1.089741   2 C  s                45     -1.089915   2 C  pz        
 
 Vector   45  Occ=0.000000D+00  E= 5.088680D-01
              MO Center=  8.7D-01, -3.7D-01, -9.2D-01, r^2= 4.8D+00
   Bfn.  Coefficient  Atom+Function         Bfn.  Coefficient  Atom+Function  
  ----- ------------  ---------------      ----- ------------  ---------------
    98     11.295088   4 C  s                36     -7.349857   2 C  s         
    45      4.605208   2 C  pz              107      3.094057   4 C  pz        
   106      1.315277   4 C  py              144     -1.305314   8 H  s         
   156     -1.267835  10 H  s               127     -1.243303   5 H  s         
    14     -1.088381   1 O  pz              150     -1.041345   9 H  s         
 
 Vector   46  Occ=0.000000D+00  E= 5.377458D-01
              MO Center=  1.3D-01, -4.1D-01, -5.1D-01, r^2= 4.4D+00
   Bfn.  Coefficient  Atom+Function         Bfn.  Coefficient  Atom+Function  
  ----- ------------  ---------------      ----- ------------  ---------------
    98     -7.349500   4 C  s                36      6.917462   2 C  s         
    45     -3.679199   2 C  pz               76      3.207586   3 C  pz        
   133     -1.750067   6 H  s               107     -1.531320   4 C  pz        
   105      1.478711   4 C  px              139      1.466108   7 H  s         
     5     -1.154059   1 O  s                14     -1.127814   1 O  pz        
 
 Vector   47  Occ=0.000000D+00  E= 6.578101D-01
              MO Center= -3.8D-01,  3.4D-02, -2.0D-02, r^2= 4.3D+00
   Bfn.  Coefficient  Atom+Function         Bfn.  Coefficient  Atom+Function  
  ----- ------------  ---------------      ----- ------------  ---------------
    36     11.657317   2 C  s                67     -8.953540   3 C  s         
    98     -4.155415   4 C  s                43     -2.589022   2 C  px        
    75      2.420540   3 C  py               13      2.221483   1 O  py        
    76      2.076997   3 C  pz              105      1.595463   4 C  px        
   139      1.535044   7 H  s                44      1.463507   2 C  py        
 
 Vector   48  Occ=0.000000D+00  E= 6.749734D-01
              MO Center= -3.0D-01,  3.6D-01,  1.3D-01, r^2= 3.9D+00
   Bfn.  Coefficient  Atom+Function         Bfn.  Coefficient  Atom+Function  
  ----- ------------  ---------------      ----- ------------  ---------------
    36      8.100285   2 C  s                67     -7.983081   3 C  s         
     5      2.987866   1 O  s                75      2.597016   3 C  py        
    13      2.124413   1 O  py               98     -2.105900   4 C  s         
    43     -1.308278   2 C  px               45     -1.268656   2 C  pz        
     4     -1.109485   1 O  s                44      1.018993   2 C  py        
 
 Vector   49  Occ=0.000000D+00  E= 7.077002D-01
              MO Center=  1.7D-01, -3.2D-01, -2.7D-01, r^2= 4.5D+00
   Bfn.  Coefficient  Atom+Function         Bfn.  Coefficient  Atom+Function  
  ----- ------------  ---------------      ----- ------------  ---------------
    67      9.354353   3 C  s                36     -7.243768   2 C  s         
    43      3.626648   2 C  px               44     -3.452710   2 C  py        
    75     -2.715749   3 C  py               98     -2.523458   4 C  s         
     5      2.316573   1 O  s                12      1.695914   1 O  px        
   106      1.659144   4 C  py               13     -1.288344   1 O  py        
 
 Vector   50  Occ=0.000000D+00  E= 7.628387D-01
              MO Center=  6.4D-01, -6.1D-03, -3.4D-01, r^2= 4.0D+00
   Bfn.  Coefficient  Atom+Function         Bfn.  Coefficient  Atom+Function  
  ----- ------------  ---------------      ----- ------------  ---------------
    45      2.442636   2 C  pz              127     -1.771275   5 H  s         
   105     -1.632991   4 C  px               43      1.497268   2 C  px        
    36      1.488197   2 C  s               126     -1.440709   5 H  s         
     5     -1.331346   1 O  s               144      1.252555   8 H  s         
    76     -1.038668   3 C  pz               66      0.984995   3 C  s         
 
 Vector   51  Occ=0.000000D+00  E= 7.945418D-01
              MO Center=  2.7D-01,  4.5D-02, -1.9D-01, r^2= 4.4D+00
   Bfn.  Coefficient  Atom+Function         Bfn.  Coefficient  Atom+Function  
  ----- ------------  ---------------      ----- ------------  ---------------
     5      4.141958   1 O  s                36     -2.781401   2 C  s         
    76     -2.518801   3 C  pz                4     -1.619584   1 O  s         
    45      1.549899   2 C  pz               12      1.360579   1 O  px        
   133      1.329177   6 H  s                43      1.230330   2 C  px        
    66     -1.057248   3 C  s                35     -1.040892   2 C  s         
 
 Vector   52  Occ=0.000000D+00  E= 8.321829D-01
              MO Center=  3.2D-01,  1.7D-01, -5.8D-03, r^2= 4.4D+00
   Bfn.  Coefficient  Atom+Function         Bfn.  Coefficient  Atom+Function  
  ----- ------------  ---------------      ----- ------------  ---------------
    36      6.585555   2 C  s                98     -4.136677   4 C  s         
     5     -3.894142   1 O  s                43     -2.573562   2 C  px        
   105      1.945268   4 C  px               35     -1.856562   2 C  s         
    45     -1.792484   2 C  pz               44      1.490941   2 C  py        
    66     -1.207689   3 C  s                97      1.081397   4 C  s         
 
 Vector   53  Occ=0.000000D+00  E= 8.546209D-01
              MO Center=  6.1D-01,  1.2D-01, -4.0D-01, r^2= 4.2D+00
   Bfn.  Coefficient  Atom+Function         Bfn.  Coefficient  Atom+Function  
  ----- ------------  ---------------      ----- ------------  ---------------
    98     -4.740664   4 C  s                45     -4.623180   2 C  pz        
    36      4.579271   2 C  s                76      2.053502   3 C  pz        
   127      1.903563   5 H  s               106     -1.576579   4 C  py        
    44      1.515593   2 C  py              105      1.376321   4 C  px        
   150     -1.218582   9 H  s               139      1.084191   7 H  s         
 
 Vector   54  Occ=0.000000D+00  E= 8.714207D-01
              MO Center=  1.7D-01, -4.1D-02, -1.2D-01, r^2= 4.2D+00
   Bfn.  Coefficient  Atom+Function         Bfn.  Coefficient  Atom+Function  
  ----- ------------  ---------------      ----- ------------  ---------------
     5      4.639070   1 O  s                36     -1.808065   2 C  s         
     4     -1.567814   1 O  s               138      1.439559   7 H  s         
    76      1.337226   3 C  pz               67     -1.226733   3 C  s         
    12      1.192878   1 O  px               66     -1.156661   3 C  s         
    98     -0.956640   4 C  s                43      0.873992   2 C  px        
 
 Vector   55  Occ=0.000000D+00  E= 9.206014D-01
              MO Center=  5.1D-01,  3.1D-01, -4.7D-01, r^2= 4.6D+00
   Bfn.  Coefficient  Atom+Function         Bfn.  Coefficient  Atom+Function  
  ----- ------------  ---------------      ----- ------------  ---------------
    35      4.942253   2 C  s                36     -1.705718   2 C  s         
    67      1.450996   3 C  s               132     -1.335171   6 H  s         
    72      1.286190   3 C  py               66     -1.254956   3 C  s         
   156     -1.206895  10 H  s                84      1.165905   3 C  d  0      
    41      1.144085   2 C  py              116     -1.084814   4 C  d  1      
 
 Vector   56  Occ=0.000000D+00  E= 9.613979D-01
              MO Center=  4.4D-01,  3.1D-01, -5.2D-01, r^2= 4.7D+00
   Bfn.  Coefficient  Atom+Function         Bfn.  Coefficient  Atom+Function  
  ----- ------------  ---------------      ----- ------------  ---------------
    35      4.170983   2 C  s                67      2.473283   3 C  s         
   138     -2.408582   7 H  s                76     -1.786760   3 C  pz        
    42     -1.760333   2 C  pz               83     -1.673860   3 C  d -1      
    98     -1.488256   4 C  s               115     -1.447395   4 C  d  0      
   132      1.390655   6 H  s               107     -1.314403   4 C  pz        
 
 Vector   57  Occ=0.000000D+00  E= 9.917101D-01
              MO Center=  3.5D-01,  4.6D-01, -1.4D-01, r^2= 4.1D+00
   Bfn.  Coefficient  Atom+Function         Bfn.  Coefficient  Atom+Function  
  ----- ------------  ---------------      ----- ------------  ---------------
    36      7.432858   2 C  s                98     -4.888976   4 C  s         
    67     -3.988108   3 C  s                45     -3.846345   2 C  pz        
    43     -2.361974   2 C  px               44      2.176073   2 C  py        
   127      1.676849   5 H  s                66     -1.608774   3 C  s         
   126      1.465111   5 H  s                75      1.450669   3 C  py        
 
 Vector   58  Occ=0.000000D+00  E= 1.012001D+00
              MO Center=  3.8D-01,  5.4D-01, -5.3D-02, r^2= 4.3D+00
   Bfn.  Coefficient  Atom+Function         Bfn.  Coefficient  Atom+Function  
  ----- ------------  ---------------      ----- ------------  ---------------
    36      5.442334   2 C  s                67     -4.508337   3 C  s         
    45     -2.203013   2 C  pz               44      1.873289   2 C  py        
    98     -1.707175   4 C  s               156     -1.513546  10 H  s         
    43     -1.347477   2 C  px               82      1.347466   3 C  d -2      
   144      1.341011   8 H  s                74     -1.329461   3 C  px        
 
 Vector   59  Occ=0.000000D+00  E= 1.041885D+00
              MO Center=  7.0D-01, -1.6D-01, -4.7D-01, r^2= 4.2D+00
   Bfn.  Coefficient  Atom+Function         Bfn.  Coefficient  Atom+Function  
  ----- ------------  ---------------      ----- ------------  ---------------
    35      2.686523   2 C  s                36      2.632176   2 C  s         
    66     -2.334397   3 C  s               150      1.951663   9 H  s         
     5     -1.886066   1 O  s               144     -1.895289   8 H  s         
   117      1.720612   4 C  d  2             41      1.525958   2 C  py        
    44      1.364234   2 C  py               67     -1.284414   3 C  s         
 
 Vector   60  Occ=0.000000D+00  E= 1.078948D+00
              MO Center=  6.7D-01,  1.7D-02, -7.1D-02, r^2= 4.1D+00
   Bfn.  Coefficient  Atom+Function         Bfn.  Coefficient  Atom+Function  
  ----- ------------  ---------------      ----- ------------  ---------------
    66     -4.029654   3 C  s                98      4.044656   4 C  s         
    45      3.749487   2 C  pz               97      3.685837   4 C  s         
    36     -3.272336   2 C  s                41      2.558019   2 C  py        
   104      2.535159   4 C  pz               42      2.356219   2 C  pz        
    72      2.344547   3 C  py               53     -2.238435   2 C  d  0      
 
 Vector   61  Occ=0.000000D+00  E= 1.104885D+00
              MO Center=  3.7D-01,  6.3D-02,  6.8D-02, r^2= 3.8D+00
   Bfn.  Coefficient  Atom+Function         Bfn.  Coefficient  Atom+Function  
  ----- ------------  ---------------      ----- ------------  ---------------
    36      7.590964   2 C  s                67     -5.312139   3 C  s         
    98     -3.015338   4 C  s                66      2.145090   3 C  s         
   126     -2.131663   5 H  s                45     -1.984941   2 C  pz        
   132      1.692804   6 H  s                72     -1.614820   3 C  py        
    41     -1.520099   2 C  py               53      1.471159   2 C  d  0      
 
 Vector   62  Occ=0.000000D+00  E= 1.146724D+00
              MO Center=  6.2D-01,  9.5D-03, -2.9D-02, r^2= 3.6D+00
   Bfn.  Coefficient  Atom+Function         Bfn.  Coefficient  Atom+Function  
  ----- ------------  ---------------      ----- ------------  ---------------
    67      5.136153   3 C  s                36     -3.892954   2 C  s         
    44     -2.399497   2 C  py              126      1.928873   5 H  s         
    97     -1.768392   4 C  s                54      1.582146   2 C  d  1      
    43      1.561389   2 C  px               42     -1.479879   2 C  pz        
    55      1.482422   2 C  d  2             75     -1.436404   3 C  py        
 
 Vector   63  Occ=0.000000D+00  E= 1.215193D+00
              MO Center=  5.6D-01,  2.1D-01, -1.4D-01, r^2= 3.8D+00
   Bfn.  Coefficient  Atom+Function         Bfn.  Coefficient  Atom+Function  
  ----- ------------  ---------------      ----- ------------  ---------------
    36      6.838418   2 C  s                66     -4.988875   3 C  s         
    97     -3.376392   4 C  s                67     -3.319681   3 C  s         
    35      3.066499   2 C  s                72      1.883345   3 C  py        
    51     -1.754669   2 C  d -2            138      1.698771   7 H  s         
    52      1.674181   2 C  d -1             41      1.494376   2 C  py        
 
 Vector   64  Occ=0.000000D+00  E= 1.347243D+00
              MO Center=  3.6D-01,  5.3D-01,  2.2D-01, r^2= 3.6D+00
   Bfn.  Coefficient  Atom+Function         Bfn.  Coefficient  Atom+Function  
  ----- ------------  ---------------      ----- ------------  ---------------
    66      4.586215   3 C  s                35      4.077162   2 C  s         
    67     -3.001271   3 C  s                36     -2.840407   2 C  s         
    65     -2.364723   3 C  s               132     -2.054570   6 H  s         
    34     -1.492046   2 C  s               133      1.426773   6 H  s         
    72      1.391961   3 C  py              139      1.054671   7 H  s         
 
 Vector   65  Occ=0.000000D+00  E= 1.413579D+00
              MO Center=  1.9D-01,  5.0D-01, -9.9D-03, r^2= 3.4D+00
   Bfn.  Coefficient  Atom+Function         Bfn.  Coefficient  Atom+Function  
  ----- ------------  ---------------      ----- ------------  ---------------
    36      4.493970   2 C  s                66      4.134909   3 C  s         
    35     -4.043191   2 C  s                67     -3.985529   3 C  s         
   138     -2.301310   7 H  s                73     -2.240045   3 C  pz        
   139      2.204911   7 H  s               126      2.100751   5 H  s         
   127     -1.703337   5 H  s                65     -1.680747   3 C  s         
 
 Vector   66  Occ=0.000000D+00  E= 1.432359D+00
              MO Center=  9.8D-01, -4.0D-01, -1.1D+00, r^2= 3.7D+00
   Bfn.  Coefficient  Atom+Function         Bfn.  Coefficient  Atom+Function  
  ----- ------------  ---------------      ----- ------------  ---------------
    98      9.707321   4 C  s                97     -7.454149   4 C  s         
    96      2.993653   4 C  s                36     -2.386069   2 C  s         
   145     -2.315344   8 H  s               157     -2.197865  10 H  s         
   151     -2.151696   9 H  s               144      1.630490   8 H  s         
   156      1.600446  10 H  s               104      1.561620   4 C  pz        
 
 Vector   67  Occ=0.000000D+00  E= 1.443777D+00
              MO Center=  3.0D-01,  5.6D-03, -9.5D-03, r^2= 4.2D+00
   Bfn.  Coefficient  Atom+Function         Bfn.  Coefficient  Atom+Function  
  ----- ------------  ---------------      ----- ------------  ---------------
    98      4.578103   4 C  s                66      4.040377   3 C  s         
    35     -3.187005   2 C  s                67     -2.539221   3 C  s         
    45      2.371195   2 C  pz               97     -2.176075   4 C  s         
   133      2.137003   6 H  s                76     -2.091425   3 C  pz        
   127     -1.824376   5 H  s               132     -1.699613   6 H  s         
 
 Vector   68  Occ=0.000000D+00  E= 1.447200D+00
              MO Center=  3.8D-01,  1.0D-02, -2.7D-01, r^2= 3.2D+00
   Bfn.  Coefficient  Atom+Function         Bfn.  Coefficient  Atom+Function  
  ----- ------------  ---------------      ----- ------------  ---------------
    98      4.774276   4 C  s                36     -3.133955   2 C  s         
    97     -2.789328   4 C  s                 5      2.160750   1 O  s         
    45      1.542584   2 C  pz               67      1.380304   3 C  s         
    66     -1.265926   3 C  s                96      1.164024   4 C  s         
    44     -1.039353   2 C  py               40      0.942503   2 C  px        
 
 Vector   69  Occ=0.000000D+00  E= 1.474050D+00
              MO Center=  1.0D+00, -2.8D-01, -1.0D+00, r^2= 3.3D+00
   Bfn.  Coefficient  Atom+Function         Bfn.  Coefficient  Atom+Function  
  ----- ------------  ---------------      ----- ------------  ---------------
    36      2.129845   2 C  s                66      1.474952   3 C  s         
   103      1.430591   4 C  py               67     -1.274729   3 C  s         
   156     -1.260417  10 H  s                 5     -1.136659   1 O  s         
   150      1.051302   9 H  s                98     -1.045907   4 C  s         
   126      0.939982   5 H  s               157      0.914831  10 H  s         
 
 Vector   70  Occ=0.000000D+00  E= 1.476624D+00
              MO Center=  9.5D-01, -4.1D-01, -1.0D+00, r^2= 3.4D+00
   Bfn.  Coefficient  Atom+Function         Bfn.  Coefficient  Atom+Function  
  ----- ------------  ---------------      ----- ------------  ---------------
   156     -2.466771  10 H  s                36      2.283917   2 C  s         
    66     -2.200908   3 C  s               102     -2.089837   4 C  px        
   157      1.853560  10 H  s               104     -1.661857   4 C  pz        
   126      1.551222   5 H  s               144      1.440094   8 H  s         
   103      1.373710   4 C  py               35     -1.279654   2 C  s         
 
 Vector   71  Occ=0.000000D+00  E= 1.513611D+00
              MO Center=  3.5D-01,  1.2D-01, -3.5D-01, r^2= 4.0D+00
   Bfn.  Coefficient  Atom+Function         Bfn.  Coefficient  Atom+Function  
  ----- ------------  ---------------      ----- ------------  ---------------
    98      2.644591   4 C  s               144      1.861490   8 H  s         
   102     -1.587142   4 C  px              145     -1.413715   8 H  s         
   103     -1.357065   4 C  py               45      1.297274   2 C  pz        
    97     -1.148903   4 C  s                36     -0.962578   2 C  s         
   150     -0.963899   9 H  s                66      0.828036   3 C  s         
 
 Vector   72  Occ=0.000000D+00  E= 1.542909D+00
              MO Center=  3.4D-01,  4.7D-01, -2.0D-01, r^2= 4.6D+00
   Bfn.  Coefficient  Atom+Function         Bfn.  Coefficient  Atom+Function  
  ----- ------------  ---------------      ----- ------------  ---------------
    36      4.415002   2 C  s                35     -3.713460   2 C  s         
    98     -3.653383   4 C  s                97      3.098022   4 C  s         
    67     -2.535568   3 C  s                73      2.159591   3 C  pz        
   132     -1.754147   6 H  s               133      1.434196   6 H  s         
   138      1.399281   7 H  s               102     -1.349936   4 C  px        
 
 Vector   73  Occ=0.000000D+00  E= 1.577077D+00
              MO Center=  4.9D-01, -7.3D-03, -8.2D-02, r^2= 3.2D+00
   Bfn.  Coefficient  Atom+Function         Bfn.  Coefficient  Atom+Function  
  ----- ------------  ---------------      ----- ------------  ---------------
    35      3.404499   2 C  s                36     -2.789066   2 C  s         
    40     -2.164921   2 C  px               67      1.948597   3 C  s         
   126      1.942760   5 H  s                97     -1.899447   4 C  s         
    72      1.629052   3 C  py               42     -1.497960   2 C  pz        
    34     -1.473565   2 C  s                66     -1.441259   3 C  s         
 
 Vector   74  Occ=0.000000D+00  E= 1.600307D+00
              MO Center=  3.3D-01,  4.0D-01, -1.4D-01, r^2= 3.4D+00
   Bfn.  Coefficient  Atom+Function         Bfn.  Coefficient  Atom+Function  
  ----- ------------  ---------------      ----- ------------  ---------------
    66     -5.243878   3 C  s                36     -5.135686   2 C  s         
    35      4.992685   2 C  s                67      3.898058   3 C  s         
    41      3.702672   2 C  py               71     -2.573314   3 C  px        
    72      2.306630   3 C  py               40     -2.007930   2 C  px        
    98      1.729990   4 C  s                82      1.690139   3 C  d -2      
 
 Vector   75  Occ=0.000000D+00  E= 1.645104D+00
              MO Center=  4.5D-01,  1.6D-01, -4.3D-02, r^2= 3.7D+00
   Bfn.  Coefficient  Atom+Function         Bfn.  Coefficient  Atom+Function  
  ----- ------------  ---------------      ----- ------------  ---------------
    66      2.681415   3 C  s                35      2.436732   2 C  s         
    98      2.041050   4 C  s                 5     -1.889960   1 O  s         
    97     -1.796295   4 C  s                67     -1.353196   3 C  s         
   104     -1.198570   4 C  pz              144      1.132486   8 H  s         
   103     -1.076275   4 C  py              150     -1.045771   9 H  s         
 
 Vector   76  Occ=0.000000D+00  E= 1.694444D+00
              MO Center=  5.7D-01,  1.2D-01, -4.2D-01, r^2= 3.7D+00
   Bfn.  Coefficient  Atom+Function         Bfn.  Coefficient  Atom+Function  
  ----- ------------  ---------------      ----- ------------  ---------------
    97     -5.463463   4 C  s                35      5.074993   2 C  s         
   104     -2.785099   4 C  pz               42     -2.766543   2 C  pz        
   102      1.853804   4 C  px               40      1.622072   2 C  px        
    66     -1.556623   3 C  s                34     -1.497148   2 C  s         
    96      1.498678   4 C  s                72     -1.192612   3 C  py        
 
 Vector   77  Occ=0.000000D+00  E= 1.703602D+00
              MO Center= -5.8D-02,  3.0D-01, -7.1D-02, r^2= 3.6D+00
   Bfn.  Coefficient  Atom+Function         Bfn.  Coefficient  Atom+Function  
  ----- ------------  ---------------      ----- ------------  ---------------
     5      3.839131   1 O  s                72      3.347646   3 C  py        
    36     -2.475460   2 C  s                66     -2.002473   3 C  s         
   138     -1.967348   7 H  s                97      1.902520   4 C  s         
    42      1.571652   2 C  pz               41      1.485980   2 C  py        
    12      1.478084   1 O  px              104      1.331326   4 C  pz        
 
 Vector   78  Occ=0.000000D+00  E= 1.793658D+00
              MO Center=  3.8D-01,  2.9D-01,  1.9D-02, r^2= 3.5D+00
   Bfn.  Coefficient  Atom+Function         Bfn.  Coefficient  Atom+Function  
  ----- ------------  ---------------      ----- ------------  ---------------
    35      3.234057   2 C  s                97     -2.745911   4 C  s         
    36      1.720435   2 C  s                45     -1.335106   2 C  pz        
   104     -1.123324   4 C  pz               72      1.111598   3 C  py        
    67     -1.056190   3 C  s                42     -1.012551   2 C  pz        
   102      0.983608   4 C  px               96      0.888635   4 C  s         
 
 Vector   79  Occ=0.000000D+00  E= 1.815947D+00
              MO Center= -6.3D-01,  1.6D-01,  1.8D-01, r^2= 2.5D+00
   Bfn.  Coefficient  Atom+Function         Bfn.  Coefficient  Atom+Function  
  ----- ------------  ---------------      ----- ------------  ---------------
    35      3.880927   2 C  s                 5     -3.310033   1 O  s         
    40     -2.417369   2 C  px               41      2.074751   2 C  py        
    72      1.870425   3 C  py               66     -1.663951   3 C  s         
    71     -1.646411   3 C  px               12     -1.385534   1 O  px        
   132     -1.014730   6 H  s               138     -1.006004   7 H  s         
 
 Vector   80  Occ=0.000000D+00  E= 1.842845D+00
              MO Center=  7.5D-02,  2.7D-01, -6.5D-02, r^2= 3.7D+00
   Bfn.  Coefficient  Atom+Function         Bfn.  Coefficient  Atom+Function  
  ----- ------------  ---------------      ----- ------------  ---------------
    35      1.664563   2 C  s                36     -1.137164   2 C  s         
   156     -0.973445  10 H  s               104     -0.823195   4 C  pz        
    41     -0.748948   2 C  py              126     -0.698707   5 H  s         
    66      0.694149   3 C  s                71     -0.671024   3 C  px        
   157      0.666739  10 H  s                67      0.626353   3 C  s         
 
 Vector   81  Occ=0.000000D+00  E= 1.871039D+00
              MO Center=  5.6D-01,  1.6D-01, -4.7D-01, r^2= 4.0D+00
   Bfn.  Coefficient  Atom+Function         Bfn.  Coefficient  Atom+Function  
  ----- ------------  ---------------      ----- ------------  ---------------
    35      6.649347   2 C  s                66     -4.244667   3 C  s         
    72      3.412701   3 C  py               97     -3.279755   4 C  s         
    36      2.079925   2 C  s               104     -1.885261   4 C  pz        
    34     -1.639186   2 C  s                67     -1.543816   3 C  s         
    41      1.470341   2 C  py               45     -1.386721   2 C  pz        
 
 Vector   82  Occ=0.000000D+00  E= 1.921469D+00
              MO Center=  3.2D-01, -1.6D-01, -3.2D-01, r^2= 3.2D+00
   Bfn.  Coefficient  Atom+Function         Bfn.  Coefficient  Atom+Function  
  ----- ------------  ---------------      ----- ------------  ---------------
    36      1.480875   2 C  s                98     -1.423089   4 C  s         
    45     -1.279324   2 C  pz               97     -1.226940   4 C  s         
   103     -1.213513   4 C  py               35      1.123009   2 C  s         
    66     -0.918723   3 C  s                42     -0.804502   2 C  pz        
    41      0.793076   2 C  py              150     -0.744301   9 H  s         
 
 Vector   83  Occ=0.000000D+00  E= 1.990523D+00
              MO Center=  7.5D-01, -1.6D-01, -2.6D-01, r^2= 3.3D+00
   Bfn.  Coefficient  Atom+Function         Bfn.  Coefficient  Atom+Function  
  ----- ------------  ---------------      ----- ------------  ---------------
    35      3.024935   2 C  s                98      2.964453   4 C  s         
    66     -2.588177   3 C  s                40     -2.305212   2 C  px        
    72      1.880670   3 C  py               41      1.698473   2 C  py        
    43     -1.553372   2 C  px               67     -1.488261   3 C  s         
    71     -1.409109   3 C  px              126      1.270010   5 H  s         
 
 Vector   84  Occ=0.000000D+00  E= 1.995850D+00
              MO Center=  7.1D-01, -1.6D-01, -8.4D-01, r^2= 3.4D+00
   Bfn.  Coefficient  Atom+Function         Bfn.  Coefficient  Atom+Function  
  ----- ------------  ---------------      ----- ------------  ---------------
    36      4.635060   2 C  s                98     -4.362467   4 C  s         
    35     -2.553093   2 C  s                45     -2.092774   2 C  pz        
    67     -1.452410   3 C  s               156      1.250659  10 H  s         
   107     -1.156660   4 C  pz              104      1.069398   4 C  pz        
    34      0.955615   2 C  s                66      0.924595   3 C  s         
 
 Vector   85  Occ=0.000000D+00  E= 2.093265D+00
              MO Center= -3.9D-02,  1.8D-01, -2.9D-02, r^2= 3.5D+00
   Bfn.  Coefficient  Atom+Function         Bfn.  Coefficient  Atom+Function  
  ----- ------------  ---------------      ----- ------------  ---------------
    98      2.003240   4 C  s                36     -1.190290   2 C  s         
    41     -0.853956   2 C  py              156     -0.793813  10 H  s         
   138      0.747647   7 H  s                14      0.710455   1 O  pz        
    66      0.664874   3 C  s               150     -0.554441   9 H  s         
    67     -0.549653   3 C  s                83      0.533548   3 C  d -1      
 
 Vector   86  Occ=0.000000D+00  E= 2.097743D+00
              MO Center= -3.9D-01,  6.8D-02,  8.3D-02, r^2= 2.9D+00
   Bfn.  Coefficient  Atom+Function         Bfn.  Coefficient  Atom+Function  
  ----- ------------  ---------------      ----- ------------  ---------------
    36      6.021609   2 C  s                67     -5.588668   3 C  s         
    35     -3.263751   2 C  s                66      3.211339   3 C  s         
    41     -2.947519   2 C  py               71      2.720486   3 C  px        
    13      1.891813   1 O  py               82     -1.447300   3 C  d -2      
    55      1.334320   2 C  d  2             43     -1.314807   2 C  px        
 
 Vector   87  Occ=0.000000D+00  E= 2.168325D+00
              MO Center=  4.8D-01,  7.0D-04, -4.7D-01, r^2= 3.3D+00
   Bfn.  Coefficient  Atom+Function         Bfn.  Coefficient  Atom+Function  
  ----- ------------  ---------------      ----- ------------  ---------------
    98      2.233968   4 C  s                67     -1.819005   3 C  s         
    35     -1.361445   2 C  s                73      1.030083   3 C  pz        
   156     -0.861055  10 H  s                40      0.847213   2 C  px        
    36      0.825099   2 C  s                42     -0.814872   2 C  pz        
    44      0.813246   2 C  py               43     -0.802348   2 C  px        
 
 Vector   88  Occ=0.000000D+00  E= 2.202599D+00
              MO Center=  4.7D-01,  1.4D-01, -3.6D-01, r^2= 3.7D+00
   Bfn.  Coefficient  Atom+Function         Bfn.  Coefficient  Atom+Function  
  ----- ------------  ---------------      ----- ------------  ---------------
    98      2.165076   4 C  s                36     -1.358919   2 C  s         
    45      1.035766   2 C  pz               76     -0.967788   3 C  pz        
   132      0.769703   6 H  s                42     -0.763289   2 C  pz        
   103     -0.734314   4 C  py               97     -0.707382   4 C  s         
   117     -0.606713   4 C  d  2            138     -0.591261   7 H  s         
 
 Vector   89  Occ=0.000000D+00  E= 2.231937D+00
              MO Center=  6.2D-01,  4.9D-02, -4.2D-02, r^2= 3.5D+00
   Bfn.  Coefficient  Atom+Function         Bfn.  Coefficient  Atom+Function  
  ----- ------------  ---------------      ----- ------------  ---------------
    36      3.148583   2 C  s                67     -1.659063   3 C  s         
    98     -1.360092   4 C  s                 5     -1.149779   1 O  s         
    42     -1.082400   2 C  pz               72     -0.847067   3 C  py        
    45     -0.819071   2 C  pz              102      0.734451   4 C  px        
    43     -0.717966   2 C  px               35     -0.670507   2 C  s         
 
 Vector   90  Occ=0.000000D+00  E= 2.247696D+00
              MO Center=  7.7D-01, -3.0D-01, -8.2D-01, r^2= 3.5D+00
   Bfn.  Coefficient  Atom+Function         Bfn.  Coefficient  Atom+Function  
  ----- ------------  ---------------      ----- ------------  ---------------
    36      1.470586   2 C  s               150      1.402510   9 H  s         
    98     -1.078663   4 C  s               144     -0.971554   8 H  s         
    67     -0.951991   3 C  s               117      0.803128   4 C  d  2      
    66     -0.681934   3 C  s                72      0.680788   3 C  py        
   149     -0.529869   9 H  s               138      0.506831   7 H  s         
 
 Vector   91  Occ=0.000000D+00  E= 2.268370D+00
              MO Center=  9.2D-01, -2.3D-01, -1.1D+00, r^2= 3.1D+00
   Bfn.  Coefficient  Atom+Function         Bfn.  Coefficient  Atom+Function  
  ----- ------------  ---------------      ----- ------------  ---------------
    66      2.303500   3 C  s                36      1.982181   2 C  s         
    41     -1.510262   2 C  py               67     -1.334887   3 C  s         
    35     -1.260949   2 C  s                98     -1.205335   4 C  s         
    72     -1.087755   3 C  py              156      0.893105  10 H  s         
    71      0.887928   3 C  px              126     -0.831929   5 H  s         
 
 Vector   92  Occ=0.000000D+00  E= 2.289037D+00
              MO Center=  5.6D-01,  5.6D-02, -2.7D-01, r^2= 3.6D+00
   Bfn.  Coefficient  Atom+Function         Bfn.  Coefficient  Atom+Function  
  ----- ------------  ---------------      ----- ------------  ---------------
    98      3.442943   4 C  s                66      2.387954   3 C  s         
[...]
    21     -0.873085   1 O  d -1             42     -0.808087   2 C  pz        
    45     -0.714394   2 C  pz               97     -0.717012   4 C  s         
    98     -0.529873   4 C  s                 5     -0.522317   1 O  s         
    67     -0.513458   3 C  s                83     -0.493550   3 C  d -1      
 
 Vector  154  Occ=0.000000D+00  E= 6.676989D+00
              MO Center= -8.7D-01, -1.8D-01,  2.0D-01, r^2= 5.7D-01
   Bfn.  Coefficient  Atom+Function         Bfn.  Coefficient  Atom+Function  
  ----- ------------  ---------------      ----- ------------  ---------------
    18      1.063137   1 O  d  1             23     -1.037075   1 O  d  1      
    97     -0.867016   4 C  s                42     -0.782147   2 C  pz        
    35      0.759934   2 C  s               102      0.645079   4 C  px        
    54     -0.548484   2 C  d  1             14      0.406871   1 O  pz        
    45     -0.396366   2 C  pz               16     -0.391618   1 O  d -1      
 
 Vector  155  Occ=0.000000D+00  E= 6.842295D+00
              MO Center= -8.8D-01, -1.9D-01,  2.0D-01, r^2= 5.9D-01
   Bfn.  Coefficient  Atom+Function         Bfn.  Coefficient  Atom+Function  
  ----- ------------  ---------------      ----- ------------  ---------------
     5      2.113801   1 O  s                40      1.761502   2 C  px        
     9      1.360892   1 O  px               97     -1.272897   4 C  s         
     4      1.203427   1 O  s                20      1.048257   1 O  d -2      
    42     -0.964733   2 C  pz               12      0.847739   1 O  px        
    35     -0.848078   2 C  s                15     -0.833687   1 O  d -2      
 
 Vector  156  Occ=0.000000D+00  E= 7.056534D+00
              MO Center= -8.9D-01, -1.9D-01,  2.0D-01, r^2= 6.4D-01
   Bfn.  Coefficient  Atom+Function         Bfn.  Coefficient  Atom+Function  
  ----- ------------  ---------------      ----- ------------  ---------------
    66     -3.178917   3 C  s                35      3.021717   2 C  s         
    40     -2.732151   2 C  px               72      2.699267   3 C  py        
    24     -1.579151   1 O  d  2             36      1.452746   2 C  s         
    67     -1.294269   3 C  s                10      1.284293   1 O  py        
    19      1.016978   1 O  d  2             13      0.867281   1 O  py        
 
 Vector  157  Occ=0.000000D+00  E= 2.194789D+01
              MO Center=  1.1D-01,  7.4D-01,  1.0D-02, r^2= 1.3D+00
   Bfn.  Coefficient  Atom+Function         Bfn.  Coefficient  Atom+Function  
  ----- ------------  ---------------      ----- ------------  ---------------
    64      1.561459   3 C  s                65     -1.327642   3 C  s         
    67     -1.297855   3 C  s                63     -1.230354   3 C  s         
    98      1.105759   4 C  s                95     -0.810593   4 C  s         
    96      0.670564   4 C  s                94      0.640844   4 C  s         
    40     -0.479414   2 C  px               35      0.431772   2 C  s         
 
 Vector  158  Occ=0.000000D+00  E= 2.199136D+01
              MO Center=  8.7D-01, -2.1D-01, -7.3D-01, r^2= 1.3D+00
   Bfn.  Coefficient  Atom+Function         Bfn.  Coefficient  Atom+Function  
  ----- ------------  ---------------      ----- ------------  ---------------
    95      1.446243   4 C  s                96     -1.338477   4 C  s         
    98     -1.183983   4 C  s                94     -1.137518   4 C  s         
    34     -0.856881   2 C  s                33      0.767220   2 C  s         
    36     -0.737700   2 C  s                65     -0.718239   3 C  s         
    64      0.687756   3 C  s                32     -0.598421   2 C  s         
 
 Vector  159  Occ=0.000000D+00  E= 2.212684D+01
              MO Center=  6.0D-01, -1.2D-01, -1.9D-02, r^2= 5.9D-01
   Bfn.  Coefficient  Atom+Function         Bfn.  Coefficient  Atom+Function  
  ----- ------------  ---------------      ----- ------------  ---------------
    36      2.213470   2 C  s                33     -1.604637   2 C  s         
    34      1.597351   2 C  s                35     -1.308722   2 C  s         
    32      1.254740   2 C  s                98     -1.209022   4 C  s         
    67     -1.172537   3 C  s                97      0.651822   4 C  s         
    95      0.617287   4 C  s                96     -0.553664   4 C  s         
 
 Vector  160  Occ=0.000000D+00  E= 4.341396D+01
              MO Center= -8.8D-01, -1.8D-01,  2.0D-01, r^2= 1.2D-01
   Bfn.  Coefficient  Atom+Function         Bfn.  Coefficient  Atom+Function  
  ----- ------------  ---------------      ----- ------------  ---------------
     4      2.504339   1 O  s                 3     -1.873840   1 O  s         
     2      1.731480   1 O  s                 1     -1.395833   1 O  s         
     5     -0.878788   1 O  s                36      0.828481   2 C  s         
     9      0.560453   1 O  px               66     -0.510926   3 C  s         
    40      0.462860   2 C  px               72      0.455751   3 C  py        
 

 center of mass
 --------------
 x =   0.30619337 y =   0.09486525 z =  -0.27792414

 moments of inertia (a.u.)
 ------------------
         199.828014700772          45.609867834152          83.862596718870
          45.609867834152         247.796536007697         -52.729213555949
          83.862596718870         -52.729213555949         238.850459019980
 
     Multipole analysis of the density
     ---------------------------------
 
     L   x y z        total         alpha         beta         nuclear
     -   - - -        -----         -----         ----         -------
     0   0 0 0     -0.000000    -16.000000    -16.000000     32.000000
 
     1   1 0 0      0.693044     -6.222093     -6.222093     13.137230
     1   0 1 0      0.325480     -1.620917     -1.620917      3.567313
     1   0 0 1     -0.052901      5.328773      5.328773    -10.710447
 
     2   2 0 0    -20.017960    -54.339927    -54.339927     88.661894
     2   1 1 0     -1.110579     13.872477     13.872477    -28.855532
     2   1 0 1      0.172198     26.548782     26.548782    -52.925366
     2   0 2 0    -17.818931    -40.443968    -40.443968     63.069005
     2   0 1 1      0.240105    -15.456190    -15.456190     31.152486
     2   0 0 2    -18.180521    -45.639203    -45.639203     73.097885
 
 *** CALLING NEW AORESP DRIVER FOR CLOSED AND OPEN SHELLS ***
 Entering AOResponse driver routine


--------------------------------------------------------------------------------

          ****************
          *** RESPONSE ***
          ****************

 Response module for NWChem and dynamic CPKS solver
 developed by J. Autschbach and coworkers, SUNY Buffalo
 The methodology used in this program is described in 
 ChemPhysChem 12 (2011), 3224-3235 (main reference)
 J. Chem. Phys. 123 (2005), 114103
 J. Chem. Phys. 122 (2005), 224115
 J. Chem. Phys. 122 (2005), 074105
 Comp. Lett. 3 (2007), 131-150 (contact JA for a copy)
 Please cite this work in publications based on results
 obtained with this code. Thank you!

 For extension of response module to open shell
 calculations please acknowledge:
 F. Aquino, Northwestern University, Schatz Rsrch Group
 The update to the methodology is described in
 J. Phys. Chem. A 118 (2014) 517-525



          -----------------------------------------------
          Solving response equations for perturbing field
          -----------------------------------------------

 number of frequencies:     1
 frequency in a.u.:  0.9319600E-01
 Perturbing field: electric
 Using GIAO formalism for OptRot
 Adding quadrupole terms to OptRot
 to create an origin in dependent tensor.
 Using El. Dipole Length Gauge
 
 Applying DAMPING constant of  0.003700 a.u.
 
 Setting up CPKS
 with frequency omega =      0.09319600 a.u.
 and a damping of            0.00370000 a.u.

 
                            NWChem Dynamic CPHF Module
                            --------------------------
 
 
    scftype = RHF 
    nclosed =   16
      nopen =    0
  variables =     9216
  num. vecs =        3
  tolerance =   1.0D-07
  max. iter =  100

 SCF residual:   4.451292109043588E-006


Iterative solution of linear equations
  No. of variables     4608
  No. of equations        3
  Maximum subspace       99
       Convergence  1.0D-07
        Start time     94.0


   iter   nsub   residual    time 
   ----  ------  --------  --------- 
 dft_CPHF2_read: failed to open
 ./methyloxirane_blyp-def2-tzvp_488.9_45.inp.aoresp_fiao_f1
     1      3    3.91D+00     143.1
     2      6    2.66D+00     192.5
     3      9    2.44D-01     241.9
     4     12    5.69D-02     291.4
     5     15    1.09D-02     341.1
     6     18    1.29D-03     390.5
     7     21    1.42D-04     440.0
     8     24    1.30D-05     489.5
     9     27    1.33D-06     539.1
    10     30    4.75D-07     588.5
    11     33    1.67D-08     637.8

 Calculating some arrays needed for GIAO optical rotation

    0 giaofock schwarz done =      92.97%
    0 giaofock schwarz done =      92.88%
 aor_r1_tensor_giao: roadata output requested
 dip-quad polarizability Re:

              1        2        3        4        5        6      
    1   77.3804  -5.9574 -28.3576  -4.5445   1.4379   9.0418
    2  -11.4523  25.4329   3.7890  23.2907 -21.8808   4.0282
    3   -7.1569   1.4909  38.4703  -0.1750  14.2515 -41.0062
 traceless dip-quad polarizability:

              1        2        3      
    1   75.1317  -8.9361 -42.5364
    2   -8.9361 -47.7556   2.1569
    3  -42.5364   2.1569 -27.3761

              1        2        3      
    1  -25.1118  38.1493   5.6836
    2   38.1493  27.0028 -32.8212
    3    5.6836 -32.8212  -1.8910

              1        2        3      
    1   13.4337   2.2363  57.7055
    2    2.2363  23.9066  21.3773
    3   57.7055  21.3773 -37.3403

 roa begin

 alpha real:
 XX       0.4089783293726E+02
 XY      -0.5066967382153E+01
 XZ      -0.3248279249622E+01
 YX      -0.5066967394591E+01
 YY       0.4388260463800E+02
 YZ       0.3393579010643E+01
 ZX      -0.3248279262954E+01
 ZY       0.3393579009956E+01
 ZZ       0.4100088472951E+02

 alpha im:
 XX       0.1104459012487E+00
 XY      -0.2918338355510E-01
 XZ      -0.1301499626873E-01
 YX      -0.2918337903161E-01
 YY       0.1284157051390E+00
 YZ       0.1990652184138E-01
 ZX      -0.1301499294155E-01
 ZY       0.1990652242258E-01
 ZZ       0.1195192036270E+00

 beta real:
 XX      -0.1480850263804E+00
 XY       0.9325368699900E+00
 XZ       0.1929128166251E+00
 YX      -0.8948598584012E+00
 YY       0.1643445623830E+00
 YZ      -0.1541774937948E+01
 ZX      -0.4894650842779E+00
 ZY       0.1830643373966E+01
 ZZ      -0.1630559451833E-01

 G-prime = -omega beta(real):
 XX      -0.1480850263804E+00
 XY       0.9325368699900E+00
 XZ       0.1929128166251E+00
 YX      -0.8948598584012E+00
 YY       0.1643445623830E+00
 YZ      -0.1541774937948E+01
 ZX      -0.4894650842779E+00
 ZY       0.1830643373966E+01
 ZZ      -0.1630559451833E-01

 beta im:
 XX      -0.6330889666468E-02
 XY       0.1282817820545E-01
 XZ       0.2494699476282E-02
 YX      -0.7764782498739E-02
 YY       0.5548050574003E-02
 YZ      -0.2342997458506E-01
 ZX      -0.1375180187969E-01
 ZY       0.3876455610861E-01
 ZZ       0.1495399292606E-03

 G-prime = -omega beta(imag):
 XX      -0.6330889666468E-02
 XY       0.1282817820545E-01
 XZ       0.2494699476282E-02
 YX      -0.7764782498739E-02
 YY       0.5548050574003E-02
 YZ      -0.2342997458506E-01
 ZX      -0.1375180187969E-01
 ZY       0.3876455610861E-01
 ZZ       0.1495399292606E-03

 dipole-quadrupole real (Cartesian):
 XXX      0.7738042701726E+02
 XXY     -0.5957376964150E+01
 XXZ     -0.2835760151559E+02
 XYY     -0.4544466054807E+01
 XYZ      0.1437929963793E+01
 XZZ      0.9041845576606E+01
 YXX     -0.1145231983272E+02
 YXY      0.2543289969311E+02
 YXZ      0.3789048453925E+01
 YYY      0.2329071113245E+02
 YYZ     -0.2188082788605E+02
 YZZ      0.4028186193651E+01
 ZXX     -0.7156904577396E+01
 ZXY      0.1490860393026E+01
 ZXZ      0.3847034937460E+02
 ZYY     -0.1749743160470E+00
 ZYZ      0.1425153412204E+02
 ZZZ     -0.4100622639605E+02

 dipole-quadrupole imag (Cartesian):
 XXX      0.2716002771608E+00
 XXY     -0.3274454858422E-01
 XXZ     -0.8268428669388E-01
 XYY     -0.2954246916398E-01
 XYZ      0.4164972453570E-02
 XZZ      0.5965412468705E-01
 YXX     -0.5497408800577E-01
 YXY      0.6131341124421E-01
 YXZ      0.2248588898984E-01
 YYY      0.9163418686735E-01
 YYZ     -0.6251834113410E-01
 YZZ      0.9587923995482E-02
 ZXX     -0.3781333908501E-01
 ZXY      0.2929976910001E-02
 ZXZ      0.1390774331500E+00
 ZYY      0.5187773994529E-02
 ZYZ      0.6871095756169E-01
 ZZZ     -0.9505926994438E-01

 dipole-quadrupole (traceless):
 XXX      0.7513173725636E+02
 XXY     -0.8936065446226E+01
 XXZ     -0.4253640227339E+02
 XYY     -0.4775560235174E+02
 XYZ      0.2156894945689E+01
 XZZ     -0.2737613490462E+02
 YXX     -0.2511176849577E+02
 YXY      0.3814934953966E+02
 YXZ      0.5683572680888E+01
 YYY      0.2700277795198E+02
 YYZ     -0.3282124182908E+02
 YZZ     -0.1891009456210E+01
 ZXX      0.1343369577865E+02
 ZXY      0.2236290589539E+01
 ZXZ      0.5770552406190E+02
 ZYY      0.2390659117068E+02
 ZYZ      0.2137730118306E+02
 ZZZ     -0.3734028694933E+02

 roa end


 Electric Dipole Response Matrix (nonzero elements):

              1        2        3      
    1   40.8978  -5.0670  -3.2483
    2   -5.0670  43.8826   3.3936
    3   -3.2483   3.3936  41.0009
 
 Imaginary part:

              1        2        3      
    1    0.1104  -0.0292  -0.0130
    2   -0.0292   0.1284   0.0199
    3   -0.0130   0.0199   0.1195

 ------------------------------------------
 average:        41.92711 + I       0.11946


 DFT Linear Response polarizability / au 
 Frequency  =       0.0931960 / au
 Wavelength =     488.8981609 / nm
              X              Y              Z
 -----------------------------------------------
 X      40.8978329     -5.0669674     -3.2482792
 Y      -5.0669674     43.8826046      3.3935790
 Z      -3.2482793      3.3935790     41.0008847
 -----------------------------------------------
 Eigenvalues =      36.9483616     50.0752394     38.7577213
 Isotropic   =      41.9271074
 Anisotropic =      10.0610623
 -----------------------------------------------
 *************************

 DFT Linear Response IMAG polarizability / au 
 Frequency  =       0.0931960 / au
 Wavelength =     488.8981609 / nm
              X              Y              Z
 -----------------------------------------------
 X       0.1104459     -0.0291834     -0.0130150
 Y      -0.0291834      0.1284157      0.0199065
 Z      -0.0130150      0.0199065      0.1195192
 -----------------------------------------------
 Eigenvalues =       0.0888101      0.1629542      0.1066164
 Isotropic   =       0.1194603
 Anisotropic =       0.0547368
 -----------------------------------------------
 *************************

 Magnetic Dipole Response Matrix (nonzero elements):
 Optical rotation tensor Beta
 (Buckingham-Dunn version including dipole-quadrupole terms)

              1        2        3      
    1    2.7381  -0.3284   0.4089
    2   -0.3284  -1.7370  -1.6870
    3    0.4089  -1.6870  -1.0006
 
 Imaginary part:

              1        2        3      
    1    0.0679  -0.1376  -0.0268
    2    0.0833  -0.0595   0.2514
    3    0.1476  -0.4159  -0.0016

 ------------------------------------------
 average:         0.00016 + I       0.00227

 Principal components and PAS (Real part)
                 -3.09550
                  2.84850
                  0.24749
 ------------------------
 average:         0.00016

              1        2        3      
    1   -0.0001   0.9785  -0.2061
    2    0.7788  -0.1292  -0.6138
    3    0.6272   0.1606   0.7621

 Chiral response tensor (Real part):

              1        2        3      
    1   -1.3688   0.1642  -0.2045
    2    0.1642   0.8687   0.8435
    3   -0.2045   0.8435   0.5005
 
 Principal components and PAS (Real part)
                  1.54800
                 -1.42400
                 -0.12350
 ------------------------
 average:         0.00016

              1        2        3      
    1   -0.0001   0.9785  -0.2061
    2    0.7788  -0.1292  -0.6138
    3    0.6272   0.1606   0.7621
 Exiting AOResponse driver routine

 Task  times  cpu:      617.1s     wall:      632.4s
 
 
                                NWChem Input Module
                                -------------------
 
 
 Summary of allocated global arrays
-----------------------------------
  No active global arrays



                         GA Statistics for process    0
                         ------------------------------

       create   destroy   get      put      acc     scatter   gather  read&inc
calls: 3294     3294     7.61e+06 3.14e+06 7.73e+05 2694        0     1144     
number of processes/call 1.01e+00 1.03e+00 1.44e+00 0.00e+00 0.00e+00
bytes total:             1.75e+09 1.26e+08 1.83e+09 1.84e+02 0.00e+00 9.15e+03
bytes remote:            7.54e+08 3.29e+07 1.08e+09 0.00e+00 0.00e+00 0.00e+00
Max memory consumed for GA by this process: 11242192 bytes
 
MA_summarize_allocated_blocks: starting scan ...
MA_summarize_allocated_blocks: scan completed: 0 heap blocks, 0 stack blocks
MA usage statistics:

	allocation statistics:
					      heap	     stack
					      ----	     -----
	current number of blocks	         0	         0
	maximum number of blocks	        24	        52
	current total bytes		         0	         0
	maximum total bytes		   7519856	  48954984
	maximum total K-bytes		      7520	     48955
	maximum total M-bytes		         8	        49
 
 
                                     CITATION
                                     --------
                Please cite the following reference when publishing
                           results obtained with NWChem:
 
                 M. Valiev, E.J. Bylaska, N. Govind, K. Kowalski,
              T.P. Straatsma, H.J.J. van Dam, D. Wang, J. Nieplocha,
                        E. Apra, T.L. Windus, W.A. de Jong
                 "NWChem: a comprehensive and scalable open-source
                  solution for large scale molecular simulations"
                      Comput. Phys. Commun. 181, 1477 (2010)
                           doi:10.1016/j.cpc.2010.04.018
 
                                      AUTHORS
                                      -------
          E. Apra, E. J. Bylaska, W. A. de Jong, N. Govind, K. Kowalski,
       T. P. Straatsma, M. Valiev, H. J. J. van Dam, D. Wang, T. L. Windus,
        J. Hammond, J. Autschbach, K. Bhaskaran-Nair, J. Brabec, K. Lopata,
    S. A. Fischer, S. Krishnamoorthy, M. Jacquelin, W. Ma, M. Klemm, O. Villa,
      Y. Chen, V. Anisimov, F. Aquino, S. Hirata, M. T. Hackler, V. Konjkov,
            D. Mejia-Rodriguez, T. Risthaus, M. Malagoli, A. Marenich,
   A. Otero-de-la-Roza, J. Mullin, P. Nichols, R. Peverati, J. Pittner, Y. Zhao,
        P.-D. Fan, A. Fonari, M. J. Williamson, R. J. Harrison, J. R. Rehr,
      M. Dupuis, D. Silverstein, D. M. A. Smith, J. Nieplocha, V. Tipparaju,
    M. Krishnan, B. E. Van Kuiken, A. Vazquez-Mayagoitia, L. Jensen, M. Swart,
      Q. Wu, T. Van Voorhis, A. A. Auer, M. Nooijen, L. D. Crosby, E. Brown,
      G. Cisneros, G. I. Fann, H. Fruchtl, J. Garza, K. Hirao, R. A. Kendall,
      J. A. Nichols, K. Tsemekhman, K. Wolinski, J. Anchell, D. E. Bernholdt,
      P. Borowski, T. Clark, D. Clerc, H. Dachsel, M. J. O. Deegan, K. Dyall,
    D. Elwood, E. Glendening, M. Gutowski, A. C. Hess, J. Jaffe, B. G. Johnson,
     J. Ju, R. Kobayashi, R. Kutteh, Z. Lin, R. Littlefield, X. Long, B. Meng,
      T. Nakajima, S. Niu, L. Pollack, M. Rosing, K. Glaesemann, G. Sandrone,
      M. Stave, H. Taylor, G. Thomas, J. H. van Lenthe, A. T. Wong, Z. Zhang.

 Total times  cpu:      690.5s     wall:      707.2s
