 argument  1 = methyloxirane_blyp-def2-tzvp_488.9_04.inp
 


============================== echo of input deck ==============================
echo
start methyloxirane_blyp-def2-tzvp_488.9_04.inp
title "methyloxirane roa calculations at 488.9 nm, input generated in va  with delta_type=2"
charge 0



geometry units angstrom nocenter noautoz noautosym nucleus point;symmetry c1
 O -0.884740 -0.172923  0.207289
 C  0.584306 -0.157366  0.126230
 C -0.192416  1.081231  0.340392
 C  1.190225 -0.522158 -1.215946
 H  1.057491 -0.610372  1.003398
 H -0.238213  1.539972  1.332379
 H -0.318778  1.775930 -0.495778
 H  2.246619 -0.220160 -1.265903
 H  1.141300 -1.607087 -1.382365
 H  0.646602 -0.025816 -2.029503
end

basis spherical
* library def2-TZVP
end

 set prop:newaoresp 1
 set aor:roadata T
 set cphf:maxsub 100
 set cphf:acc 1.0d-10
 set cphf:maxiter 100

property
    response 1   0.093196
    bdtensor
    convergence 1e-7
    damping 0.0037
    giao
end

dft
 direct
 mult 1
 xc becke88 lyp
 iterations 250
 tolerances tight
 grid xfine
 convergence nolevelshifting
 convergence energy 1e-8
 convergence gradient 1e-7


end

task dft gradient
task dft property
================================================================================


                                         
                                         
 
 
              Northwest Computational Chemistry Package (NWChem) 6.8
              ------------------------------------------------------
 
 
                    Environmental Molecular Sciences Laboratory
                       Pacific Northwest National Laboratory
                                Richland, WA 99352
 
                              Copyright (c) 1994-2017
                       Pacific Northwest National Laboratory
                            Battelle Memorial Institute
 
             NWChem is an open-source computational chemistry package
                        distributed under the terms of the
                      Educational Community License (ECL) 2.0
             A copy of the license is included with this distribution
                              in the LICENSE.TXT file
 
                                  ACKNOWLEDGMENT
                                  --------------

            This software and its documentation were developed at the
            EMSL at Pacific Northwest National Laboratory, a multiprogram
            national laboratory, operated for the U.S. Department of Energy
            by Battelle under Contract Number DE-AC05-76RL01830. Support
            for this work was provided by the Department of Energy Office
            of Biological and Environmental Research, Office of Basic
            Energy Sciences, and the Office of Advanced Scientific Computing.


           Job information
           ---------------

    hostname        = cpn-f11-19-02.cbls.ccr.buffalo.edu
    program         = /util/academic/nwchem/nwchem-6.8/bin/LINUX64/nwchem
    date            = Fri Mar  1 09:54:11 2019

    compiled        = Tue_Nov_06_14:59:08_2018
    source          = /util/academic/nwchem/nwchem-6.8
    nwchem branch   = 6.8
    nwchem revision = v6.8-47-gdf6c956
    ga revision     = ga-5.6.3
    use scalapack   = F
    input           = methyloxirane_blyp-def2-tzvp_488.9_04.inp
    prefix          = methyloxirane_blyp-def2-tzvp_488.9_04.inp.
    data base       = ./methyloxirane_blyp-def2-tzvp_488.9_04.inp.db
    status          = startup
    nproc           =        7
    time left       =     -1s



           Memory information
           ------------------

    heap     =   13107198 doubles =    100.0 Mbytes
    stack    =   13107195 doubles =    100.0 Mbytes
    global   =   26214400 doubles =    200.0 Mbytes (distinct from heap & stack)
    total    =   52428793 doubles =    400.0 Mbytes
    verify   = yes
    hardfail = no 


           Directory information
           ---------------------
 
  0 permanent = .
  0 scratch   = .
 
 
 
 
                                NWChem Input Module
                                -------------------
 
 
                    methyloxirane roa calculations at 488.9 nm, input generated in va  with delta_type=2
                    ------------------------------------------

 Scaling coordinates for geometry "geometry" by  1.889725989
 (inverse scale =  0.529177249)

 
 
                             Geometry "geometry" -> ""
                             -------------------------
 
 Output coordinates in angstroms (scale by  1.889725989 to convert to a.u.)
 
  No.       Tag          Charge          X              Y              Z
 ---- ---------------- ---------- -------------- -------------- --------------
    1 O                    8.0000    -0.88474000    -0.17292300     0.20728900
    2 C                    6.0000     0.58430600    -0.15736600     0.12623000
    3 C                    6.0000    -0.19241600     1.08123100     0.34039200
    4 C                    6.0000     1.19022500    -0.52215800    -1.21594600
    5 H                    1.0000     1.05749100    -0.61037200     1.00339800
    6 H                    1.0000    -0.23821300     1.53997200     1.33237900
    7 H                    1.0000    -0.31877800     1.77593000    -0.49577800
    8 H                    1.0000     2.24661900    -0.22016000    -1.26590300
    9 H                    1.0000     1.14130000    -1.60708700    -1.38236500
   10 H                    1.0000     0.64660200    -0.02581600    -2.02950300
 
      Atomic Mass 
      ----------- 
 
      O                 15.994910
      C                 12.000000
      H                  1.007825
 

 Effective nuclear repulsion energy (a.u.)     123.3423003017

            Nuclear Dipole moment (a.u.) 
            ----------------------------
        X                 Y               Z
 ---------------- ---------------- ----------------
    13.1332006679     3.5514092935   -10.7249584345
 
 
            XYZ format geometry
            -------------------
    10
 geometry
 O                    -0.88474000    -0.17292300     0.20728900
 C                     0.58430600    -0.15736600     0.12623000
 C                    -0.19241600     1.08123100     0.34039200
 C                     1.19022500    -0.52215800    -1.21594600
 H                     1.05749100    -0.61037200     1.00339800
 H                    -0.23821300     1.53997200     1.33237900
 H                    -0.31877800     1.77593000    -0.49577800
 H                     2.24661900    -0.22016000    -1.26590300
 H                     1.14130000    -1.60708700    -1.38236500
 H                     0.64660200    -0.02581600    -2.02950300
 
 ==============================================================================
                                internuclear distances
 ------------------------------------------------------------------------------
       center one      |      center two      | atomic units |  angstroms
 ------------------------------------------------------------------------------
    2 C                |   1 O                |     2.78047  |     1.47136
    3 C                |   1 O                |     2.71880  |     1.43873
    3 C                |   2 C                |     2.79225  |     1.47759
    4 C                |   2 C                |     2.86694  |     1.51712
    5 H                |   2 C                |     2.06883  |     1.09478
    6 H                |   3 C                |     2.06714  |     1.09388
    7 H                |   3 C                |     2.06815  |     1.09442
    8 H                |   4 C                |     2.07841  |     1.09985
    9 H                |   4 C                |     2.07626  |     1.09871
   10 H                |   4 C                |     2.07333  |     1.09716
 ------------------------------------------------------------------------------
                         number of included internuclear distances:         10
 ==============================================================================



 ==============================================================================
                                 internuclear angles
 ------------------------------------------------------------------------------
        center 1       |       center 2       |       center 3       |  degrees
 ------------------------------------------------------------------------------
    2 C                |   1 O                |   3 C                |    61.02
    2 C                |   1 O                |   3 C                |    61.02
    1 O                |   2 C                |   4 C                |   116.42
    1 O                |   2 C                |   5 H                |   112.52
    3 C                |   2 C                |   4 C                |   122.67
    3 C                |   2 C                |   5 H                |   117.25
    4 C                |   2 C                |   5 H                |   115.89
    3 C                |   1 O                |   2 C                |    61.02
    1 O                |   3 C                |   6 H                |   115.42
    1 O                |   3 C                |   7 H                |   115.28
    2 C                |   3 C                |   6 H                |   120.33
    2 C                |   3 C                |   7 H                |   118.82
    6 H                |   3 C                |   7 H                |   114.95
    2 C                |   4 C                |   8 H                |   110.96
    2 C                |   4 C                |   9 H                |   110.71
    2 C                |   4 C                |  10 H                |   110.45
    8 H                |   4 C                |   9 H                |   107.88
    8 H                |   4 C                |  10 H                |   108.54
    9 H                |   4 C                |  10 H                |   108.20
 ------------------------------------------------------------------------------
                            number of included internuclear angles:         19
 ==============================================================================



  warning:::::::::::::: from_environment
  NWCHEM_BASIS_LIBRARY set to: <
 /util/academic/nwchem/nwchem-6.8/src/basis/libraries>
  but file does not exist !
  using .nwchemrc or compiled library


 Summary of "ao basis" -> "" (spherical)
 ------------------------------------------------------------------------------
       Tag                 Description            Shells   Functions and Types
 ---------------- ------------------------------  ------  ---------------------
 *                         def2-TZVP                  on all atoms 


 
                                 NWChem DFT Module
                                 -----------------
 
 
                    methyloxirane roa calculations at 488.9 nm, input generated in va  with delta_type=2
 
 
                      Basis "ao basis" -> "ao basis" (spherical)
                      -----
  O (Oxygen)
  ----------
            Exponent  Coefficients 
       -------------- ---------------------------------------------------------
  1 S  2.70323826E+04  0.000217
  1 S  4.05238714E+03  0.001684
  1 S  9.22327227E+02  0.008740
  1 S  2.61240710E+02  0.035240
  1 S  8.53546414E+01  0.111535
  1 S  3.10350352E+01  0.255890
 
  2 S  1.22608607E+01  0.397687
  2 S  4.99870760E+00  0.246278
 
  3 S  1.17031082E+00  1.000000
 
  4 S  4.64747410E-01  1.000000
 
  5 S  1.85045364E-01  1.000000
 
  6 P  6.32749548E+01  0.006069
  6 P  1.46270494E+01  0.041913
  6 P  4.45012235E+00  0.161538
  6 P  1.52757996E+00  0.357070
 
  7 P  5.29351179E-01  1.000000
 
  8 P  1.74784213E-01  1.000000
 
  9 D  2.31400000E+00  1.000000
 
 10 D  6.45000000E-01  1.000000
 
 11 F  1.42800000E+00  1.000000
 
  C (Carbon)
  ----------
            Exponent  Coefficients 
       -------------- ---------------------------------------------------------
  1 S  1.35753497E+04  0.000222
  1 S  2.03523337E+03  0.001723
  1 S  4.63225624E+02  0.008926
  1 S  1.31200196E+02  0.035728
  1 S  4.28530159E+01  0.110763
  1 S  1.55841858E+01  0.242956
 
  2 S  6.20671385E+00  0.414403
  2 S  2.57648965E+00  0.237450
 
  3 S  5.76963394E-01  1.000000
 
  4 S  2.29728314E-01  1.000000
 
  5 S  9.51644400E-02  1.000000
 
  6 P  3.46972322E+01  0.005333
  6 P  7.95826228E+00  0.035864
  6 P  2.37808269E+00  0.142159
  6 P  8.14332082E-01  0.342705
 
  7 P  2.88875473E-01  1.000000
 
  8 P  1.00568237E-01  1.000000
 
  9 D  1.09700000E+00  1.000000
 
 10 D  3.18000000E-01  1.000000
 
 11 F  7.61000000E-01  1.000000
 
  H (Hydrogen)
  ------------
            Exponent  Coefficients 
       -------------- ---------------------------------------------------------
  1 S  3.40613410E+01  0.006025
  1 S  5.12357460E+00  0.045021
  1 S  1.16466260E+00  0.201897
 
  2 S  3.27230410E-01  1.000000
 
  3 S  1.03072410E-01  1.000000
 
  4 P  8.00000000E-01  1.000000
 


 Summary of "ao basis" -> "ao basis" (spherical)
 ------------------------------------------------------------------------------
       Tag                 Description            Shells   Functions and Types
 ---------------- ------------------------------  ------  ---------------------
 O                         def2-TZVP                11       31   5s3p2d1f
 C                         def2-TZVP                11       31   5s3p2d1f
 H                         def2-TZVP                 4        6   3s1p




 Summary of "ao basis" -> "ao basis" (spherical)
 ------------------------------------------------------------------------------
       Tag                 Description            Shells   Functions and Types
 ---------------- ------------------------------  ------  ---------------------
 O                         def2-TZVP                11       31   5s3p2d1f
 C                         def2-TZVP                11       31   5s3p2d1f
 H                         def2-TZVP                 4        6   3s1p


  Caching 1-el integrals 
  itol2e modified to match energy
  convergence criterion.
  tol_rho modified to match energy
  convergence criterion.
 
            General Information
            -------------------
          SCF calculation type: DFT
          Wavefunction type:  closed shell.
          No. of atoms     :    10
          No. of electrons :    32
           Alpha electrons :    16
            Beta electrons :    16
          Charge           :     0
          Spin multiplicity:     1
          Use of symmetry is: off; symmetry adaption is: off
          Maximum number of iterations: 250
          This is a Direct SCF calculation.
          AO basis - number of functions:   160
                     number of shells:    68
          Convergence on energy requested:  1.00D-08
          Convergence on density requested:  1.00D-05
          Convergence on gradient requested:  1.00D-07
 
              XC Information
              --------------
                    Becke 1988 Exchange Functional  1.000          
              Lee-Yang-Parr Correlation Functional  1.000          
 
             Grid Information
             ----------------
          Grid used for XC integration:  xfine     
          Radial quadrature: Mura-Knowles        
          Angular quadrature: Lebedev. 
          Tag              B.-S. Rad. Rad. Pts. Rad. Cut. Ang. Pts.
          ---              ---------- --------- --------- ---------
          O                   0.60      100          11.0      1454
          C                   0.70      100          11.0      1454
          H                   0.35      100          12.0      1202
          Grid pruning is: on 
          Number of quadrature shells:  1000
          Spatial weights used:  Erf1
 
          Convergence Information
          -----------------------
          Convergence aids based upon iterative change in 
          total energy or number of iterations. 
          Levelshifting, if invoked, occurs when the 
          HOMO/LUMO gap drops below (HL_TOL):  1.00D-02
          DIIS, if invoked, will attempt to extrapolate 
          using up to (NFOCK): 10 stored Fock matrices.

                    Damping( 0%)  Levelshifting(0.0)       DIIS
                  --------------- ------------------- ---------------
          dE  on:    start             N/A                start   
          dE off:    2 iters           N/A              250 iters 

 
      Screening Tolerance Information
      -------------------------------
          Density screening/tol_rho:  1.00D-11
          AO Gaussian exp screening on grid/accAOfunc:  18
          CD Gaussian exp screening on grid/accCDfunc:  20
          XC Gaussian exp screening on grid/accXCfunc:  20
          Schwarz screening/accCoul:  1.00D-09

 
      Superposition of Atomic Density Guess
      -------------------------------------
 
 Sum of atomic energies:        -190.79714706
 
      Non-variational initial energy
      ------------------------------

 Total energy =    -193.145224
 1-e energy   =    -501.656506
 2-e energy   =     185.168982
 HOMO         =      -0.351594
 LUMO         =       0.091623
 
   Time after variat. SCF:      0.6
   Time prior to 1st pass:      0.6

 Grid_pts file          = ./methyloxirane_blyp-def2-tzvp_488.9_04.inp.gridpts.0
 Record size in doubles =  12289        No. of grid_pts per rec  =   3070
 Max. records in memory =     76        Max. recs in file   =    554542


           Memory utilization after 1st SCF pass: 
           Heap Space remaining (MW):       12.17            12167542
          Stack Space remaining (MW):       13.11            13106116

   convergence    iter        energy       DeltaE   RMS-Dens  Diis-err    time
 ---------------- ----- ----------------- --------- --------- ---------  ------
 d= 0,ls=0.0,diis     1   -193.0194648816 -3.16D+02  9.16D-03  1.06D+00     6.9
 d= 0,ls=0.0,diis     2   -192.8519023047  1.68D-01  7.55D-03  2.62D+00    13.0
 d= 0,ls=0.0,diis     3   -193.0771750410 -2.25D-01  1.82D-03  3.84D-01    19.2
 d= 0,ls=0.0,diis     4   -193.1070711933 -2.99D-02  6.93D-04  1.85D-02    25.2
 d= 0,ls=0.0,diis     5   -193.1087797963 -1.71D-03  2.91D-04  2.75D-03    31.4
 d= 0,ls=0.0,diis     6   -193.1091228969 -3.43D-04  3.14D-05  3.84D-05    37.4
 d= 0,ls=0.0,diis     7   -193.1091273266 -4.43D-06  1.13D-05  5.66D-06    43.5
 d= 0,ls=0.0,diis     8   -193.1091279839 -6.57D-07  2.50D-06  4.32D-07    49.6
 d= 0,ls=0.0,diis     9   -193.1091280329 -4.90D-08  6.65D-07  3.38D-08    55.8
 d= 0,ls=0.0,diis    10   -193.1091280363 -3.37D-09  2.44D-07  3.72D-09    61.8


         Total DFT energy =     -193.109128036301
      One electron energy =     -505.305908016518
           Coulomb energy =      215.871197047827
    Exchange-Corr. energy =      -27.016717369335
 Nuclear repulsion energy =      123.342300301726

 Numeric. integr. density =       31.999999919860

     Total iterative time =     61.2s


 
                       DFT Final Molecular Orbital Analysis
                       ------------------------------------
 
 Vector    1  Occ=2.000000D+00  E=-1.877956D+01
              MO Center= -8.8D-01, -1.7D-01,  2.1D-01, r^2= 1.5D-02
   Bfn.  Coefficient  Atom+Function         Bfn.  Coefficient  Atom+Function  
  ----- ------------  ---------------      ----- ------------  ---------------
     2      0.638481   1 O  s                 1      0.435422   1 O  s         
     3      0.039843   1 O  s                 4     -0.033086   1 O  s         
 
 Vector    2  Occ=2.000000D+00  E=-9.964099D+00
              MO Center=  5.8D-01, -1.6D-01,  1.3D-01, r^2= 2.8D-02
   Bfn.  Coefficient  Atom+Function         Bfn.  Coefficient  Atom+Function  
  ----- ------------  ---------------      ----- ------------  ---------------
    33      0.606953   2 C  s                32      0.467274   2 C  s         
    34      0.042599   2 C  s                36      0.037304   2 C  s         
    35     -0.028196   2 C  s         
 
 Vector    3  Occ=2.000000D+00  E=-9.955510D+00
              MO Center= -1.9D-01,  1.1D+00,  3.4D-01, r^2= 2.8D-02
   Bfn.  Coefficient  Atom+Function         Bfn.  Coefficient  Atom+Function  
  ----- ------------  ---------------      ----- ------------  ---------------
    64      0.607025   3 C  s                63      0.467233   3 C  s         
    65      0.039604   3 C  s         
 
 Vector    4  Occ=2.000000D+00  E=-9.909118D+00
              MO Center=  1.2D+00, -5.2D-01, -1.2D+00, r^2= 2.8D-02
   Bfn.  Coefficient  Atom+Function         Bfn.  Coefficient  Atom+Function  
  ----- ------------  ---------------      ----- ------------  ---------------
    95      0.606969   4 C  s                94      0.467219   4 C  s         
    96      0.040613   4 C  s                98      0.035629   4 C  s         
 
 Vector    5  Occ=2.000000D+00  E=-9.617457D-01
              MO Center= -4.8D-01,  6.6D-02,  2.1D-01, r^2= 6.5D-01
   Bfn.  Coefficient  Atom+Function         Bfn.  Coefficient  Atom+Function  
  ----- ------------  ---------------      ----- ------------  ---------------
     4      0.375531   1 O  s                 3      0.277747   1 O  s         
     2     -0.192967   1 O  s                65      0.142436   3 C  s         
    34      0.136116   2 C  s                 5      0.122824   1 O  s         
    35      0.104992   2 C  s                66      0.093132   3 C  s         
    69     -0.093179   3 C  py                6      0.092151   1 O  px        
 
 Vector    6  Occ=2.000000D+00  E=-6.696451D-01
              MO Center=  9.4D-01, -3.9D-01, -7.7D-01, r^2= 1.6D+00
   Bfn.  Coefficient  Atom+Function         Bfn.  Coefficient  Atom+Function  
  ----- ------------  ---------------      ----- ------------  ---------------
    97      0.284622   4 C  s                96      0.276011   4 C  s         
    35      0.185873   2 C  s                34      0.176565   2 C  s         
    95     -0.173692   4 C  s                 4     -0.145827   1 O  s         
    33     -0.110030   2 C  s                 3     -0.102489   1 O  s         
    94     -0.083223   4 C  s                 5     -0.072645   1 O  s         
 
 Vector    7  Occ=2.000000D+00  E=-5.880207D-01
              MO Center= -1.2D-01,  7.0D-01,  2.1D-01, r^2= 2.0D+00
   Bfn.  Coefficient  Atom+Function         Bfn.  Coefficient  Atom+Function  
  ----- ------------  ---------------      ----- ------------  ---------------
    66      0.324629   3 C  s                65      0.274543   3 C  s         
     4     -0.242189   1 O  s                 3     -0.170489   1 O  s         
    64     -0.169928   3 C  s                 5     -0.150436   1 O  s         
     2      0.112597   1 O  s                38      0.102663   2 C  py        
    97     -0.102624   4 C  s               132      0.102413   6 H  s         
 
 Vector    8  Occ=2.000000D+00  E=-5.310905D-01
              MO Center=  4.1D-01,  2.6D-02, -9.0D-02, r^2= 2.7D+00
   Bfn.  Coefficient  Atom+Function         Bfn.  Coefficient  Atom+Function  
  ----- ------------  ---------------      ----- ------------  ---------------
    35      0.301929   2 C  s                34      0.224989   2 C  s         
    66     -0.158123   3 C  s                97     -0.153759   4 C  s         
    33     -0.138252   2 C  s               126      0.132247   5 H  s         
    96     -0.128552   4 C  s               125      0.105778   5 H  s         
     6      0.104587   1 O  px               65     -0.103929   3 C  s         
 
 Vector    9  Occ=2.000000D+00  E=-4.475543D-01
              MO Center=  1.2D-01,  2.8D-01,  2.5D-01, r^2= 2.5D+00
   Bfn.  Coefficient  Atom+Function         Bfn.  Coefficient  Atom+Function  
  ----- ------------  ---------------      ----- ------------  ---------------
    70      0.210162   3 C  pz               39      0.155555   2 C  pz        
   132      0.144417   6 H  s                73      0.132076   3 C  pz        
     8      0.127478   1 O  pz              126      0.117235   5 H  s         
     6     -0.110320   1 O  px              131      0.107152   6 H  s         
    38     -0.106533   2 C  py               37      0.105176   2 C  px        
 
 Vector   10  Occ=2.000000D+00  E=-4.129326D-01
              MO Center=  3.9D-02,  2.8D-01, -2.3D-01, r^2= 2.6D+00
   Bfn.  Coefficient  Atom+Function         Bfn.  Coefficient  Atom+Function  
  ----- ------------  ---------------      ----- ------------  ---------------
    69      0.214811   3 C  py              101      0.154138   4 C  pz        
   138      0.152870   7 H  s                 6     -0.148562   1 O  px        
    38     -0.138037   2 C  py               37      0.131150   2 C  px        
    72      0.120689   3 C  py                7     -0.119142   1 O  py        
     9     -0.118670   1 O  px               70     -0.117619   3 C  pz        
 
 Vector   11  Occ=2.000000D+00  E=-3.761759D-01
              MO Center=  9.4D-01, -3.3D-01, -7.7D-01, r^2= 2.6D+00
   Bfn.  Coefficient  Atom+Function         Bfn.  Coefficient  Atom+Function  
  ----- ------------  ---------------      ----- ------------  ---------------
    99      0.213684   4 C  px              144      0.187922   8 H  s         
   100      0.167347   4 C  py              150     -0.143137   9 H  s         
   102      0.137338   4 C  px              143      0.131557   8 H  s         
    37      0.123961   2 C  px                7      0.115586   1 O  py        
   103      0.110624   4 C  py                6     -0.109204   1 O  px        
 
 Vector   12  Occ=2.000000D+00  E=-3.563513D-01
              MO Center=  5.9D-01, -3.4D-01, -8.7D-01, r^2= 2.9D+00
   Bfn.  Coefficient  Atom+Function         Bfn.  Coefficient  Atom+Function  
  ----- ------------  ---------------      ----- ------------  ---------------
   100      0.254866   4 C  py              150     -0.184388   9 H  s         
   156      0.176395  10 H  s                 7     -0.171542   1 O  py        
   103      0.165242   4 C  py               10     -0.136976   1 O  py        
   149     -0.128529   9 H  s               155      0.125023  10 H  s         
    70      0.116305   3 C  pz              106      0.103301   4 C  py        
 
 Vector   13  Occ=2.000000D+00  E=-3.293250D-01
              MO Center=  3.2D-01,  2.3D-01, -2.4D-01, r^2= 2.7D+00
   Bfn.  Coefficient  Atom+Function         Bfn.  Coefficient  Atom+Function  
  ----- ------------  ---------------      ----- ------------  ---------------
    39      0.208164   2 C  pz              101     -0.186209   4 C  pz        
     7     -0.184469   1 O  py               70     -0.164172   3 C  pz        
   138      0.158580   7 H  s                10     -0.148659   1 O  py        
    42      0.141697   2 C  pz               99      0.140932   4 C  px        
   104     -0.131390   4 C  pz              137      0.106881   7 H  s         
 
 Vector   14  Occ=2.000000D+00  E=-3.216073D-01
              MO Center=  4.1D-01, -4.3D-02, -2.2D-01, r^2= 3.0D+00
   Bfn.  Coefficient  Atom+Function         Bfn.  Coefficient  Atom+Function  
  ----- ------------  ---------------      ----- ------------  ---------------
     7      0.198484   1 O  py              126      0.170138   5 H  s         
    10      0.162500   1 O  py              156      0.158271  10 H  s         
    39      0.147680   2 C  pz               99     -0.145463   4 C  px        
   101     -0.135217   4 C  pz                6     -0.132069   1 O  px        
    37      0.122608   2 C  px              144     -0.119614   8 H  s         
 
 Vector   15  Occ=2.000000D+00  E=-2.627838D-01
              MO Center=  2.0D-02,  1.4D-01,  3.8D-02, r^2= 2.3D+00
   Bfn.  Coefficient  Atom+Function         Bfn.  Coefficient  Atom+Function  
  ----- ------------  ---------------      ----- ------------  ---------------
    38     -0.259432   2 C  py               68     -0.257327   3 C  px        
     6      0.245689   1 O  px               41     -0.202585   2 C  py        
     9      0.192707   1 O  px               71     -0.190446   3 C  px        
    12      0.161510   1 O  px              150     -0.113902   9 H  s         
    67     -0.110978   3 C  s               100      0.109010   4 C  py        
 
 Vector   16  Occ=2.000000D+00  E=-2.195238D-01
              MO Center= -6.0D-01,  7.7D-04,  2.0D-01, r^2= 1.6D+00
   Bfn.  Coefficient  Atom+Function         Bfn.  Coefficient  Atom+Function  
  ----- ------------  ---------------      ----- ------------  ---------------
     8      0.449594   1 O  pz               11      0.358112   1 O  pz        
    14      0.296631   1 O  pz              133     -0.136881   6 H  s         
   139      0.125820   7 H  s               138      0.109866   7 H  s         
   132     -0.108454   6 H  s               145     -0.101218   8 H  s         
   126     -0.090653   5 H  s                70     -0.078253   3 C  pz        
 
 Vector   17  Occ=0.000000D+00  E= 2.581680D-02
              MO Center=  1.2D+00, -1.2D-01, -6.7D-01, r^2= 7.3D+00
   Bfn.  Coefficient  Atom+Function         Bfn.  Coefficient  Atom+Function  
  ----- ------------  ---------------      ----- ------------  ---------------
    98      4.550889   4 C  s               145     -1.525295   8 H  s         
   151     -1.529779   9 H  s               157     -1.382932  10 H  s         
   127     -1.205848   5 H  s                45      1.128231   2 C  pz        
   139     -0.901468   7 H  s                67      0.777653   3 C  s         
   133     -0.602969   6 H  s                75      0.328416   3 C  py        
 
 Vector   18  Occ=0.000000D+00  E= 4.586866D-02
              MO Center=  3.3D-02,  5.7D-01,  4.6D-02, r^2= 5.2D+00
   Bfn.  Coefficient  Atom+Function         Bfn.  Coefficient  Atom+Function  
  ----- ------------  ---------------      ----- ------------  ---------------
    98      2.404101   4 C  s                36     -1.604887   2 C  s         
     5      1.442789   1 O  s               151     -0.838248   9 H  s         
    74      0.775756   3 C  px               45      0.615830   2 C  pz        
   145     -0.605933   8 H  s                67     -0.529215   3 C  s         
    75      0.442573   3 C  py               13      0.410328   1 O  py        
 
 Vector   19  Occ=0.000000D+00  E= 4.873343D-02
              MO Center=  2.7D-01,  5.2D-01, -2.4D-02, r^2= 5.5D+00
   Bfn.  Coefficient  Atom+Function         Bfn.  Coefficient  Atom+Function  
  ----- ------------  ---------------      ----- ------------  ---------------
    67      3.036931   3 C  s                36     -2.739466   2 C  s         
   139     -1.333528   7 H  s               127      1.294211   5 H  s         
    44     -0.816449   2 C  py               74      0.779890   3 C  px        
   145      0.641126   8 H  s               157     -0.559864  10 H  s         
   133     -0.545724   6 H  s                45     -0.461627   2 C  pz        
 
 Vector   20  Occ=0.000000D+00  E= 5.082968D-02
              MO Center=  6.2D-01,  3.4D-01,  4.6D-01, r^2= 7.3D+00
   Bfn.  Coefficient  Atom+Function         Bfn.  Coefficient  Atom+Function  
  ----- ------------  ---------------      ----- ------------  ---------------
    98      3.032218   4 C  s                67     -1.741328   3 C  s         
   127      1.700807   5 H  s               133      1.657677   6 H  s         
    36     -1.412137   2 C  s               157     -1.216654  10 H  s         
    44      0.962430   2 C  py              145     -0.945145   8 H  s         
    43     -0.756580   2 C  px               76     -0.638340   3 C  pz        
 
 Vector   21  Occ=0.000000D+00  E= 6.137439D-02
              MO Center=  2.0D-01,  3.7D-01, -1.7D-01, r^2= 5.4D+00
   Bfn.  Coefficient  Atom+Function         Bfn.  Coefficient  Atom+Function  
  ----- ------------  ---------------      ----- ------------  ---------------
    67      1.755968   3 C  s               139     -1.493564   7 H  s         
    98     -1.333109   4 C  s               151      0.962976   9 H  s         
   133     -0.826945   6 H  s                43      0.783067   2 C  px        
     5      0.671528   1 O  s               127      0.597483   5 H  s         
    45     -0.504377   2 C  pz               12      0.443085   1 O  px        
 
 Vector   22  Occ=0.000000D+00  E= 8.495443D-02
              MO Center=  1.2D+00,  2.8D-01, -4.4D-01, r^2= 7.3D+00
   Bfn.  Coefficient  Atom+Function         Bfn.  Coefficient  Atom+Function  
  ----- ------------  ---------------      ----- ------------  ---------------
    36      2.947963   2 C  s               145      1.860882   8 H  s         
    67     -1.499389   3 C  s               157     -1.343340  10 H  s         
   127     -1.302022   5 H  s               133      1.246118   6 H  s         
   107     -1.134021   4 C  pz               98     -0.987224   4 C  s         
   105     -0.938141   4 C  px               75      0.829677   3 C  py        
 
 Vector   23  Occ=0.000000D+00  E= 9.126770D-02
              MO Center=  1.3D+00, -7.2D-01, -6.7D-01, r^2= 6.3D+00
   Bfn.  Coefficient  Atom+Function         Bfn.  Coefficient  Atom+Function  
  ----- ------------  ---------------      ----- ------------  ---------------
    36      2.263570   2 C  s               151      2.144488   9 H  s         
   145     -1.719479   8 H  s                98     -1.221300   4 C  s         
   106      1.197172   4 C  py              105      1.160056   4 C  px        
    67     -0.828072   3 C  s               133      0.791136   6 H  s         
   127     -0.702785   5 H  s                44     -0.632911   2 C  py        
 
 Vector   24  Occ=0.000000D+00  E= 1.026908D-01
              MO Center=  4.3D-01,  4.5D-01, -1.1D+00, r^2= 6.8D+00
   Bfn.  Coefficient  Atom+Function         Bfn.  Coefficient  Atom+Function  
  ----- ------------  ---------------      ----- ------------  ---------------
   157      2.026119  10 H  s               133      1.593391   6 H  s         
    98     -1.521486   4 C  s               139     -1.485450   7 H  s         
   106     -1.442129   4 C  py               36      1.351947   2 C  s         
   151     -1.350670   9 H  s                76     -1.136195   3 C  pz        
   105      1.049256   4 C  px               45     -0.593047   2 C  pz        
 
 Vector   25  Occ=0.000000D+00  E= 1.388426D-01
              MO Center=  7.7D-01,  2.0D-01, -4.1D-01, r^2= 7.9D+00
   Bfn.  Coefficient  Atom+Function         Bfn.  Coefficient  Atom+Function  
  ----- ------------  ---------------      ----- ------------  ---------------
    36      4.508567   2 C  s                98     -3.458709   4 C  s         
    45     -3.395010   2 C  pz               67     -2.747613   3 C  s         
   127      2.749152   5 H  s                76      2.181565   3 C  pz        
   105      2.033792   4 C  px              133     -1.820649   6 H  s         
   139      1.717078   7 H  s               107     -1.573575   4 C  pz        
 
 Vector   26  Occ=0.000000D+00  E= 1.700826D-01
              MO Center=  4.6D-01,  5.2D-01, -1.3D-01, r^2= 7.3D+00
   Bfn.  Coefficient  Atom+Function         Bfn.  Coefficient  Atom+Function  
  ----- ------------  ---------------      ----- ------------  ---------------
    75      2.278820   3 C  py              107      1.627664   4 C  pz        
    67     -1.455543   3 C  s                36      1.350746   2 C  s         
   139     -1.195766   7 H  s               157      1.064252  10 H  s         
    74     -0.959062   3 C  px               44      0.710327   2 C  py        
   106     -0.586227   4 C  py               43     -0.559619   2 C  px        
 
 Vector   27  Occ=0.000000D+00  E= 1.990501D-01
              MO Center=  9.1D-01, -8.2D-02, -9.7D-01, r^2= 5.2D+00
   Bfn.  Coefficient  Atom+Function         Bfn.  Coefficient  Atom+Function  
  ----- ------------  ---------------      ----- ------------  ---------------
    67      3.034278   3 C  s                44     -2.563332   2 C  py        
   106      2.086520   4 C  py               36     -1.366574   2 C  s         
    43      0.967794   2 C  px              150      0.672402   9 H  s         
   157     -0.665554  10 H  s                74      0.653691   3 C  px        
    45     -0.634933   2 C  pz              105      0.561968   4 C  px        
 
 Vector   28  Occ=0.000000D+00  E= 2.017620D-01
              MO Center=  8.9D-01, -4.5D-01, -7.3D-01, r^2= 6.6D+00
   Bfn.  Coefficient  Atom+Function         Bfn.  Coefficient  Atom+Function  
  ----- ------------  ---------------      ----- ------------  ---------------
    36      2.677159   2 C  s                75      1.771461   3 C  py        
   105     -1.514610   4 C  px              133     -1.180444   6 H  s         
    45      0.842657   2 C  pz              139     -0.792249   7 H  s         
   107     -0.760340   4 C  pz              156     -0.711512  10 H  s         
   106      0.637693   4 C  py               76      0.628898   3 C  pz        
 
 Vector   29  Occ=0.000000D+00  E= 2.375396D-01
              MO Center= -1.5D-01,  2.0D-01, -1.2D-01, r^2= 5.5D+00
   Bfn.  Coefficient  Atom+Function         Bfn.  Coefficient  Atom+Function  
  ----- ------------  ---------------      ----- ------------  ---------------
    67      3.989396   3 C  s                36     -3.090630   2 C  s         
   139     -1.585487   7 H  s                66     -1.453954   3 C  s         
    98      1.375893   4 C  s               133     -1.190509   6 H  s         
   107      1.151765   4 C  pz               44      0.911133   2 C  py        
    74     -0.738290   3 C  px              157      0.731926  10 H  s         
 
 Vector   30  Occ=0.000000D+00  E= 2.464764D-01
              MO Center=  5.0D-01,  7.7D-02, -4.6D-02, r^2= 5.9D+00
   Bfn.  Coefficient  Atom+Function         Bfn.  Coefficient  Atom+Function  
  ----- ------------  ---------------      ----- ------------  ---------------
    67      6.288428   3 C  s                43      4.096190   2 C  px        
    75     -2.988252   3 C  py               36     -2.464383   2 C  s         
    44     -2.471016   2 C  py              107     -1.866217   4 C  pz        
   157     -1.788510  10 H  s                45     -1.328983   2 C  pz        
   105     -1.197223   4 C  px               98     -1.005405   4 C  s         
 
 Vector   31  Occ=0.000000D+00  E= 2.673182D-01
              MO Center=  1.7D-01, -2.2D-01,  2.5D-01, r^2= 5.6D+00
   Bfn.  Coefficient  Atom+Function         Bfn.  Coefficient  Atom+Function  
  ----- ------------  ---------------      ----- ------------  ---------------
    36      4.525120   2 C  s                 5     -2.394451   1 O  s         
    67      2.195879   3 C  s                43     -1.664857   2 C  px        
   105      1.545964   4 C  px               98     -1.200725   4 C  s         
    66     -1.167620   3 C  s               139     -0.955390   7 H  s         
   133     -0.928431   6 H  s               127     -0.824824   5 H  s         
 
 Vector   32  Occ=0.000000D+00  E= 2.774881D-01
              MO Center=  4.2D-01,  5.2D-01,  3.2D-01, r^2= 4.0D+00
   Bfn.  Coefficient  Atom+Function         Bfn.  Coefficient  Atom+Function  
  ----- ------------  ---------------      ----- ------------  ---------------
    36     -1.558282   2 C  s                 5      1.511176   1 O  s         
    67      1.312118   3 C  s                43      1.077143   2 C  px        
    74      0.836933   3 C  px               45      0.699215   2 C  pz        
    98      0.569487   4 C  s               145     -0.568415   8 H  s         
     4     -0.474117   1 O  s                71     -0.403122   3 C  px        
 
 Vector   33  Occ=0.000000D+00  E= 3.000073D-01
              MO Center=  4.5D-01,  3.3D-01, -4.0D-01, r^2= 5.0D+00
   Bfn.  Coefficient  Atom+Function         Bfn.  Coefficient  Atom+Function  
  ----- ------------  ---------------      ----- ------------  ---------------
    43      1.972123   2 C  px              106      1.704726   4 C  py        
    98     -1.670688   4 C  s               151      1.636381   9 H  s         
    76      1.336073   3 C  pz               36     -1.257390   2 C  s         
    44     -1.242703   2 C  py              107     -1.104880   4 C  pz        
    66      1.003683   3 C  s               139      0.933551   7 H  s         
 
 Vector   34  Occ=0.000000D+00  E= 3.354528D-01
              MO Center=  8.3D-02,  4.3D-01, -3.9D-01, r^2= 5.8D+00
   Bfn.  Coefficient  Atom+Function         Bfn.  Coefficient  Atom+Function  
  ----- ------------  ---------------      ----- ------------  ---------------
    67      4.687131   3 C  s                76     -4.070282   3 C  pz        
   139     -3.174719   7 H  s                36     -2.254542   2 C  s         
   133      2.022000   6 H  s               107     -1.753193   4 C  pz        
   157     -1.714564  10 H  s                43      1.489398   2 C  px        
    98      1.488849   4 C  s                44     -1.206068   2 C  py        
 
 Vector   35  Occ=0.000000D+00  E= 3.620198D-01
              MO Center=  7.4D-01, -1.1D-02, -3.5D-01, r^2= 6.8D+00
   Bfn.  Coefficient  Atom+Function         Bfn.  Coefficient  Atom+Function  
  ----- ------------  ---------------      ----- ------------  ---------------
    98      7.450012   4 C  s                76      3.417649   3 C  pz        
   145     -3.190625   8 H  s                97     -3.148700   4 C  s         
   133     -2.494307   6 H  s               151     -1.948820   9 H  s         
    45     -1.930267   2 C  pz              139      1.586088   7 H  s         
    44      1.438687   2 C  py              157     -1.352033  10 H  s         
 
 Vector   36  Occ=0.000000D+00  E= 3.716304D-01
              MO Center=  5.6D-01,  2.6D-01, -1.7D-02, r^2= 6.3D+00
   Bfn.  Coefficient  Atom+Function         Bfn.  Coefficient  Atom+Function  
  ----- ------------  ---------------      ----- ------------  ---------------
    36     12.689851   2 C  s                67     -8.468760   3 C  s         
    98     -8.221906   4 C  s               127     -3.157719   5 H  s         
   157      2.254462  10 H  s                97      2.237116   4 C  s         
    44      1.962325   2 C  py               35     -1.885650   2 C  s         
    74     -1.621416   3 C  px               75      1.544935   3 C  py        
 
 Vector   37  Occ=0.000000D+00  E= 3.846889D-01
              MO Center=  9.2D-01, -3.7D-01, -1.4D-01, r^2= 6.2D+00
   Bfn.  Coefficient  Atom+Function         Bfn.  Coefficient  Atom+Function  
  ----- ------------  ---------------      ----- ------------  ---------------
    36      5.909518   2 C  s                98      5.163405   4 C  s         
   127     -4.014579   5 H  s                67     -3.102471   3 C  s         
    45      3.072117   2 C  pz              151     -2.367778   9 H  s         
    35     -2.234749   2 C  s               145     -2.222392   8 H  s         
    76     -2.008868   3 C  pz              133      1.768018   6 H  s         
 
 Vector   38  Occ=0.000000D+00  E= 3.937329D-01
              MO Center=  2.7D-01,  2.3D-01, -1.1D-01, r^2= 6.5D+00
   Bfn.  Coefficient  Atom+Function         Bfn.  Coefficient  Atom+Function  
  ----- ------------  ---------------      ----- ------------  ---------------
    98     11.776240   4 C  s                67     -6.708096   3 C  s         
    45      4.721675   2 C  pz               44      2.765275   2 C  py        
    76     -2.711260   3 C  pz              157     -2.635991  10 H  s         
   133      2.519665   6 H  s                43     -2.285043   2 C  px        
    75      1.922827   3 C  py               97     -1.823691   4 C  s         
 
 Vector   39  Occ=0.000000D+00  E= 4.016384D-01
              MO Center= -2.4D-01,  1.7D-01,  1.9D-01, r^2= 6.4D+00
   Bfn.  Coefficient  Atom+Function         Bfn.  Coefficient  Atom+Function  
  ----- ------------  ---------------      ----- ------------  ---------------
    36     12.012189   2 C  s                67    -11.979285   3 C  s         
    98     -5.885008   4 C  s                45     -5.542936   2 C  pz        
    44      3.890628   2 C  py              127      3.117498   5 H  s         
    66      2.666299   3 C  s                43     -2.465103   2 C  px        
   139      2.413297   7 H  s               105      2.376960   4 C  px        
 
 Vector   40  Occ=0.000000D+00  E= 4.147509D-01
              MO Center=  8.3D-01, -4.3D-01, -8.9D-01, r^2= 5.8D+00
   Bfn.  Coefficient  Atom+Function         Bfn.  Coefficient  Atom+Function  
  ----- ------------  ---------------      ----- ------------  ---------------
    98      7.444118   4 C  s                36     -3.899361   2 C  s         
    45      3.111002   2 C  pz              105     -2.614632   4 C  px        
   151     -2.542293   9 H  s               157     -2.050297  10 H  s         
   145      1.777770   8 H  s                97     -1.201947   4 C  s         
   127     -0.992315   5 H  s               144     -0.978803   8 H  s         
 
 Vector   41  Occ=0.000000D+00  E= 4.271906D-01
              MO Center=  4.3D-01,  2.7D-01, -9.0D-02, r^2= 6.7D+00
   Bfn.  Coefficient  Atom+Function         Bfn.  Coefficient  Atom+Function  
  ----- ------------  ---------------      ----- ------------  ---------------
    36      9.374449   2 C  s                67     -4.756011   3 C  s         
    98     -4.157392   4 C  s                44      2.579117   2 C  py        
    75      2.526088   3 C  py              151      2.233705   9 H  s         
    43     -1.737695   2 C  px               45     -1.576598   2 C  pz        
    74     -1.472865   3 C  px              132      1.366923   6 H  s         
 
 Vector   42  Occ=0.000000D+00  E= 4.462060D-01
              MO Center=  6.8D-02, -1.6D-01, -2.1D-01, r^2= 6.1D+00
   Bfn.  Coefficient  Atom+Function         Bfn.  Coefficient  Atom+Function  
  ----- ------------  ---------------      ----- ------------  ---------------
    36      9.345644   2 C  s                98     -9.141570   4 C  s         
    45     -5.525573   2 C  pz               67     -2.712503   3 C  s         
   127      2.708861   5 H  s                76      2.467450   3 C  pz        
   106     -2.093764   4 C  py               44      1.982792   2 C  py        
   157      1.968779  10 H  s                35     -1.900499   2 C  s         
 
 Vector   43  Occ=0.000000D+00  E= 4.581433D-01
              MO Center=  1.1D-01,  7.6D-01, -6.7D-01, r^2= 5.2D+00
   Bfn.  Coefficient  Atom+Function         Bfn.  Coefficient  Atom+Function  
  ----- ------------  ---------------      ----- ------------  ---------------
   139      3.205467   7 H  s               157     -2.678241  10 H  s         
    75     -2.368994   3 C  py              107     -2.293855   4 C  pz        
    43      1.789181   2 C  px               44     -1.772019   2 C  py        
    45     -1.500977   2 C  pz              138     -1.425632   7 H  s         
    74      0.884242   3 C  px               76      0.854622   3 C  pz        
 
 Vector   44  Occ=0.000000D+00  E= 4.674300D-01
              MO Center=  4.4D-01,  2.8D-01,  1.3D-01, r^2= 5.6D+00
   Bfn.  Coefficient  Atom+Function         Bfn.  Coefficient  Atom+Function  
  ----- ------------  ---------------      ----- ------------  ---------------
    98     -4.326684   4 C  s                36      4.042411   2 C  s         
   133      1.680964   6 H  s               145      1.611114   8 H  s         
    45     -1.524266   2 C  pz              107     -1.258946   4 C  pz        
   127     -1.227976   5 H  s               132     -1.220825   6 H  s         
    67     -1.214705   3 C  s               126      1.165642   5 H  s         
 
 Vector   45  Occ=0.000000D+00  E= 5.073640D-01
              MO Center=  9.3D-01, -3.9D-01, -9.6D-01, r^2= 4.7D+00
   Bfn.  Coefficient  Atom+Function         Bfn.  Coefficient  Atom+Function  
  ----- ------------  ---------------      ----- ------------  ---------------
    98     11.076605   4 C  s                36     -7.270343   2 C  s         
    45      4.353301   2 C  pz              107      2.998585   4 C  pz        
   144     -1.348481   8 H  s               106      1.305974   4 C  py        
   156     -1.235939  10 H  s               150     -1.099884   9 H  s         
   127     -1.048468   5 H  s                14     -0.995591   1 O  pz        
 
 Vector   46  Occ=0.000000D+00  E= 5.402496D-01
              MO Center=  8.1D-02, -4.1D-01, -4.7D-01, r^2= 4.4D+00
   Bfn.  Coefficient  Atom+Function         Bfn.  Coefficient  Atom+Function  
  ----- ------------  ---------------      ----- ------------  ---------------
    98     -7.133921   4 C  s                36      6.864462   2 C  s         
    45     -3.642655   2 C  pz               76      3.321483   3 C  pz        
   133     -1.836298   6 H  s               139      1.525581   7 H  s         
   105      1.504961   4 C  px              107     -1.453584   4 C  pz        
    14     -1.198233   1 O  pz                5     -1.166226   1 O  s         
 
 Vector   47  Occ=0.000000D+00  E= 6.569266D-01
              MO Center= -2.9D-01, -3.1D-03, -1.9D-02, r^2= 4.3D+00
   Bfn.  Coefficient  Atom+Function         Bfn.  Coefficient  Atom+Function  
  ----- ------------  ---------------      ----- ------------  ---------------
    36     10.773195   2 C  s                67     -8.324613   3 C  s         
    98     -3.754629   4 C  s                43     -2.586411   2 C  px        
    75      2.188964   3 C  py               13      2.023929   1 O  py        
    76      2.008098   3 C  pz              105      1.569524   4 C  px        
   139      1.479277   7 H  s                44      1.441381   2 C  py        
 
 Vector   48  Occ=0.000000D+00  E= 6.760009D-01
              MO Center= -3.2D-01,  3.7D-01,  9.8D-02, r^2= 4.0D+00
   Bfn.  Coefficient  Atom+Function         Bfn.  Coefficient  Atom+Function  
  ----- ------------  ---------------      ----- ------------  ---------------
    36      8.946605   2 C  s                67     -8.438787   3 C  s         
     5      3.143563   1 O  s                75      2.725227   3 C  py        
    98     -2.684876   4 C  s                13      2.262187   1 O  py        
    43     -1.417307   2 C  px               45     -1.307076   2 C  pz        
     4     -1.149418   1 O  s                76      1.002056   3 C  pz        
 
 Vector   49  Occ=0.000000D+00  E= 7.038376D-01
              MO Center=  1.3D-01, -3.3D-01, -2.6D-01, r^2= 4.5D+00
   Bfn.  Coefficient  Atom+Function         Bfn.  Coefficient  Atom+Function  
  ----- ------------  ---------------      ----- ------------  ---------------
    67      9.724143   3 C  s                36     -7.400839   2 C  s         
    43      3.650701   2 C  px               44     -3.481440   2 C  py        
    75     -2.787613   3 C  py               98     -2.691743   4 C  s         
     5      2.040948   1 O  s                12      1.702514   1 O  px        
   106      1.633841   4 C  py               13     -1.380718   1 O  py        
 
 Vector   50  Occ=0.000000D+00  E= 7.597819D-01
              MO Center=  6.3D-01,  2.6D-02, -3.1D-01, r^2= 4.1D+00
   Bfn.  Coefficient  Atom+Function         Bfn.  Coefficient  Atom+Function  
  ----- ------------  ---------------      ----- ------------  ---------------
    45      2.538122   2 C  pz              127     -1.746079   5 H  s         
   105     -1.663678   4 C  px               43      1.544226   2 C  px        
   126     -1.344392   5 H  s               144      1.251330   8 H  s         
     5     -1.243297   1 O  s                76     -1.063035   3 C  pz        
    67      1.033516   3 C  s                36      1.019497   2 C  s         
 
 Vector   51  Occ=0.000000D+00  E= 7.946702D-01
              MO Center=  2.5D-01,  2.4D-02, -1.7D-01, r^2= 4.4D+00
   Bfn.  Coefficient  Atom+Function         Bfn.  Coefficient  Atom+Function  
  ----- ------------  ---------------      ----- ------------  ---------------
     5      4.299262   1 O  s                36     -2.963617   2 C  s         
    76     -2.411552   3 C  pz                4     -1.682317   1 O  s         
    45      1.524841   2 C  pz               12      1.378451   1 O  px        
   133      1.287999   6 H  s                43      1.203534   2 C  px        
    66     -1.053922   3 C  s                35     -0.935574   2 C  s         
 
 Vector   52  Occ=0.000000D+00  E= 8.321747D-01
              MO Center=  3.2D-01,  1.7D-01, -8.2D-03, r^2= 4.4D+00
   Bfn.  Coefficient  Atom+Function         Bfn.  Coefficient  Atom+Function  
  ----- ------------  ---------------      ----- ------------  ---------------
    36      6.356501   2 C  s                98     -3.910183   4 C  s         
     5     -3.833408   1 O  s                43     -2.484101   2 C  px        
   105      1.882702   4 C  px               35     -1.854649   2 C  s         
    45     -1.572253   2 C  pz               44      1.390786   2 C  py        
    66     -1.164369   3 C  s                97      1.088047   4 C  s         
 
 Vector   53  Occ=0.000000D+00  E= 8.547366D-01
              MO Center=  5.7D-01,  1.5D-01, -3.9D-01, r^2= 4.2D+00
   Bfn.  Coefficient  Atom+Function         Bfn.  Coefficient  Atom+Function  
  ----- ------------  ---------------      ----- ------------  ---------------
    36      5.077934   2 C  s                98     -4.886831   4 C  s         
    45     -4.629193   2 C  pz               76      1.965798   3 C  pz        
   127      1.782647   5 H  s               106     -1.628877   4 C  py        
    44      1.517952   2 C  py              105      1.382359   4 C  px        
     5     -1.274379   1 O  s               150     -1.181757   9 H  s         
 
 Vector   54  Occ=0.000000D+00  E= 8.734096D-01
              MO Center=  2.2D-01, -4.8D-02, -1.4D-01, r^2= 4.2D+00
   Bfn.  Coefficient  Atom+Function         Bfn.  Coefficient  Atom+Function  
  ----- ------------  ---------------      ----- ------------  ---------------
     5      4.402282   1 O  s                 4     -1.509227   1 O  s         
    76      1.481002   3 C  pz               67     -1.458430   3 C  s         
    98     -1.432018   4 C  s               138      1.385272   7 H  s         
    66     -1.217366   3 C  s                12      1.149893   1 O  px        
    36     -1.099475   2 C  s                44      0.932478   2 C  py        
 
 Vector   55  Occ=0.000000D+00  E= 9.191021D-01
              MO Center=  4.9D-01,  3.2D-01, -4.7D-01, r^2= 4.5D+00
   Bfn.  Coefficient  Atom+Function         Bfn.  Coefficient  Atom+Function  
  ----- ------------  ---------------      ----- ------------  ---------------
    35      4.806714   2 C  s                36     -1.415346   2 C  s         
    67      1.374193   3 C  s               132     -1.358464   6 H  s         
    72      1.250402   3 C  py               98     -1.205387   4 C  s         
    66     -1.190599   3 C  s                84      1.162080   3 C  d  0      
   156     -1.128349  10 H  s                41      1.117065   2 C  py        
 
 Vector   56  Occ=0.000000D+00  E= 9.600132D-01
              MO Center=  4.6D-01,  2.8D-01, -5.6D-01, r^2= 4.7D+00
   Bfn.  Coefficient  Atom+Function         Bfn.  Coefficient  Atom+Function  
  ----- ------------  ---------------      ----- ------------  ---------------
    35      4.266653   2 C  s                67      2.718900   3 C  s         
   138     -2.331899   7 H  s                76     -1.880892   3 C  pz        
    36     -1.786365   2 C  s                42     -1.726599   2 C  pz        
    83     -1.638340   3 C  d -1            115     -1.487409   4 C  d  0      
   132      1.347272   6 H  s                43      1.257710   2 C  px        
 
 Vector   57  Occ=0.000000D+00  E= 9.913304D-01
              MO Center=  3.9D-01,  4.0D-01, -1.5D-01, r^2= 4.1D+00
   Bfn.  Coefficient  Atom+Function         Bfn.  Coefficient  Atom+Function  
  ----- ------------  ---------------      ----- ------------  ---------------
    36      7.746205   2 C  s                98     -4.964690   4 C  s         
    67     -4.169072   3 C  s                45     -3.831134   2 C  pz        
    43     -2.345765   2 C  px               44      2.248670   2 C  py        
    66     -1.731190   3 C  s               127      1.605007   5 H  s         
    75      1.511100   3 C  py              126      1.407504   5 H  s         
 
 Vector   58  Occ=0.000000D+00  E= 1.012373D+00
              MO Center=  3.2D-01,  6.2D-01, -1.1D-03, r^2= 4.2D+00
   Bfn.  Coefficient  Atom+Function         Bfn.  Coefficient  Atom+Function  
  ----- ------------  ---------------      ----- ------------  ---------------
    36      5.118053   2 C  s                67     -4.305001   3 C  s         
    45     -1.986131   2 C  pz               44      1.773675   2 C  py        
    98     -1.471753   4 C  s                82      1.419341   3 C  d -2      
   156     -1.403906  10 H  s                74     -1.384858   3 C  px        
    41      1.290496   2 C  py               76      1.276632   3 C  pz        
 
 Vector   59  Occ=0.000000D+00  E= 1.040378D+00
              MO Center=  7.4D-01, -2.1D-01, -5.0D-01, r^2= 4.1D+00
   Bfn.  Coefficient  Atom+Function         Bfn.  Coefficient  Atom+Function  
  ----- ------------  ---------------      ----- ------------  ---------------
    35      2.546603   2 C  s                36      2.205618   2 C  s         
   150      1.990533   9 H  s                66     -1.975255   3 C  s         
   144     -1.977556   8 H  s                 5     -1.806901   1 O  s         
   117      1.745143   4 C  d  2             41      1.300168   2 C  py        
    44      1.139051   2 C  py               72      1.022620   3 C  py        
 
 Vector   60  Occ=0.000000D+00  E= 1.076614D+00
              MO Center=  6.8D-01,  3.2D-02, -6.3D-02, r^2= 4.1D+00
   Bfn.  Coefficient  Atom+Function         Bfn.  Coefficient  Atom+Function  
  ----- ------------  ---------------      ----- ------------  ---------------
    66      4.090715   3 C  s                98     -4.046169   4 C  s         
    45     -3.631249   2 C  pz               97     -3.567694   4 C  s         
    36      3.139532   2 C  s                41     -2.580355   2 C  py        
   104     -2.458076   4 C  pz               72     -2.362268   3 C  py        
    42     -2.292371   2 C  pz               40      2.232311   2 C  px        
 
 Vector   61  Occ=0.000000D+00  E= 1.106689D+00
              MO Center=  3.7D-01,  4.6D-02,  4.9D-02, r^2= 3.8D+00
   Bfn.  Coefficient  Atom+Function         Bfn.  Coefficient  Atom+Function  
  ----- ------------  ---------------      ----- ------------  ---------------
    36      7.679220   2 C  s                67     -5.308156   3 C  s         
    98     -3.050869   4 C  s                45     -2.057743   2 C  pz        
    66      2.040408   3 C  s               126     -1.916550   5 H  s         
   132      1.618760   6 H  s                72     -1.551863   3 C  py        
    97     -1.451382   4 C  s                41     -1.439947   2 C  py        
 
 Vector   62  Occ=0.000000D+00  E= 1.144811D+00
              MO Center=  6.1D-01,  5.4D-02, -1.7D-03, r^2= 3.6D+00
   Bfn.  Coefficient  Atom+Function         Bfn.  Coefficient  Atom+Function  
  ----- ------------  ---------------      ----- ------------  ---------------
    67      5.498666   3 C  s                36     -4.384781   2 C  s         
    44     -2.439357   2 C  py              126      1.891548   5 H  s         
    43      1.617564   2 C  px               97     -1.585829   4 C  s         
    54      1.529824   2 C  d  1             75     -1.482927   3 C  py        
   132     -1.486418   6 H  s                55      1.415313   2 C  d  2      
 
 Vector   63  Occ=0.000000D+00  E= 1.212432D+00
              MO Center=  5.6D-01,  2.1D-01, -1.5D-01, r^2= 3.8D+00
   Bfn.  Coefficient  Atom+Function         Bfn.  Coefficient  Atom+Function  
  ----- ------------  ---------------      ----- ------------  ---------------
    36      6.443054   2 C  s                66     -5.026190   3 C  s         
    97     -3.293908   4 C  s                35      3.151490   2 C  s         
    67     -3.030027   3 C  s                72      1.927828   3 C  py        
    51     -1.753065   2 C  d -2             52      1.685434   2 C  d -1      
   138      1.652885   7 H  s                41      1.508748   2 C  py        
 
 Vector   64  Occ=0.000000D+00  E= 1.347016D+00
              MO Center=  3.5D-01,  5.3D-01,  2.3D-01, r^2= 3.5D+00
   Bfn.  Coefficient  Atom+Function         Bfn.  Coefficient  Atom+Function  
  ----- ------------  ---------------      ----- ------------  ---------------
    66      4.621419   3 C  s                35      4.013641   2 C  s         
    67     -3.005879   3 C  s                36     -2.838584   2 C  s         
    65     -2.362783   3 C  s               132     -2.046874   6 H  s         
    34     -1.504157   2 C  s               133      1.396171   6 H  s         
    72      1.321182   3 C  py              139      1.052190   7 H  s         
 
 Vector   65  Occ=0.000000D+00  E= 1.415505D+00
              MO Center=  2.0D-01,  4.8D-01, -5.3D-02, r^2= 3.4D+00
   Bfn.  Coefficient  Atom+Function         Bfn.  Coefficient  Atom+Function  
  ----- ------------  ---------------      ----- ------------  ---------------
    66     -4.122798   3 C  s                36     -4.051155   2 C  s         
    67      3.855982   3 C  s                35      3.774615   2 C  s         
    73      2.202983   3 C  pz              138      2.205844   7 H  s         
   139     -2.134350   7 H  s               126     -1.859530   5 H  s         
    65      1.672517   3 C  s                34     -1.575406   2 C  s         
 
 Vector   66  Occ=0.000000D+00  E= 1.433098D+00
              MO Center=  1.1D+00, -4.3D-01, -1.1D+00, r^2= 3.6D+00
   Bfn.  Coefficient  Atom+Function         Bfn.  Coefficient  Atom+Function  
  ----- ------------  ---------------      ----- ------------  ---------------
    98      9.784779   4 C  s                97     -7.492885   4 C  s         
    96      3.027780   4 C  s               145     -2.446498   8 H  s         
    36     -2.383048   2 C  s               151     -2.172884   9 H  s         
   157     -2.055201  10 H  s               144      1.834497   8 H  s         
   150      1.496021   9 H  s               104      1.480864   4 C  pz        
 
 Vector   67  Occ=0.000000D+00  E= 1.439751D+00
              MO Center=  3.3D-01, -5.8D-02, -3.3D-02, r^2= 4.2D+00
   Bfn.  Coefficient  Atom+Function         Bfn.  Coefficient  Atom+Function  
  ----- ------------  ---------------      ----- ------------  ---------------
    98      5.230559   4 C  s                66      3.845389   3 C  s         
    35     -3.022181   2 C  s                97     -2.708572   4 C  s         
    67     -2.482225   3 C  s                45      2.393530   2 C  pz        
   133      2.069526   6 H  s                76     -2.028709   3 C  pz        
   127     -1.747560   5 H  s               151     -1.721835   9 H  s         
 
 Vector   68  Occ=0.000000D+00  E= 1.445369D+00
              MO Center=  3.6D-01,  3.6D-02, -3.2D-01, r^2= 3.2D+00
   Bfn.  Coefficient  Atom+Function         Bfn.  Coefficient  Atom+Function  
  ----- ------------  ---------------      ----- ------------  ---------------
    98      3.581550   4 C  s                36     -2.990407   2 C  s         
     5      2.093200   1 O  s                97     -2.024010   4 C  s         
    66     -2.001227   3 C  s                67      1.704088   3 C  s         
    45      1.208328   2 C  pz               44     -1.037748   2 C  py        
    41      0.892568   2 C  py               40      0.860624   2 C  px        
 
 Vector   69  Occ=0.000000D+00  E= 1.475081D+00
              MO Center=  8.9D-01, -2.6D-01, -9.5D-01, r^2= 3.6D+00
   Bfn.  Coefficient  Atom+Function         Bfn.  Coefficient  Atom+Function  
  ----- ------------  ---------------      ----- ------------  ---------------
    66      2.563378   3 C  s                67     -1.429992   3 C  s         
     5     -1.265762   1 O  s                65     -1.056241   3 C  s         
    36      1.041197   2 C  s               133      1.005600   6 H  s         
    71     -0.927963   3 C  px              132     -0.878416   6 H  s         
    97      0.736636   4 C  s               138     -0.725823   7 H  s         
 
 Vector   70  Occ=0.000000D+00  E= 1.477001D+00
              MO Center=  9.9D-01, -3.8D-01, -9.9D-01, r^2= 3.3D+00
   Bfn.  Coefficient  Atom+Function         Bfn.  Coefficient  Atom+Function  
  ----- ------------  ---------------      ----- ------------  ---------------
    36      3.048044   2 C  s               156     -2.741485  10 H  s         
   157      2.093824  10 H  s               102     -2.060113   4 C  px        
   126      1.865496   5 H  s               103      1.767963   4 C  py        
   104     -1.752380   4 C  pz               35     -1.472051   2 C  s         
   127     -1.448680   5 H  s                66     -1.338893   3 C  s         
 
 Vector   71  Occ=0.000000D+00  E= 1.512032D+00
              MO Center=  2.9D-01,  1.6D-01, -3.0D-01, r^2= 4.0D+00
   Bfn.  Coefficient  Atom+Function         Bfn.  Coefficient  Atom+Function  
  ----- ------------  ---------------      ----- ------------  ---------------
    98      2.504165   4 C  s               144      1.764210   8 H  s         
   102     -1.493510   4 C  px              103     -1.374612   4 C  py        
   145     -1.380983   8 H  s                45      1.253930   2 C  pz        
    97     -1.106632   4 C  s                66      1.014730   3 C  s         
   150     -0.996971   9 H  s               106      0.795733   4 C  py        
 
 Vector   72  Occ=0.000000D+00  E= 1.541016D+00
              MO Center=  3.5D-01,  4.8D-01, -1.9D-01, r^2= 4.7D+00
   Bfn.  Coefficient  Atom+Function         Bfn.  Coefficient  Atom+Function  
  ----- ------------  ---------------      ----- ------------  ---------------
    36      4.039410   2 C  s                98     -3.383659   4 C  s         
    35     -3.263873   2 C  s                97      2.860757   4 C  s         
    67     -2.361041   3 C  s                73      2.127843   3 C  pz        
   132     -1.767290   6 H  s               133      1.468725   6 H  s         
   102     -1.429327   4 C  px              138      1.337592   7 H  s         
 
 Vector   73  Occ=0.000000D+00  E= 1.576590D+00
              MO Center=  4.7D-01, -9.4D-03, -9.5D-02, r^2= 3.2D+00
   Bfn.  Coefficient  Atom+Function         Bfn.  Coefficient  Atom+Function  
  ----- ------------  ---------------      ----- ------------  ---------------
    35      3.304059   2 C  s                36     -3.029070   2 C  s         
    97     -2.222863   4 C  s                67      1.944050   3 C  s         
    40     -1.802974   2 C  px              126      1.737229   5 H  s         
    42     -1.603975   2 C  pz               72      1.577850   3 C  py        
    98      1.578955   4 C  s                34     -1.439837   2 C  s         
 
 Vector   74  Occ=0.000000D+00  E= 1.597150D+00
              MO Center=  3.7D-01,  3.6D-01, -1.7D-01, r^2= 3.4D+00
   Bfn.  Coefficient  Atom+Function         Bfn.  Coefficient  Atom+Function  
  ----- ------------  ---------------      ----- ------------  ---------------
    66     -5.319154   3 C  s                36     -5.268597   2 C  s         
    35      5.168816   2 C  s                67      4.070672   3 C  s         
    41      3.693524   2 C  py               71     -2.588346   3 C  px        
    72      2.368013   3 C  py               40     -2.107117   2 C  px        
    98      1.796045   4 C  s                82      1.675704   3 C  d -2      
 
 Vector   75  Occ=0.000000D+00  E= 1.641111D+00
              MO Center=  4.7D-01,  1.4D-01, -1.9D-02, r^2= 3.7D+00
   Bfn.  Coefficient  Atom+Function         Bfn.  Coefficient  Atom+Function  
  ----- ------------  ---------------      ----- ------------  ---------------
    66      2.561441   3 C  s                35      2.521078   2 C  s         
    98      2.164771   4 C  s                97     -1.916616   4 C  s         
     5     -1.814320   1 O  s               104     -1.189510   4 C  pz        
    67     -1.176409   3 C  s               144      1.084090   8 H  s         
   103     -1.063695   4 C  py              150     -1.030722   9 H  s         
 
 Vector   76  Occ=0.000000D+00  E= 1.692743D+00
              MO Center=  6.2D-01, -2.6D-02, -4.4D-01, r^2= 3.5D+00
   Bfn.  Coefficient  Atom+Function         Bfn.  Coefficient  Atom+Function  
  ----- ------------  ---------------      ----- ------------  ---------------
    97     -4.748346   4 C  s                35      4.620264   2 C  s         
   104     -2.406882   4 C  pz               42     -2.286312   2 C  pz        
    66     -1.980924   3 C  s               102      1.826383   4 C  px        
    40      1.548080   2 C  px               96      1.373087   4 C  s         
    34     -1.285548   2 C  s                67      1.113659   3 C  s         
 
 Vector   77  Occ=0.000000D+00  E= 1.700464D+00
              MO Center= -9.0D-02,  4.4D-01, -8.2D-02, r^2= 3.7D+00
   Bfn.  Coefficient  Atom+Function         Bfn.  Coefficient  Atom+Function  
  ----- ------------  ---------------      ----- ------------  ---------------
     5      3.909472   1 O  s                72      3.471972   3 C  py        
    97      2.988159   4 C  s                36     -2.225744   2 C  s         
   138     -2.152864   7 H  s                35     -2.112772   2 C  s         
    42      2.085076   2 C  pz              104      1.855893   4 C  pz        
    66     -1.489421   3 C  s                12      1.478872   1 O  px        
 
 Vector   78  Occ=0.000000D+00  E= 1.789352D+00
              MO Center=  4.4D-01,  2.2D-01, -2.2D-02, r^2= 3.5D+00
   Bfn.  Coefficient  Atom+Function         Bfn.  Coefficient  Atom+Function  
  ----- ------------  ---------------      ----- ------------  ---------------
    97      2.773552   4 C  s                35     -2.516693   2 C  s         
    36     -1.808880   2 C  s                45      1.285539   2 C  pz        
    67      1.191256   3 C  s               104      1.172753   4 C  pz        
    42      1.133918   2 C  pz              102     -0.935535   4 C  px        
   103      0.913270   4 C  py               96     -0.905930   4 C  s         
 
 Vector   79  Occ=0.000000D+00  E= 1.817287D+00
              MO Center= -7.0D-01,  1.7D-01,  2.2D-01, r^2= 2.4D+00
   Bfn.  Coefficient  Atom+Function         Bfn.  Coefficient  Atom+Function  
  ----- ------------  ---------------      ----- ------------  ---------------
    35      3.738558   2 C  s                 5     -3.371852   1 O  s         
    40     -2.274049   2 C  px               41      1.790105   2 C  py        
    72      1.732204   3 C  py               71     -1.502427   3 C  px        
    12     -1.439663   1 O  px               66     -1.273085   3 C  s         
   132     -1.064957   6 H  s               138     -1.038808   7 H  s         
 
 Vector   80  Occ=0.000000D+00  E= 1.841879D+00
              MO Center=  4.9D-02,  3.1D-01, -4.0D-02, r^2= 3.6D+00
   Bfn.  Coefficient  Atom+Function         Bfn.  Coefficient  Atom+Function  
  ----- ------------  ---------------      ----- ------------  ---------------
    36      1.377763   2 C  s                66     -1.246406   3 C  s         
    41      1.018159   2 C  py              156      0.892619  10 H  s         
    67     -0.819943   3 C  s                40     -0.711456   2 C  px        
   157     -0.633852  10 H  s               126      0.626201   5 H  s         
    35     -0.583995   2 C  s                72      0.579205   3 C  py        
 
 Vector   81  Occ=0.000000D+00  E= 1.862547D+00
              MO Center=  5.7D-01,  1.8D-01, -4.5D-01, r^2= 4.1D+00
   Bfn.  Coefficient  Atom+Function         Bfn.  Coefficient  Atom+Function  
  ----- ------------  ---------------      ----- ------------  ---------------
    35      6.976309   2 C  s                66     -4.391783   3 C  s         
    72      3.623101   3 C  py               97     -3.274873   4 C  s         
   104     -1.890490   4 C  pz               34     -1.713429   2 C  s         
    36      1.683536   2 C  s                41      1.581426   2 C  py        
    67     -1.309658   3 C  s                71     -1.301209   3 C  px        
 
 Vector   82  Occ=0.000000D+00  E= 1.918457D+00
              MO Center=  3.2D-01, -1.7D-01, -3.3D-01, r^2= 3.2D+00
   Bfn.  Coefficient  Atom+Function         Bfn.  Coefficient  Atom+Function  
  ----- ------------  ---------------      ----- ------------  ---------------
    36      1.634135   2 C  s                98     -1.509723   4 C  s         
    45     -1.288214   2 C  pz               97     -1.255118   4 C  s         
   103     -1.199103   4 C  py               35      0.955218   2 C  s         
    66     -0.929837   3 C  s                42     -0.849635   2 C  pz        
    41      0.732014   2 C  py              150     -0.720288   9 H  s         
 
 Vector   83  Occ=0.000000D+00  E= 1.990451D+00
              MO Center=  8.0D-01, -1.6D-01, -3.0D-01, r^2= 3.4D+00
   Bfn.  Coefficient  Atom+Function         Bfn.  Coefficient  Atom+Function  
  ----- ------------  ---------------      ----- ------------  ---------------
    35      3.495139   2 C  s                98      3.168550   4 C  s         
    66     -2.852048   3 C  s                40     -2.261479   2 C  px        
    72      1.977117   3 C  py               41      1.855711   2 C  py        
    71     -1.581086   3 C  px               36     -1.516795   2 C  s         
    43     -1.440402   2 C  px              126      1.188317   5 H  s         
 
 Vector   84  Occ=0.000000D+00  E= 1.992880D+00
              MO Center=  6.7D-01, -1.4D-01, -8.3D-01, r^2= 3.4D+00
   Bfn.  Coefficient  Atom+Function         Bfn.  Coefficient  Atom+Function  
  ----- ------------  ---------------      ----- ------------  ---------------
    36      4.447731   2 C  s                98     -4.078759   4 C  s         
    45     -2.051463   2 C  pz               35     -2.031384   2 C  s         
    67     -1.522416   3 C  s               156      1.151362  10 H  s         
   107     -1.078317   4 C  pz              104      0.948028   4 C  pz        
    34      0.827136   2 C  s                 5     -0.755316   1 O  s         
 
 Vector   85  Occ=0.000000D+00  E= 2.090921D+00
              MO Center= -5.0D-02,  1.7D-01, -4.4D-03, r^2= 3.5D+00
   Bfn.  Coefficient  Atom+Function         Bfn.  Coefficient  Atom+Function  
  ----- ------------  ---------------      ----- ------------  ---------------
    36      3.092943   2 C  s                98     -2.417464   4 C  s         
    67     -1.201323   3 C  s               138     -0.770643   7 H  s         
   156      0.744874  10 H  s                35     -0.726001   2 C  s         
    45     -0.718433   2 C  pz               40     -0.634436   2 C  px        
   144      0.574943   8 H  s                14     -0.561847   1 O  pz        
 
 Vector   86  Occ=0.000000D+00  E= 2.096732D+00
              MO Center= -3.6D-01,  7.8D-02,  6.1D-02, r^2= 3.0D+00
   Bfn.  Coefficient  Atom+Function         Bfn.  Coefficient  Atom+Function  
  ----- ------------  ---------------      ----- ------------  ---------------
    67     -5.677972   3 C  s                36      5.395379   2 C  s         
    35     -3.121040   2 C  s                66      3.020801   3 C  s         
    41     -2.979110   2 C  py               71      2.703157   3 C  px        
    13      1.846066   1 O  py               43     -1.458998   2 C  px        
    82     -1.426868   3 C  d -2             75      1.376723   3 C  py        
 
 Vector   87  Occ=0.000000D+00  E= 2.163065D+00
              MO Center=  5.3D-01, -6.7D-02, -4.9D-01, r^2= 3.2D+00
   Bfn.  Coefficient  Atom+Function         Bfn.  Coefficient  Atom+Function  
  ----- ------------  ---------------      ----- ------------  ---------------
    98      2.228858   4 C  s                67     -1.678226   3 C  s         
    35     -1.230121   2 C  s                73      1.066936   3 C  pz        
    44      0.830896   2 C  py              156     -0.820118  10 H  s         
    40      0.809638   2 C  px               43     -0.808534   2 C  px        
    42     -0.783971   2 C  pz              144     -0.762703   8 H  s         
 
 Vector   88  Occ=0.000000D+00  E= 2.199251D+00
              MO Center=  4.3D-01,  1.9D-01, -2.7D-01, r^2= 3.7D+00
   Bfn.  Coefficient  Atom+Function         Bfn.  Coefficient  Atom+Function  
  ----- ------------  ---------------      ----- ------------  ---------------
    98      2.173114   4 C  s                36     -1.485378   2 C  s         
    45      1.077554   2 C  pz               76     -0.940588   3 C  pz        
   132      0.797257   6 H  s               117     -0.658206   4 C  d  2      
    71      0.620698   3 C  px              103     -0.604645   4 C  py        
   138     -0.588726   7 H  s                42     -0.578572   2 C  pz        
 
 Vector   89  Occ=0.000000D+00  E= 2.220341D+00
              MO Center=  5.9D-01,  3.7D-02, -3.8D-02, r^2= 3.5D+00
   Bfn.  Coefficient  Atom+Function         Bfn.  Coefficient  Atom+Function  
  ----- ------------  ---------------      ----- ------------  ---------------
    36      3.065441   2 C  s                67     -1.769542   3 C  s         
    42     -1.186122   2 C  pz                5     -1.129657   1 O  s         
    98     -1.047956   4 C  s                72     -0.827456   3 C  py        
    97     -0.761282   4 C  s               102      0.748760   4 C  px        
    43     -0.719956   2 C  px               66      0.708456   3 C  s         
 
 Vector   90  Occ=0.000000D+00  E= 2.243330D+00
              MO Center=  8.2D-01, -3.0D-01, -8.7D-01, r^2= 3.4D+00
   Bfn.  Coefficient  Atom+Function         Bfn.  Coefficient  Atom+Function  
  ----- ------------  ---------------      ----- ------------  ---------------
   150      1.376201   9 H  s                36      1.294079   2 C  s         
    98     -0.960034   4 C  s               144     -0.892967   8 H  s         
    67     -0.775869   3 C  s               117      0.775805   4 C  d  2      
    66     -0.698882   3 C  s                72      0.585737   3 C  py        
   138      0.546903   7 H  s               149     -0.541377   9 H  s         
 
 Vector   91  Occ=0.000000D+00  E= 2.266589D+00
              MO Center=  9.5D-01, -2.7D-01, -1.1D+00, r^2= 3.0D+00
   Bfn.  Coefficient  Atom+Function         Bfn.  Coefficient  Atom+Function  
  ----- ------------  ---------------      ----- ------------  ---------------
    66      2.418693   3 C  s                36      1.831907   2 C  s         
    41     -1.571889   2 C  py               67     -1.385462   3 C  s         
    35     -1.221822   2 C  s                72     -1.065955   3 C  py        
    98     -1.004060   4 C  s               156      0.996598  10 H  s         
    71      0.974531   3 C  px              126     -0.963624   5 H  s         
 
 Vector   92  Occ=0.000000D+00  E= 2.281939D+00
              MO Center=  4.6D-01,  1.5D-01, -2.4D-01, r^2= 3.6D+00
   Bfn.  Coefficient  Atom+Function         Bfn.  Coefficient  Atom+Function  
  ----- ------------  ---------------      ----- ------------  ---------------
    98      3.557535   4 C  s                36     -2.409596   2 C  s         
[...]
    21     -0.856090   1 O  d -1             42     -0.812817   2 C  pz        
    45     -0.722109   2 C  pz               97     -0.720822   4 C  s         
    98     -0.541631   4 C  s                67     -0.533568   3 C  s         
   102      0.516197   4 C  px               54     -0.504631   2 C  d  1      
 
 Vector  154  Occ=0.000000D+00  E= 6.670513D+00
              MO Center= -8.8D-01, -1.8D-01,  2.0D-01, r^2= 5.7D-01
   Bfn.  Coefficient  Atom+Function         Bfn.  Coefficient  Atom+Function  
  ----- ------------  ---------------      ----- ------------  ---------------
    18      1.044715   1 O  d  1             23     -1.008694   1 O  d  1      
    97     -0.786607   4 C  s                35      0.706296   2 C  s         
    42     -0.692021   2 C  pz              102      0.597606   4 C  px        
    54     -0.499774   2 C  d  1             16     -0.449340   1 O  d -1      
    21      0.440644   1 O  d -1             14      0.403296   1 O  pz        
 
 Vector  155  Occ=0.000000D+00  E= 6.840119D+00
              MO Center= -8.9D-01, -1.8D-01,  2.1D-01, r^2= 5.9D-01
   Bfn.  Coefficient  Atom+Function         Bfn.  Coefficient  Atom+Function  
  ----- ------------  ---------------      ----- ------------  ---------------
     5      2.127515   1 O  s                40      1.607944   2 C  px        
     9      1.336846   1 O  px                4      1.183937   1 O  s         
    97     -1.167723   4 C  s                20      1.065386   1 O  d -2      
    66     -0.956362   3 C  s                42     -0.877191   2 C  pz        
    15     -0.847425   1 O  d -2             12      0.838855   1 O  px        
 
 Vector  156  Occ=0.000000D+00  E= 7.055793D+00
              MO Center= -8.9D-01, -1.8D-01,  2.1D-01, r^2= 6.4D-01
   Bfn.  Coefficient  Atom+Function         Bfn.  Coefficient  Atom+Function  
  ----- ------------  ---------------      ----- ------------  ---------------
    66     -3.169751   3 C  s                35      3.105148   2 C  s         
    40     -2.760942   2 C  px               72      2.680103   3 C  py        
    24     -1.587855   1 O  d  2             36      1.404926   2 C  s         
    67     -1.281954   3 C  s                10      1.272131   1 O  py        
    19      1.024556   1 O  d  2             41      0.880716   2 C  py        
 
 Vector  157  Occ=0.000000D+00  E= 2.195081D+01
              MO Center=  3.2D-01,  4.8D-01, -2.4D-01, r^2= 1.8D+00
   Bfn.  Coefficient  Atom+Function         Bfn.  Coefficient  Atom+Function  
  ----- ------------  ---------------      ----- ------------  ---------------
    64      1.396474   3 C  s                98      1.334244   4 C  s         
    67     -1.316921   3 C  s                65     -1.152029   3 C  s         
    63     -1.100689   3 C  s                95     -1.076384   4 C  s         
    96      0.920257   4 C  s                94      0.850233   4 C  s         
    40     -0.501149   2 C  px               35      0.463584   2 C  s         
 
 Vector  158  Occ=0.000000D+00  E= 2.197402D+01
              MO Center=  6.7D-01, -3.0D-02, -4.0D-01, r^2= 1.4D+00
   Bfn.  Coefficient  Atom+Function         Bfn.  Coefficient  Atom+Function  
  ----- ------------  ---------------      ----- ------------  ---------------
    34      1.165544   2 C  s                95     -1.156938   4 C  s         
    36      1.090291   2 C  s                96      1.082284   4 C  s         
    33     -1.048696   2 C  s                94      0.909787   4 C  s         
    65      0.851891   3 C  s                64     -0.847595   3 C  s         
    32      0.820218   2 C  s                98      0.760304   4 C  s         
 
 Vector  159  Occ=0.000000D+00  E= 2.207809D+01
              MO Center=  5.9D-01, -5.1D-02, -1.1D-01, r^2= 8.9D-01
   Bfn.  Coefficient  Atom+Function         Bfn.  Coefficient  Atom+Function  
  ----- ------------  ---------------      ----- ------------  ---------------
    36      2.096295   2 C  s                33     -1.435396   2 C  s         
    34      1.423012   2 C  s                35     -1.362866   2 C  s         
    98     -1.324542   4 C  s                67     -1.191326   3 C  s         
    32      1.125803   2 C  s                95      0.792734   4 C  s         
    97      0.753122   4 C  s                96     -0.729114   4 C  s         
 
 Vector  160  Occ=0.000000D+00  E= 4.340771D+01
              MO Center= -8.8D-01, -1.7D-01,  2.1D-01, r^2= 1.2D-01
   Bfn.  Coefficient  Atom+Function         Bfn.  Coefficient  Atom+Function  
  ----- ------------  ---------------      ----- ------------  ---------------
     4      2.491066   1 O  s                 3     -1.869978   1 O  s         
     2      1.731128   1 O  s                 1     -1.395777   1 O  s         
     5     -0.867405   1 O  s                36      0.757330   2 C  s         
    66     -0.554568   3 C  s                 9      0.546132   1 O  px        
    72      0.502199   3 C  py               40      0.406820   2 C  px        
 

 center of mass
 --------------
 x =   0.30619322 y =   0.09486530 z =  -0.27792462

 moments of inertia (a.u.)
 ------------------
         200.071103042278          46.557442532169          84.592076685290
          46.557442532169         250.489387748160         -52.809805814280
          84.592076685290         -52.809805814280         239.872555973253
 
     Multipole analysis of the density
     ---------------------------------
 
     L   x y z        total         alpha         beta         nuclear
     -   - - -        -----         -----         ----         -------
     0   0 0 0     -0.000000    -16.000000    -16.000000     32.000000
 
     1   1 0 0      0.697275     -6.217963     -6.217963     13.133201
     1   0 1 0      0.313837     -1.618786     -1.618786      3.551409
     1   0 0 1     -0.060743      5.332108      5.332108    -10.724958
 
     2   2 0 0    -19.987986    -54.770079    -54.770079     89.552171
     2   1 1 0     -1.131248     14.127275     14.127275    -29.385797
     2   1 0 1      0.127421     26.727685     26.727685    -53.327948
     2   0 2 0    -17.883727    -40.309951    -40.309951     62.736174
     2   0 1 1      0.246959    -15.452419    -15.452419     31.151796
     2   0 0 2    -18.183652    -45.991393    -45.991393     73.799134
 
 *** CALLING NEW AORESP DRIVER FOR CLOSED AND OPEN SHELLS ***
 Entering AOResponse driver routine


--------------------------------------------------------------------------------

          ****************
          *** RESPONSE ***
          ****************

 Response module for NWChem and dynamic CPKS solver
 developed by J. Autschbach and coworkers, SUNY Buffalo
 The methodology used in this program is described in 
 ChemPhysChem 12 (2011), 3224-3235 (main reference)
 J. Chem. Phys. 123 (2005), 114103
 J. Chem. Phys. 122 (2005), 224115
 J. Chem. Phys. 122 (2005), 074105
 Comp. Lett. 3 (2007), 131-150 (contact JA for a copy)
 Please cite this work in publications based on results
 obtained with this code. Thank you!

 For extension of response module to open shell
 calculations please acknowledge:
 F. Aquino, Northwestern University, Schatz Rsrch Group
 The update to the methodology is described in
 J. Phys. Chem. A 118 (2014) 517-525



          -----------------------------------------------
          Solving response equations for perturbing field
          -----------------------------------------------

 number of frequencies:     1
 frequency in a.u.:  0.9319600E-01
 Perturbing field: electric
 Using GIAO formalism for OptRot
 Adding quadrupole terms to OptRot
 to create an origin in dependent tensor.
 Using El. Dipole Length Gauge
 
 Applying DAMPING constant of  0.003700 a.u.
 
 Setting up CPKS
 with frequency omega =      0.09319600 a.u.
 and a damping of            0.00370000 a.u.

 
                            NWChem Dynamic CPHF Module
                            --------------------------
 
 
    scftype = RHF 
    nclosed =   16
      nopen =    0
  variables =     9216
  num. vecs =        3
  tolerance =   1.0D-07
  max. iter =  100

 SCF residual:   5.543441580109569E-006


Iterative solution of linear equations
  No. of variables     4608
  No. of equations        3
  Maximum subspace       99
       Convergence  1.0D-07
        Start time     94.7


   iter   nsub   residual    time 
   ----  ------  --------  --------- 
 dft_CPHF2_read: failed to open
 ./methyloxirane_blyp-def2-tzvp_488.9_04.inp.aoresp_fiao_f1
     1      3    3.74D+00     144.2
     2      6    2.72D+00     193.9
     3      9    2.39D-01     243.7
     4     12    5.70D-02     293.7
     5     15    1.08D-02     343.6
     6     18    1.37D-03     393.7
     7     21    1.39D-04     443.3
     8     24    1.30D-05     492.9
     9     27    1.32D-06     542.6
    10     30    4.83D-07     592.3
    11     33    1.65D-08     642.1

 Calculating some arrays needed for GIAO optical rotation

    0 giaofock schwarz done =      96.79%
    0 giaofock schwarz done =      95.43%
 aor_r1_tensor_giao: roadata output requested
 dip-quad polarizability Re:

              1        2        3        4        5        6      
    1   77.3624  -6.3215 -28.2786  -4.5259   1.2162   9.4478
    2  -11.8627  25.5609   3.4268  23.4725 -21.8532   4.1314
    3   -7.1786   1.0983  39.3188  -0.2679  14.2455 -40.8507
 traceless dip-quad polarizability:

              1        2        3      
    1   74.9014  -9.4822 -42.4179
    2   -9.4822 -47.9310   1.8242
    3  -42.4179   1.8242 -26.9704

              1        2        3      
    1  -25.6646  38.3414   5.1403
    2   38.3414  27.3381 -32.7798
    3    5.1403 -32.7798  -1.6735

              1        2        3      
    1   13.3808   1.6474  58.9782
    2    1.6474  23.7467  21.3683
    3   58.9782  21.3683 -37.1275

 roa begin

 alpha real:
 XX       0.4121521895418E+02
 XY      -0.5312339968605E+01
 XZ      -0.3242658059991E+01
 YX      -0.5312339978517E+01
 YY       0.4397029553277E+02
 YZ       0.3183582239828E+01
 ZX      -0.3242658060716E+01
 ZY       0.3183582244105E+01
 ZZ       0.4156713344779E+02

 alpha im:
 XX       0.1119204328052E+00
 XY      -0.3072911242493E-01
 XZ      -0.1280551380340E-01
 YX      -0.3072911034962E-01
 YY       0.1288139234647E+00
 YZ       0.1857843634298E-01
 ZX      -0.1280551183415E-01
 ZY       0.1857843651528E-01
 ZZ       0.1233973568985E+00

 beta real:
 XX      -0.1397870990027E+00
 XY       0.9219228114251E+00
 XZ       0.1942536869510E+00
 YX      -0.8872875196471E+00
 YY       0.1525527277569E+00
 YZ      -0.1559869245806E+01
 ZX      -0.4873711073385E+00
 ZY       0.1880002997797E+01
 ZZ      -0.1099799985498E-01

 G-prime = -omega beta(real):
 XX      -0.1397870990027E+00
 XY       0.9219228114251E+00
 XZ       0.1942536869510E+00
 YX      -0.8872875196471E+00
 YY       0.1525527277569E+00
 YZ      -0.1559869245806E+01
 ZX      -0.4873711073385E+00
 ZY       0.1880002997797E+01
 ZZ      -0.1099799985498E-01

 beta im:
 XX      -0.6007107257892E-02
 XY       0.1231806168287E-01
 XZ       0.2679581806073E-02
 YX      -0.7425401301361E-02
 YY       0.5177084743328E-02
 YZ      -0.2399063124222E-01
 ZX      -0.1386129130152E-01
 ZY       0.4054614093093E-01
 ZZ       0.2683646007123E-03

 G-prime = -omega beta(imag):
 XX      -0.6007107257892E-02
 XY       0.1231806168287E-01
 XZ       0.2679581806073E-02
 YX      -0.7425401301361E-02
 YY       0.5177084743328E-02
 YZ      -0.2399063124222E-01
 ZX      -0.1386129130152E-01
 ZY       0.4054614093093E-01
 ZZ       0.2683646007123E-03

 dipole-quadrupole real (Cartesian):
 XXX      0.7736238416631E+02
 XXY     -0.6321481491220E+01
 XXZ     -0.2827859021146E+02
 XYY     -0.4525915979090E+01
 XYZ      0.1216164602999E+01
 XZZ      0.9447807823595E+01
 YXX     -0.1186271269655E+02
 YXY      0.2556091653243E+02
 YXZ      0.3426848520675E+01
 YYY      0.2347245271811E+02
 YYZ     -0.2185321742921E+02
 YZZ      0.4131370735724E+01
 ZXX     -0.7178558513181E+01
 ZXY      0.1098299676137E+01
 ZXZ      0.3931878979447E+02
 ZYY     -0.2679421805578E+00
 ZYZ      0.1424550331183E+02
 ZZZ     -0.4085073253932E+02

 dipole-quadrupole imag (Cartesian):
 XXX      0.2678326593376E+00
 XXY     -0.3420627428703E-01
 XXZ     -0.8150579015124E-01
 XYY     -0.2985652928344E-01
 XYZ      0.3256399793130E-02
 XZZ      0.6175271369453E-01
 YXX     -0.5693993221756E-01
 YXY      0.6090170777196E-01
 YXZ      0.2051484469526E-01
 YYY      0.9598422608816E-01
 YYZ     -0.6298692883755E-01
 YZZ      0.1126576604840E-01
 ZXX     -0.3680457014413E-01
 ZXY      0.7950793280539E-03
 ZXZ      0.1438675885763E+00
 ZYY      0.3979101492276E-02
 ZYZ      0.7179589034144E-01
 ZZZ     -0.9295299762941E-01

 dipole-quadrupole (traceless):
 XXX      0.7490143824406E+02
 XXY     -0.9482222236830E+01
 XXZ     -0.4241788531719E+02
 XYY     -0.4793101197404E+02
 XYZ      0.1824246904499E+01
 XZZ     -0.2697042627002E+02
 YXX     -0.2566462442347E+02
 YXY      0.3834137479864E+02
 YXZ      0.5140272781012E+01
 YYY      0.2733812369852E+02
 YYZ     -0.3277982614381E+02
 YZZ     -0.1673499275053E+01
 ZXX      0.1338077884676E+02
 ZXY      0.1647449514205E+01
 ZXZ      0.5897818469171E+02
 ZYY      0.2374670334569E+02
 ZYZ      0.2136825496774E+02
 ZZZ     -0.3712748219245E+02

 roa end


 Electric Dipole Response Matrix (nonzero elements):

              1        2        3      
    1   41.2152  -5.3123  -3.2427
    2   -5.3123  43.9703   3.1836
    3   -3.2427   3.1836  41.5671
 
 Imaginary part:

              1        2        3      
    1    0.1119  -0.0307  -0.0128
    2   -0.0307   0.1288   0.0186
    3   -0.0128   0.0186   0.1234

 ------------------------------------------
 average:        42.25088 + I       0.12138


 DFT Linear Response polarizability / au 
 Frequency  =       0.0931960 / au
 Wavelength =     488.8981609 / nm
              X              Y              Z
 -----------------------------------------------
 X      41.2152190     -5.3123400     -3.2426581
 Y      -5.3123400     43.9702955      3.1835822
 Z      -3.2426581      3.1835822     41.5671334
 -----------------------------------------------
 Eigenvalues =      36.9678362     50.3866114     39.3982003
 Isotropic   =      42.2508826
 Anisotropic =      10.1113035
 -----------------------------------------------
 *************************

 DFT Linear Response IMAG polarizability / au 
 Frequency  =       0.0931960 / au
 Wavelength =     488.8981609 / nm
              X              Y              Z
 -----------------------------------------------
 X       0.1119204     -0.0307291     -0.0128055
 Y      -0.0307291      0.1288139      0.0185784
 Z      -0.0128055      0.0185784      0.1233974
 -----------------------------------------------
 Eigenvalues =       0.0884552      0.1645765      0.1111000
 Isotropic   =       0.1213772
 Anisotropic =       0.0552780
 -----------------------------------------------
 *************************

 Magnetic Dipole Response Matrix (nonzero elements):
 Optical rotation tensor Beta
 (Buckingham-Dunn version including dipole-quadrupole terms)

              1        2        3      
    1    2.6642  -0.3071   0.4294
    2   -0.3071  -1.6958  -1.7715
    3    0.4294  -1.7715  -0.9873
 
 Imaginary part:

              1        2        3      
    1    0.0645  -0.1322  -0.0288
    2    0.0797  -0.0556   0.2574
    3    0.1487  -0.4351  -0.0029

 ------------------------------------------
 average:        -0.00632 + I       0.00201

 Principal components and PAS (Real part)
                 -3.14836
                  2.78405
                  0.34534
 ------------------------
 average:        -0.00632

              1        2        3      
    1   -0.0060   0.9751  -0.2215
    2    0.7728  -0.1360  -0.6200
    3    0.6347   0.1749   0.7527

 Chiral response tensor (Real part):

              1        2        3      
    1   -1.3416   0.1536  -0.2147
    2    0.1536   0.8384   0.8857
    3   -0.2147   0.8857   0.4842
 
 Principal components and PAS (Real part)
                  1.56470
                 -1.40151
                 -0.18215
 ------------------------
 average:        -0.00632

              1        2        3      
    1   -0.0060   0.9751  -0.2215
    2    0.7728  -0.1360  -0.6200
    3    0.6347   0.1749   0.7527
 Exiting AOResponse driver routine

 Task  times  cpu:      621.6s     wall:      634.4s
 
 
                                NWChem Input Module
                                -------------------
 
 
 Summary of allocated global arrays
-----------------------------------
  No active global arrays



                         GA Statistics for process    0
                         ------------------------------

       create   destroy   get      put      acc     scatter   gather  read&inc
calls: 3294     3294     8.57e+06 3.14e+06 7.03e+05 2694        0     1046     
number of processes/call 1.01e+00 1.03e+00 1.42e+00 0.00e+00 0.00e+00
bytes total:             1.60e+09 1.26e+08 1.67e+09 1.84e+02 0.00e+00 8.37e+03
bytes remote:            6.36e+08 3.29e+07 9.31e+08 0.00e+00 0.00e+00 0.00e+00
Max memory consumed for GA by this process: 11242192 bytes
 
MA_summarize_allocated_blocks: starting scan ...
MA_summarize_allocated_blocks: scan completed: 0 heap blocks, 0 stack blocks
MA usage statistics:

	allocation statistics:
					      heap	     stack
					      ----	     -----
	current number of blocks	         0	         0
	maximum number of blocks	        24	        52
	current total bytes		         0	         0
	maximum total bytes		   7519840	  49008696
	maximum total K-bytes		      7520	     49009
	maximum total M-bytes		         8	        50
 
 
                                     CITATION
                                     --------
                Please cite the following reference when publishing
                           results obtained with NWChem:
 
                 M. Valiev, E.J. Bylaska, N. Govind, K. Kowalski,
              T.P. Straatsma, H.J.J. van Dam, D. Wang, J. Nieplocha,
                        E. Apra, T.L. Windus, W.A. de Jong
                 "NWChem: a comprehensive and scalable open-source
                  solution for large scale molecular simulations"
                      Comput. Phys. Commun. 181, 1477 (2010)
                           doi:10.1016/j.cpc.2010.04.018
 
                                      AUTHORS
                                      -------
          E. Apra, E. J. Bylaska, W. A. de Jong, N. Govind, K. Kowalski,
       T. P. Straatsma, M. Valiev, H. J. J. van Dam, D. Wang, T. L. Windus,
        J. Hammond, J. Autschbach, K. Bhaskaran-Nair, J. Brabec, K. Lopata,
    S. A. Fischer, S. Krishnamoorthy, M. Jacquelin, W. Ma, M. Klemm, O. Villa,
      Y. Chen, V. Anisimov, F. Aquino, S. Hirata, M. T. Hackler, V. Konjkov,
            D. Mejia-Rodriguez, T. Risthaus, M. Malagoli, A. Marenich,
   A. Otero-de-la-Roza, J. Mullin, P. Nichols, R. Peverati, J. Pittner, Y. Zhao,
        P.-D. Fan, A. Fonari, M. J. Williamson, R. J. Harrison, J. R. Rehr,
      M. Dupuis, D. Silverstein, D. M. A. Smith, J. Nieplocha, V. Tipparaju,
    M. Krishnan, B. E. Van Kuiken, A. Vazquez-Mayagoitia, L. Jensen, M. Swart,
      Q. Wu, T. Van Voorhis, A. A. Auer, M. Nooijen, L. D. Crosby, E. Brown,
      G. Cisneros, G. I. Fann, H. Fruchtl, J. Garza, K. Hirao, R. A. Kendall,
      J. A. Nichols, K. Tsemekhman, K. Wolinski, J. Anchell, D. E. Bernholdt,
      P. Borowski, T. Clark, D. Clerc, H. Dachsel, M. J. O. Deegan, K. Dyall,
    D. Elwood, E. Glendening, M. Gutowski, A. C. Hess, J. Jaffe, B. G. Johnson,
     J. Ju, R. Kobayashi, R. Kutteh, Z. Lin, R. Littlefield, X. Long, B. Meng,
      T. Nakajima, S. Niu, L. Pollack, M. Rosing, K. Glaesemann, G. Sandrone,
      M. Stave, H. Taylor, G. Thomas, J. H. van Lenthe, A. T. Wong, Z. Zhang.

 Total times  cpu:      695.6s     wall:      709.9s
