 argument  1 = methyloxirane_blyp-def2-tzvp_488.9_29.inp
 


============================== echo of input deck ==============================
echo
start methyloxirane_blyp-def2-tzvp_488.9_29.inp
title "methyloxirane roa calculations at 488.9 nm, input generated in va  with delta_type=2"
charge 0



geometry units angstrom nocenter noautoz noautosym nucleus point;symmetry c1
 O -0.885924 -0.182872  0.204599
 C  0.577794 -0.152152  0.120685
 C -0.180645  1.083830  0.338315
 C  1.184319 -0.517842 -1.208054
 H  1.063301 -0.594817  0.997022
 H -0.208269  1.530549  1.335737
 H -0.322545  1.782752 -0.490378
 H  2.242087 -0.219114 -1.246298
 H  1.136454 -1.604625 -1.362226
 H  0.650480 -0.028793 -2.032145
end

basis spherical
* library def2-TZVP
end

 set prop:newaoresp 1
 set aor:roadata T
 set cphf:maxsub 100
 set cphf:acc 1.0d-10
 set cphf:maxiter 100

property
    response 1   0.093196
    bdtensor
    convergence 1e-7
    damping 0.0037
    giao
end

dft
 direct
 mult 1
 xc becke88 lyp
 iterations 250
 tolerances tight
 grid xfine
 convergence nolevelshifting
 convergence energy 1e-8
 convergence gradient 1e-7


end

task dft gradient
task dft property
================================================================================


                                         
                                         
 
 
              Northwest Computational Chemistry Package (NWChem) 6.8
              ------------------------------------------------------
 
 
                    Environmental Molecular Sciences Laboratory
                       Pacific Northwest National Laboratory
                                Richland, WA 99352
 
                              Copyright (c) 1994-2017
                       Pacific Northwest National Laboratory
                            Battelle Memorial Institute
 
             NWChem is an open-source computational chemistry package
                        distributed under the terms of the
                      Educational Community License (ECL) 2.0
             A copy of the license is included with this distribution
                              in the LICENSE.TXT file
 
                                  ACKNOWLEDGMENT
                                  --------------

            This software and its documentation were developed at the
            EMSL at Pacific Northwest National Laboratory, a multiprogram
            national laboratory, operated for the U.S. Department of Energy
            by Battelle under Contract Number DE-AC05-76RL01830. Support
            for this work was provided by the Department of Energy Office
            of Biological and Environmental Research, Office of Basic
            Energy Sciences, and the Office of Advanced Scientific Computing.


           Job information
           ---------------

    hostname        = cpn-f11-18-01.cbls.ccr.buffalo.edu
    program         = /util/academic/nwchem/nwchem-6.8/bin/LINUX64/nwchem
    date            = Fri Mar  1 10:26:02 2019

    compiled        = Tue_Nov_06_14:59:08_2018
    source          = /util/academic/nwchem/nwchem-6.8
    nwchem branch   = 6.8
    nwchem revision = v6.8-47-gdf6c956
    ga revision     = ga-5.6.3
    use scalapack   = F
    input           = methyloxirane_blyp-def2-tzvp_488.9_29.inp
    prefix          = methyloxirane_blyp-def2-tzvp_488.9_29.inp.
    data base       = ./methyloxirane_blyp-def2-tzvp_488.9_29.inp.db
    status          = startup
    nproc           =        7
    time left       =     -1s



           Memory information
           ------------------

    heap     =   13107198 doubles =    100.0 Mbytes
    stack    =   13107195 doubles =    100.0 Mbytes
    global   =   26214400 doubles =    200.0 Mbytes (distinct from heap & stack)
    total    =   52428793 doubles =    400.0 Mbytes
    verify   = yes
    hardfail = no 


           Directory information
           ---------------------
 
  0 permanent = .
  0 scratch   = .
 
 
 
 
                                NWChem Input Module
                                -------------------
 
 
                    methyloxirane roa calculations at 488.9 nm, input generated in va  with delta_type=2
                    ------------------------------------------

 Scaling coordinates for geometry "geometry" by  1.889725989
 (inverse scale =  0.529177249)

 
 
                             Geometry "geometry" -> ""
                             -------------------------
 
 Output coordinates in angstroms (scale by  1.889725989 to convert to a.u.)
 
  No.       Tag          Charge          X              Y              Z
 ---- ---------------- ---------- -------------- -------------- --------------
    1 O                    8.0000    -0.88592400    -0.18287200     0.20459900
    2 C                    6.0000     0.57779400    -0.15215200     0.12068500
    3 C                    6.0000    -0.18064500     1.08383000     0.33831500
    4 C                    6.0000     1.18431900    -0.51784200    -1.20805400
    5 H                    1.0000     1.06330100    -0.59481700     0.99702200
    6 H                    1.0000    -0.20826900     1.53054900     1.33573700
    7 H                    1.0000    -0.32254500     1.78275200    -0.49037800
    8 H                    1.0000     2.24208700    -0.21911400    -1.24629800
    9 H                    1.0000     1.13645400    -1.60462500    -1.36222600
   10 H                    1.0000     0.65048000    -0.02879300    -2.03214500
 
      Atomic Mass 
      ----------- 
 
      O                 15.994910
      C                 12.000000
      H                  1.007825
 

 Effective nuclear repulsion energy (a.u.)     123.5521214761

            Nuclear Dipole moment (a.u.) 
            ----------------------------
        X                 Y               Z
 ---------------- ---------------- ----------------
    13.1580184393     3.5640080967   -10.6879500407
 
 
            XYZ format geometry
            -------------------
    10
 geometry
 O                    -0.88592400    -0.18287200     0.20459900
 C                     0.57779400    -0.15215200     0.12068500
 C                    -0.18064500     1.08383000     0.33831500
 C                     1.18431900    -0.51784200    -1.20805400
 H                     1.06330100    -0.59481700     0.99702200
 H                    -0.20826900     1.53054900     1.33573700
 H                    -0.32254500     1.78275200    -0.49037800
 H                     2.24208700    -0.21911400    -1.24629800
 H                     1.13645400    -1.60462500    -1.36222600
 H                     0.65048000    -0.02879300    -2.03214500
 
 ==============================================================================
                                internuclear distances
 ------------------------------------------------------------------------------
       center one      |      center two      | atomic units |  angstroms
 ------------------------------------------------------------------------------
    2 C                |   1 O                |     2.77118  |     1.46644
    3 C                |   1 O                |     2.75137  |     1.45596
    3 C                |   2 C                |     2.77104  |     1.46637
    4 C                |   2 C                |     2.84537  |     1.50571
    5 H                |   2 C                |     2.06978  |     1.09528
    6 H                |   3 C                |     2.06592  |     1.09324
    7 H                |   3 C                |     2.06608  |     1.09333
    8 H                |   4 C                |     2.07833  |     1.09981
    9 H                |   4 C                |     2.07626  |     1.09871
   10 H                |   4 C                |     2.07292  |     1.09694
 ------------------------------------------------------------------------------
                         number of included internuclear distances:         10
 ==============================================================================



 ==============================================================================
                                 internuclear angles
 ------------------------------------------------------------------------------
        center 1       |       center 2       |       center 3       |  degrees
 ------------------------------------------------------------------------------
    1 O                |   3 C                |   2 C                |    60.24
    2 C                |   3 C                |   1 O                |    60.24
    1 O                |   2 C                |   4 C                |   116.58
    1 O                |   2 C                |   5 H                |   112.84
    3 C                |   2 C                |   4 C                |   122.96
    3 C                |   2 C                |   5 H                |   116.82
    4 C                |   2 C                |   5 H                |   115.43
    1 O                |   3 C                |   2 C                |    60.24
    1 O                |   3 C                |   6 H                |   115.28
    1 O                |   3 C                |   7 H                |   115.07
    2 C                |   3 C                |   6 H                |   119.53
    2 C                |   3 C                |   7 H                |   119.57
    6 H                |   3 C                |   7 H                |   115.28
    2 C                |   4 C                |   8 H                |   110.62
    2 C                |   4 C                |   9 H                |   110.27
    2 C                |   4 C                |  10 H                |   111.02
    8 H                |   4 C                |   9 H                |   107.80
    8 H                |   4 C                |  10 H                |   108.71
    9 H                |   4 C                |  10 H                |   108.32
 ------------------------------------------------------------------------------
                            number of included internuclear angles:         19
 ==============================================================================



  warning:::::::::::::: from_environment
  NWCHEM_BASIS_LIBRARY set to: <
 /util/academic/nwchem/nwchem-6.8/src/basis/libraries>
  but file does not exist !
  using .nwchemrc or compiled library


 Summary of "ao basis" -> "" (spherical)
 ------------------------------------------------------------------------------
       Tag                 Description            Shells   Functions and Types
 ---------------- ------------------------------  ------  ---------------------
 *                         def2-TZVP                  on all atoms 


 
                                 NWChem DFT Module
                                 -----------------
 
 
                    methyloxirane roa calculations at 488.9 nm, input generated in va  with delta_type=2
 
 
                      Basis "ao basis" -> "ao basis" (spherical)
                      -----
  O (Oxygen)
  ----------
            Exponent  Coefficients 
       -------------- ---------------------------------------------------------
  1 S  2.70323826E+04  0.000217
  1 S  4.05238714E+03  0.001684
  1 S  9.22327227E+02  0.008740
  1 S  2.61240710E+02  0.035240
  1 S  8.53546414E+01  0.111535
  1 S  3.10350352E+01  0.255890
 
  2 S  1.22608607E+01  0.397687
  2 S  4.99870760E+00  0.246278
 
  3 S  1.17031082E+00  1.000000
 
  4 S  4.64747410E-01  1.000000
 
  5 S  1.85045364E-01  1.000000
 
  6 P  6.32749548E+01  0.006069
  6 P  1.46270494E+01  0.041913
  6 P  4.45012235E+00  0.161538
  6 P  1.52757996E+00  0.357070
 
  7 P  5.29351179E-01  1.000000
 
  8 P  1.74784213E-01  1.000000
 
  9 D  2.31400000E+00  1.000000
 
 10 D  6.45000000E-01  1.000000
 
 11 F  1.42800000E+00  1.000000
 
  C (Carbon)
  ----------
            Exponent  Coefficients 
       -------------- ---------------------------------------------------------
  1 S  1.35753497E+04  0.000222
  1 S  2.03523337E+03  0.001723
  1 S  4.63225624E+02  0.008926
  1 S  1.31200196E+02  0.035728
  1 S  4.28530159E+01  0.110763
  1 S  1.55841858E+01  0.242956
 
  2 S  6.20671385E+00  0.414403
  2 S  2.57648965E+00  0.237450
 
  3 S  5.76963394E-01  1.000000
 
  4 S  2.29728314E-01  1.000000
 
  5 S  9.51644400E-02  1.000000
 
  6 P  3.46972322E+01  0.005333
  6 P  7.95826228E+00  0.035864
  6 P  2.37808269E+00  0.142159
  6 P  8.14332082E-01  0.342705
 
  7 P  2.88875473E-01  1.000000
 
  8 P  1.00568237E-01  1.000000
 
  9 D  1.09700000E+00  1.000000
 
 10 D  3.18000000E-01  1.000000
 
 11 F  7.61000000E-01  1.000000
 
  H (Hydrogen)
  ------------
            Exponent  Coefficients 
       -------------- ---------------------------------------------------------
  1 S  3.40613410E+01  0.006025
  1 S  5.12357460E+00  0.045021
  1 S  1.16466260E+00  0.201897
 
  2 S  3.27230410E-01  1.000000
 
  3 S  1.03072410E-01  1.000000
 
  4 P  8.00000000E-01  1.000000
 


 Summary of "ao basis" -> "ao basis" (spherical)
 ------------------------------------------------------------------------------
       Tag                 Description            Shells   Functions and Types
 ---------------- ------------------------------  ------  ---------------------
 O                         def2-TZVP                11       31   5s3p2d1f
 C                         def2-TZVP                11       31   5s3p2d1f
 H                         def2-TZVP                 4        6   3s1p




 Summary of "ao basis" -> "ao basis" (spherical)
 ------------------------------------------------------------------------------
       Tag                 Description            Shells   Functions and Types
 ---------------- ------------------------------  ------  ---------------------
 O                         def2-TZVP                11       31   5s3p2d1f
 C                         def2-TZVP                11       31   5s3p2d1f
 H                         def2-TZVP                 4        6   3s1p


  Caching 1-el integrals 
  itol2e modified to match energy
  convergence criterion.
  tol_rho modified to match energy
  convergence criterion.
 
            General Information
            -------------------
          SCF calculation type: DFT
          Wavefunction type:  closed shell.
          No. of atoms     :    10
          No. of electrons :    32
           Alpha electrons :    16
            Beta electrons :    16
          Charge           :     0
          Spin multiplicity:     1
          Use of symmetry is: off; symmetry adaption is: off
          Maximum number of iterations: 250
          This is a Direct SCF calculation.
          AO basis - number of functions:   160
                     number of shells:    68
          Convergence on energy requested:  1.00D-08
          Convergence on density requested:  1.00D-05
          Convergence on gradient requested:  1.00D-07
 
              XC Information
              --------------
                    Becke 1988 Exchange Functional  1.000          
              Lee-Yang-Parr Correlation Functional  1.000          
 
             Grid Information
             ----------------
          Grid used for XC integration:  xfine     
          Radial quadrature: Mura-Knowles        
          Angular quadrature: Lebedev. 
          Tag              B.-S. Rad. Rad. Pts. Rad. Cut. Ang. Pts.
          ---              ---------- --------- --------- ---------
          O                   0.60      100          11.0      1454
          C                   0.70      100          11.0      1454
          H                   0.35      100          12.0      1202
          Grid pruning is: on 
          Number of quadrature shells:  1000
          Spatial weights used:  Erf1
 
          Convergence Information
          -----------------------
          Convergence aids based upon iterative change in 
          total energy or number of iterations. 
          Levelshifting, if invoked, occurs when the 
          HOMO/LUMO gap drops below (HL_TOL):  1.00D-02
          DIIS, if invoked, will attempt to extrapolate 
          using up to (NFOCK): 10 stored Fock matrices.

                    Damping( 0%)  Levelshifting(0.0)       DIIS
                  --------------- ------------------- ---------------
          dE  on:    start             N/A                start   
          dE off:    2 iters           N/A              250 iters 

 
      Screening Tolerance Information
      -------------------------------
          Density screening/tol_rho:  1.00D-11
          AO Gaussian exp screening on grid/accAOfunc:  18
          CD Gaussian exp screening on grid/accCDfunc:  20
          XC Gaussian exp screening on grid/accXCfunc:  20
          Schwarz screening/accCoul:  1.00D-09

 
      Superposition of Atomic Density Guess
      -------------------------------------
 
 Sum of atomic energies:        -190.79714706
 
      Non-variational initial energy
      ------------------------------

 Total energy =    -193.164357
 1-e energy   =    -502.063757
 2-e energy   =     185.347279
 HOMO         =      -0.353717
 LUMO         =       0.088128
 
   Time after variat. SCF:      0.5
   Time prior to 1st pass:      0.5

 Grid_pts file          = ./methyloxirane_blyp-def2-tzvp_488.9_29.inp.gridpts.0
 Record size in doubles =  12289        No. of grid_pts per rec  =   3070
 Max. records in memory =     76        Max. recs in file   =    554552


           Memory utilization after 1st SCF pass: 
           Heap Space remaining (MW):       12.17            12167542
          Stack Space remaining (MW):       13.11            13106116

   convergence    iter        energy       DeltaE   RMS-Dens  Diis-err    time
 ---------------- ----- ----------------- --------- --------- ---------  ------
 d= 0,ls=0.0,diis     1   -193.0194333936 -3.17D+02  9.39D-03  1.06D+00     6.4
 d= 0,ls=0.0,diis     2   -192.8441752416  1.75D-01  7.80D-03  2.69D+00    12.0
 d= 0,ls=0.0,diis     3   -193.0769343252 -2.33D-01  1.81D-03  3.87D-01    17.5
 d= 0,ls=0.0,diis     4   -193.1071661209 -3.02D-02  6.84D-04  1.83D-02    23.1
 d= 0,ls=0.0,diis     5   -193.1088342882 -1.67D-03  2.97D-04  2.80D-03    28.6
 d= 0,ls=0.0,diis     6   -193.1091828028 -3.49D-04  3.20D-05  3.79D-05    34.1
 d= 0,ls=0.0,diis     7   -193.1091874218 -4.62D-06  9.25D-06  3.67D-06    39.7
 d= 0,ls=0.0,diis     8   -193.1091878398 -4.18D-07  2.00D-06  3.01D-07    45.2
 d= 0,ls=0.0,diis     9   -193.1091878738 -3.39D-08  6.07D-07  1.94D-08    50.7
 d= 0,ls=0.0,diis    10   -193.1091878759 -2.11D-09  1.83D-07  2.06D-09    56.2


         Total DFT energy =     -193.109187875896
      One electron energy =     -505.727610280505
           Coulomb energy =      216.088243099067
    Exchange-Corr. energy =      -27.021942170599
 Nuclear repulsion energy =      123.552121476141

 Numeric. integr. density =       32.000000021669

     Total iterative time =     55.7s


 
                       DFT Final Molecular Orbital Analysis
                       ------------------------------------
 
 Vector    1  Occ=2.000000D+00  E=-1.877933D+01
              MO Center= -8.9D-01, -1.8D-01,  2.0D-01, r^2= 1.5D-02
   Bfn.  Coefficient  Atom+Function         Bfn.  Coefficient  Atom+Function  
  ----- ------------  ---------------      ----- ------------  ---------------
     2      0.638486   1 O  s                 1      0.435422   1 O  s         
     3      0.039804   1 O  s                 4     -0.032958   1 O  s         
 
 Vector    2  Occ=2.000000D+00  E=-9.962468D+00
              MO Center=  5.8D-01, -1.5D-01,  1.2D-01, r^2= 2.8D-02
   Bfn.  Coefficient  Atom+Function         Bfn.  Coefficient  Atom+Function  
  ----- ------------  ---------------      ----- ------------  ---------------
    33      0.606896   2 C  s                32      0.467248   2 C  s         
    34      0.042612   2 C  s                36      0.037979   2 C  s         
    35     -0.027101   2 C  s         
 
 Vector    3  Occ=2.000000D+00  E=-9.955100D+00
              MO Center= -1.8D-01,  1.1D+00,  3.4D-01, r^2= 2.8D-02
   Bfn.  Coefficient  Atom+Function         Bfn.  Coefficient  Atom+Function  
  ----- ------------  ---------------      ----- ------------  ---------------
    64      0.607008   3 C  s                63      0.467212   3 C  s         
    65      0.039685   3 C  s         
 
 Vector    4  Occ=2.000000D+00  E=-9.907940D+00
              MO Center=  1.2D+00, -5.2D-01, -1.2D+00, r^2= 2.8D-02
   Bfn.  Coefficient  Atom+Function         Bfn.  Coefficient  Atom+Function  
  ----- ------------  ---------------      ----- ------------  ---------------
    95      0.606953   4 C  s                94      0.467213   4 C  s         
    96      0.040577   4 C  s                98      0.035809   4 C  s         
 
 Vector    5  Occ=2.000000D+00  E=-9.589156D-01
              MO Center= -4.7D-01,  5.7D-02,  2.1D-01, r^2= 6.5D-01
   Bfn.  Coefficient  Atom+Function         Bfn.  Coefficient  Atom+Function  
  ----- ------------  ---------------      ----- ------------  ---------------
     4      0.374634   1 O  s                 3      0.277054   1 O  s         
     2     -0.192421   1 O  s                65      0.140361   3 C  s         
    34      0.139617   2 C  s                 5      0.122976   1 O  s         
    35      0.106440   2 C  s                66      0.094280   3 C  s         
     6      0.092241   1 O  px               69     -0.091480   3 C  py        
 
 Vector    6  Occ=2.000000D+00  E=-6.714236D-01
              MO Center=  9.3D-01, -3.8D-01, -7.6D-01, r^2= 1.6D+00
   Bfn.  Coefficient  Atom+Function         Bfn.  Coefficient  Atom+Function  
  ----- ------------  ---------------      ----- ------------  ---------------
    97      0.283205   4 C  s                96      0.274963   4 C  s         
    35      0.185924   2 C  s                34      0.176179   2 C  s         
    95     -0.173165   4 C  s                 4     -0.151211   1 O  s         
    33     -0.110081   2 C  s                 3     -0.106213   1 O  s         
    94     -0.082976   4 C  s                 5     -0.074880   1 O  s         
 
 Vector    7  Occ=2.000000D+00  E=-5.911672D-01
              MO Center= -1.0D-01,  6.9D-01,  2.0D-01, r^2= 2.0D+00
   Bfn.  Coefficient  Atom+Function         Bfn.  Coefficient  Atom+Function  
  ----- ------------  ---------------      ----- ------------  ---------------
    66      0.322327   3 C  s                65      0.275193   3 C  s         
     4     -0.239491   1 O  s                 3     -0.169862   1 O  s         
    64     -0.170100   3 C  s                 5     -0.148435   1 O  s         
     2      0.112068   1 O  s                97     -0.107494   4 C  s         
    38      0.105956   2 C  py              132      0.101486   6 H  s         
 
 Vector    8  Occ=2.000000D+00  E=-5.293132D-01
              MO Center=  4.1D-01,  4.7D-02, -9.2D-02, r^2= 2.7D+00
   Bfn.  Coefficient  Atom+Function         Bfn.  Coefficient  Atom+Function  
  ----- ------------  ---------------      ----- ------------  ---------------
    35      0.302617   2 C  s                34      0.222615   2 C  s         
    66     -0.162805   3 C  s                97     -0.153309   4 C  s         
    33     -0.137008   2 C  s               126      0.132866   5 H  s         
    96     -0.126826   4 C  s               125      0.106131   5 H  s         
    65     -0.105226   3 C  s                 6      0.103103   1 O  px        
 
 Vector    9  Occ=2.000000D+00  E=-4.477180D-01
              MO Center=  1.3D-01,  2.8D-01,  2.4D-01, r^2= 2.5D+00
   Bfn.  Coefficient  Atom+Function         Bfn.  Coefficient  Atom+Function  
  ----- ------------  ---------------      ----- ------------  ---------------
    70      0.209848   3 C  pz               39      0.156031   2 C  pz        
   132      0.145558   6 H  s                73      0.131760   3 C  pz        
     8      0.124228   1 O  pz              126      0.115702   5 H  s         
     6     -0.109461   1 O  px              131      0.107961   6 H  s         
    38     -0.106066   2 C  py               37      0.105300   2 C  px        
 
 Vector   10  Occ=2.000000D+00  E=-4.134840D-01
              MO Center=  6.6D-02,  2.8D-01, -2.5D-01, r^2= 2.6D+00
   Bfn.  Coefficient  Atom+Function         Bfn.  Coefficient  Atom+Function  
  ----- ------------  ---------------      ----- ------------  ---------------
    69      0.214639   3 C  py              101      0.159059   4 C  pz        
   138      0.154124   7 H  s                 6     -0.142926   1 O  px        
    38     -0.139089   2 C  py               37      0.132185   2 C  px        
    72      0.121224   3 C  py                7     -0.117047   1 O  py        
    70     -0.117374   3 C  pz                9     -0.114379   1 O  px        
 
 Vector   11  Occ=2.000000D+00  E=-3.767969D-01
              MO Center=  9.5D-01, -3.4D-01, -7.8D-01, r^2= 2.6D+00
   Bfn.  Coefficient  Atom+Function         Bfn.  Coefficient  Atom+Function  
  ----- ------------  ---------------      ----- ------------  ---------------
    99      0.213171   4 C  px              144      0.189011   8 H  s         
   100      0.172019   4 C  py              150     -0.145715   9 H  s         
   102      0.136677   4 C  px              143      0.132264   8 H  s         
    37      0.122505   2 C  px              103      0.113430   4 C  py        
     6     -0.112851   1 O  px                7      0.106369   1 O  py        
 
 Vector   12  Occ=2.000000D+00  E=-3.560458D-01
              MO Center=  5.8D-01, -3.2D-01, -8.7D-01, r^2= 2.9D+00
   Bfn.  Coefficient  Atom+Function         Bfn.  Coefficient  Atom+Function  
  ----- ------------  ---------------      ----- ------------  ---------------
   100      0.249857   4 C  py              150     -0.181105   9 H  s         
   156      0.178857  10 H  s                 7     -0.169077   1 O  py        
   103      0.161929   4 C  py               10     -0.135277   1 O  py        
   149     -0.126142   9 H  s               155      0.126486  10 H  s         
    70      0.117798   3 C  pz               99     -0.104928   4 C  px        
 
 Vector   13  Occ=2.000000D+00  E=-3.283266D-01
              MO Center=  3.4D-01,  2.6D-01, -2.0D-01, r^2= 2.7D+00
   Bfn.  Coefficient  Atom+Function         Bfn.  Coefficient  Atom+Function  
  ----- ------------  ---------------      ----- ------------  ---------------
    39      0.226616   2 C  pz              101     -0.204487   4 C  pz        
    70     -0.177047   3 C  pz              138      0.163188   7 H  s         
     7     -0.155831   1 O  py               42      0.153447   2 C  pz        
   104     -0.142212   4 C  pz               10     -0.125356   1 O  py        
   132     -0.113396   6 H  s                99      0.112655   4 C  px        
 
 Vector   14  Occ=2.000000D+00  E=-3.198535D-01
              MO Center=  3.3D-01, -5.8D-02, -2.1D-01, r^2= 3.0D+00
   Bfn.  Coefficient  Atom+Function         Bfn.  Coefficient  Atom+Function  
  ----- ------------  ---------------      ----- ------------  ---------------
     7      0.225545   1 O  py               10      0.184526   1 O  py        
    99     -0.161203   4 C  px              126      0.155389   5 H  s         
     6     -0.152534   1 O  px              156      0.145325  10 H  s         
    37      0.139650   2 C  px              144     -0.134137   8 H  s         
     9     -0.125205   1 O  px               39      0.113430   2 C  pz        
 
 Vector   15  Occ=2.000000D+00  E=-2.650496D-01
              MO Center=  1.9D-02,  1.4D-01,  2.3D-02, r^2= 2.3D+00
   Bfn.  Coefficient  Atom+Function         Bfn.  Coefficient  Atom+Function  
  ----- ------------  ---------------      ----- ------------  ---------------
    68     -0.260090   3 C  px               38     -0.256723   2 C  py        
     6      0.240928   1 O  px               41     -0.199576   2 C  py        
    71     -0.191993   3 C  px                9      0.188471   1 O  px        
    12      0.157540   1 O  px              150     -0.117281   9 H  s         
   100      0.113951   4 C  py               67     -0.107789   3 C  s         
 
 Vector   16  Occ=2.000000D+00  E=-2.193783D-01
              MO Center= -6.0D-01, -2.7D-02,  2.0D-01, r^2= 1.6D+00
   Bfn.  Coefficient  Atom+Function         Bfn.  Coefficient  Atom+Function  
  ----- ------------  ---------------      ----- ------------  ---------------
     8      0.450258   1 O  pz               11      0.358412   1 O  pz        
    14      0.296855   1 O  pz              133     -0.133637   6 H  s         
   139      0.116806   7 H  s               132     -0.104626   6 H  s         
   138      0.102988   7 H  s               145     -0.102773   8 H  s         
   126     -0.094217   5 H  s                98      0.083439   4 C  s         
 
 Vector   17  Occ=0.000000D+00  E= 2.530297D-02
              MO Center=  1.2D+00, -8.0D-02, -5.5D-01, r^2= 7.2D+00
   Bfn.  Coefficient  Atom+Function         Bfn.  Coefficient  Atom+Function  
  ----- ------------  ---------------      ----- ------------  ---------------
    98      4.436525   4 C  s               145     -1.511123   8 H  s         
   151     -1.490043   9 H  s               157     -1.315017  10 H  s         
   127     -1.256149   5 H  s                45      1.129834   2 C  pz        
   139     -0.860359   7 H  s                67      0.706529   3 C  s         
   133     -0.631439   6 H  s                74     -0.323654   3 C  px        
 
 Vector   18  Occ=0.000000D+00  E= 4.199557D-02
              MO Center= -7.8D-02,  6.0D-01,  9.1D-02, r^2= 4.7D+00
   Bfn.  Coefficient  Atom+Function         Bfn.  Coefficient  Atom+Function  
  ----- ------------  ---------------      ----- ------------  ---------------
    98      2.277102   4 C  s                36     -1.691103   2 C  s         
     5      1.342547   1 O  s                74      0.851748   3 C  px        
   151     -0.830659   9 H  s                45      0.587241   2 C  pz        
   145     -0.486199   8 H  s                13      0.433912   1 O  py        
   157     -0.430780  10 H  s                75      0.427960   3 C  py        
 
 Vector   19  Occ=0.000000D+00  E= 4.982375D-02
              MO Center=  5.1D-01,  2.2D-01, -7.6D-02, r^2= 6.8D+00
   Bfn.  Coefficient  Atom+Function         Bfn.  Coefficient  Atom+Function  
  ----- ------------  ---------------      ----- ------------  ---------------
    36      2.970678   2 C  s               127     -2.040609   5 H  s         
    98     -1.941032   4 C  s                67     -1.533518   3 C  s         
   139      1.392076   7 H  s               157      1.252945  10 H  s         
    76      0.701278   3 C  pz               43      0.616038   2 C  px        
   133     -0.508373   6 H  s               151      0.323222   9 H  s         
 
 Vector   20  Occ=0.000000D+00  E= 5.092910D-02
              MO Center=  4.5D-01,  8.0D-01,  3.3D-01, r^2= 6.9D+00
   Bfn.  Coefficient  Atom+Function         Bfn.  Coefficient  Atom+Function  
  ----- ------------  ---------------      ----- ------------  ---------------
    67      3.494291   3 C  s                98     -2.772349   4 C  s         
   133     -1.754798   6 H  s               145      1.262615   8 H  s         
    44     -1.226502   2 C  py              139     -0.838963   7 H  s         
   157      0.658184  10 H  s                74      0.608682   3 C  px        
   151      0.569563   9 H  s                45     -0.496786   2 C  pz        
 
 Vector   21  Occ=0.000000D+00  E= 6.243891D-02
              MO Center=  2.5D-01,  1.9D-01, -1.5D-01, r^2= 4.9D+00
   Bfn.  Coefficient  Atom+Function         Bfn.  Coefficient  Atom+Function  
  ----- ------------  ---------------      ----- ------------  ---------------
   139     -1.309428   7 H  s                98     -1.280611   4 C  s         
    67      1.260020   3 C  s               151      0.964696   9 H  s         
    43      0.810179   2 C  px                5      0.746093   1 O  s         
   133     -0.693128   6 H  s                75      0.469000   3 C  py        
    12      0.464836   1 O  px              127      0.449471   5 H  s         
 
 Vector   22  Occ=0.000000D+00  E= 8.606002D-02
              MO Center=  1.3D+00,  1.9D-01, -5.1D-01, r^2= 7.1D+00
   Bfn.  Coefficient  Atom+Function         Bfn.  Coefficient  Atom+Function  
  ----- ------------  ---------------      ----- ------------  ---------------
    36      2.971833   2 C  s               145      2.040318   8 H  s         
    67     -1.497500   3 C  s               157     -1.320079  10 H  s         
   127     -1.297164   5 H  s               133      1.139353   6 H  s         
   107     -1.116955   4 C  pz              105     -1.047318   4 C  px        
    98     -0.991819   4 C  s                75      0.810469   3 C  py        
 
 Vector   23  Occ=0.000000D+00  E= 9.141412D-02
              MO Center=  1.2D+00, -6.7D-01, -5.6D-01, r^2= 6.6D+00
   Bfn.  Coefficient  Atom+Function         Bfn.  Coefficient  Atom+Function  
  ----- ------------  ---------------      ----- ------------  ---------------
    36      2.671357   2 C  s               151      2.116917   9 H  s         
   145     -1.495121   8 H  s                98     -1.377347   4 C  s         
   106      1.158169   4 C  py              105      1.067642   4 C  px        
    67     -0.974972   3 C  s               133      0.921422   6 H  s         
   127     -0.851898   5 H  s               107     -0.753995   4 C  pz        
 
 Vector   24  Occ=0.000000D+00  E= 1.021863D-01
              MO Center=  4.3D-01,  4.6D-01, -1.1D+00, r^2= 6.8D+00
   Bfn.  Coefficient  Atom+Function         Bfn.  Coefficient  Atom+Function  
  ----- ------------  ---------------      ----- ------------  ---------------
   157      2.034543  10 H  s               133      1.620084   6 H  s         
    98     -1.544176   4 C  s               139     -1.497628   7 H  s         
    36      1.477703   2 C  s               106     -1.449425   4 C  py        
   151     -1.348902   9 H  s                76     -1.157146   3 C  pz        
   105      1.026740   4 C  px               45     -0.546101   2 C  pz        
 
 Vector   25  Occ=0.000000D+00  E= 1.390802D-01
              MO Center=  7.9D-01,  2.1D-01, -4.2D-01, r^2= 7.9D+00
   Bfn.  Coefficient  Atom+Function         Bfn.  Coefficient  Atom+Function  
  ----- ------------  ---------------      ----- ------------  ---------------
    36      4.748535   2 C  s                98     -3.619783   4 C  s         
    45     -3.443231   2 C  pz               67     -2.862445   3 C  s         
   127      2.753626   5 H  s                76      2.180781   3 C  pz        
   105      2.099452   4 C  px              133     -1.788356   6 H  s         
   139      1.687708   7 H  s               107     -1.552620   4 C  pz        
 
 Vector   26  Occ=0.000000D+00  E= 1.701459D-01
              MO Center=  4.7D-01,  5.2D-01, -1.4D-01, r^2= 7.3D+00
   Bfn.  Coefficient  Atom+Function         Bfn.  Coefficient  Atom+Function  
  ----- ------------  ---------------      ----- ------------  ---------------
    75      2.308888   3 C  py              107      1.665853   4 C  pz        
    67     -1.519584   3 C  s                36      1.391528   2 C  s         
   139     -1.212826   7 H  s               157      1.060643  10 H  s         
    74     -0.965647   3 C  px               44      0.705002   2 C  py        
    43     -0.566698   2 C  px              106     -0.541019   4 C  py        
 
 Vector   27  Occ=0.000000D+00  E= 1.971591D-01
              MO Center=  8.8D-01, -4.6D-02, -9.9D-01, r^2= 5.1D+00
   Bfn.  Coefficient  Atom+Function         Bfn.  Coefficient  Atom+Function  
  ----- ------------  ---------------      ----- ------------  ---------------
    67      3.115475   3 C  s                44     -2.598293   2 C  py        
   106      2.060241   4 C  py               36     -1.498559   2 C  s         
    43      0.988990   2 C  px               74      0.713092   3 C  px        
    45     -0.667615   2 C  pz              150      0.662103   9 H  s         
   157     -0.661399  10 H  s               105      0.615514   4 C  px        
 
 Vector   28  Occ=0.000000D+00  E= 2.023569D-01
              MO Center=  9.0D-01, -4.7D-01, -7.1D-01, r^2= 6.6D+00
   Bfn.  Coefficient  Atom+Function         Bfn.  Coefficient  Atom+Function  
  ----- ------------  ---------------      ----- ------------  ---------------
    36      2.731370   2 C  s                75      1.721233   3 C  py        
   105     -1.508918   4 C  px              133     -1.216060   6 H  s         
   107     -0.849764   4 C  pz               45      0.818134   2 C  pz        
   139     -0.751643   7 H  s               156     -0.713374  10 H  s         
    76      0.669560   3 C  pz              106      0.651499   4 C  py        
 
 Vector   29  Occ=0.000000D+00  E= 2.373234D-01
              MO Center= -3.3D-01,  4.3D-01, -1.1D-02, r^2= 5.4D+00
   Bfn.  Coefficient  Atom+Function         Bfn.  Coefficient  Atom+Function  
  ----- ------------  ---------------      ----- ------------  ---------------
    67      4.626775   3 C  s                36     -3.049228   2 C  s         
    66     -1.458213   3 C  s               139     -1.465424   7 H  s         
   133     -1.254253   6 H  s                98      1.226896   4 C  s         
   107      0.909641   4 C  pz               74     -0.816072   3 C  px        
     5     -0.787377   1 O  s               106      0.723504   4 C  py        
 
 Vector   30  Occ=0.000000D+00  E= 2.488346D-01
              MO Center=  5.6D-01, -1.3D-02, -1.2D-01, r^2= 5.8D+00
   Bfn.  Coefficient  Atom+Function         Bfn.  Coefficient  Atom+Function  
  ----- ------------  ---------------      ----- ------------  ---------------
    67      5.965046   3 C  s                43      4.221113   2 C  px        
    75     -3.056240   3 C  py               44     -2.753799   2 C  py        
   107     -2.153855   4 C  pz               36     -1.997314   2 C  s         
   157     -1.888127  10 H  s                45     -1.574763   2 C  pz        
    98     -1.514931   4 C  s               105     -1.194940   4 C  px        
 
 Vector   31  Occ=0.000000D+00  E= 2.687334D-01
              MO Center=  1.1D-01, -4.0D-01,  2.3D-01, r^2= 5.3D+00
   Bfn.  Coefficient  Atom+Function         Bfn.  Coefficient  Atom+Function  
  ----- ------------  ---------------      ----- ------------  ---------------
    36      4.937261   2 C  s                 5     -2.603544   1 O  s         
    43     -1.938503   2 C  px               67      1.604494   3 C  s         
   105      1.495853   4 C  px               98     -1.324564   4 C  s         
    66     -1.066658   3 C  s               139     -0.814742   7 H  s         
   133     -0.804686   6 H  s                12     -0.770784   1 O  px        
 
 Vector   32  Occ=0.000000D+00  E= 2.758876D-01
              MO Center=  6.3D-01,  5.7D-01,  3.2D-01, r^2= 4.0D+00
   Bfn.  Coefficient  Atom+Function         Bfn.  Coefficient  Atom+Function  
  ----- ------------  ---------------      ----- ------------  ---------------
    67      2.333971   3 C  s                36     -1.215667   2 C  s         
     5      1.012484   1 O  s                43      0.847344   2 C  px        
    74      0.748598   3 C  px               66     -0.726839   3 C  s         
    45      0.690346   2 C  pz              139     -0.630544   7 H  s         
   145     -0.611779   8 H  s               133     -0.484601   6 H  s         
 
 Vector   33  Occ=0.000000D+00  E= 3.016035D-01
              MO Center=  4.4D-01,  3.7D-01, -3.6D-01, r^2= 5.0D+00
   Bfn.  Coefficient  Atom+Function         Bfn.  Coefficient  Atom+Function  
  ----- ------------  ---------------      ----- ------------  ---------------
    43      1.867095   2 C  px               98     -1.804574   4 C  s         
   106      1.723226   4 C  py              151      1.696456   9 H  s         
    76      1.414599   3 C  pz               36     -1.248027   2 C  s         
    44     -1.226665   2 C  py               66      1.060648   3 C  s         
   107     -1.004610   4 C  pz              139      0.999015   7 H  s         
 
 Vector   34  Occ=0.000000D+00  E= 3.383806D-01
              MO Center=  7.0D-02,  4.6D-01, -3.9D-01, r^2= 5.9D+00
   Bfn.  Coefficient  Atom+Function         Bfn.  Coefficient  Atom+Function  
  ----- ------------  ---------------      ----- ------------  ---------------
    67      4.747622   3 C  s                76     -4.214088   3 C  pz        
   139     -3.307419   7 H  s                36     -2.749593   2 C  s         
   133      2.174624   6 H  s               157     -1.817240  10 H  s         
   107     -1.761355   4 C  pz               98      1.567212   4 C  s         
    43      1.519137   2 C  px               44     -1.301955   2 C  py        
 
 Vector   35  Occ=0.000000D+00  E= 3.619805D-01
              MO Center=  8.0D-01, -6.5D-02, -4.6D-01, r^2= 6.8D+00
   Bfn.  Coefficient  Atom+Function         Bfn.  Coefficient  Atom+Function  
  ----- ------------  ---------------      ----- ------------  ---------------
    98      8.492005   4 C  s                97     -3.373686   4 C  s         
   145     -3.296068   8 H  s                76      3.186452   3 C  pz        
   133     -2.383527   6 H  s               151     -2.084136   9 H  s         
    45     -1.766389   2 C  pz              157     -1.688778  10 H  s         
   139      1.347121   7 H  s               105      1.179328   4 C  px        
 
 Vector   36  Occ=0.000000D+00  E= 3.731534D-01
              MO Center=  5.6D-01,  2.3D-01,  1.3D-01, r^2= 6.1D+00
   Bfn.  Coefficient  Atom+Function         Bfn.  Coefficient  Atom+Function  
  ----- ------------  ---------------      ----- ------------  ---------------
    36     13.243701   2 C  s                67     -8.325230   3 C  s         
    98     -7.474930   4 C  s               127     -3.549006   5 H  s         
    35     -2.053671   2 C  s               157      2.005746  10 H  s         
    97      1.933366   4 C  s                44      1.801988   2 C  py        
    74     -1.651688   3 C  px               75      1.573392   3 C  py        
 
 Vector   37  Occ=0.000000D+00  E= 3.849108D-01
              MO Center=  8.7D-01, -3.3D-01, -2.0D-01, r^2= 6.2D+00
   Bfn.  Coefficient  Atom+Function         Bfn.  Coefficient  Atom+Function  
  ----- ------------  ---------------      ----- ------------  ---------------
    98      6.214012   4 C  s                36      4.658517   2 C  s         
   127     -3.806211   5 H  s                45      3.336690   2 C  pz        
   151     -2.524466   9 H  s                67     -2.440017   3 C  s         
   145     -2.278113   8 H  s                76     -2.204787   3 C  pz        
    35     -2.081115   2 C  s                97     -1.876755   4 C  s         
 
 Vector   38  Occ=0.000000D+00  E= 3.957747D-01
              MO Center=  2.4D-01,  1.9D-01, -1.5D-01, r^2= 6.4D+00
   Bfn.  Coefficient  Atom+Function         Bfn.  Coefficient  Atom+Function  
  ----- ------------  ---------------      ----- ------------  ---------------
    98     11.617251   4 C  s                67     -6.558232   3 C  s         
    45      4.881704   2 C  pz               44      2.745926   2 C  py        
    76     -2.696959   3 C  pz              157     -2.648791  10 H  s         
   133      2.406862   6 H  s                43     -2.212682   2 C  px        
    75      1.936862   3 C  py              107      1.679589   4 C  pz        
 
 Vector   39  Occ=0.000000D+00  E= 4.017111D-01
              MO Center= -2.3D-01,  2.4D-01,  1.9D-01, r^2= 6.5D+00
   Bfn.  Coefficient  Atom+Function         Bfn.  Coefficient  Atom+Function  
  ----- ------------  ---------------      ----- ------------  ---------------
    36     12.512240   2 C  s                67    -12.480340   3 C  s         
    98     -5.564313   4 C  s                45     -5.337823   2 C  pz        
    44      3.900623   2 C  py              127      2.884209   5 H  s         
    66      2.685319   3 C  s                43     -2.490936   2 C  px        
   105      2.475221   4 C  px              139      2.474892   7 H  s         
 
 Vector   40  Occ=0.000000D+00  E= 4.146397D-01
              MO Center=  7.7D-01, -3.7D-01, -8.3D-01, r^2= 5.9D+00
   Bfn.  Coefficient  Atom+Function         Bfn.  Coefficient  Atom+Function  
  ----- ------------  ---------------      ----- ------------  ---------------
    98      6.961530   4 C  s                36     -2.860125   2 C  s         
    45      2.863664   2 C  pz              105     -2.481975   4 C  px        
   151     -2.371901   9 H  s               157     -2.039256  10 H  s         
   145      1.738821   8 H  s                97     -1.188529   4 C  s         
   144     -0.968027   8 H  s                67     -0.944980   3 C  s         
 
 Vector   41  Occ=0.000000D+00  E= 4.274426D-01
              MO Center=  4.6D-01,  1.9D-01, -1.5D-01, r^2= 6.8D+00
   Bfn.  Coefficient  Atom+Function         Bfn.  Coefficient  Atom+Function  
  ----- ------------  ---------------      ----- ------------  ---------------
    36      9.566911   2 C  s                67     -4.875485   3 C  s         
    98     -4.313733   4 C  s                44      2.638632   2 C  py        
    75      2.602966   3 C  py              151      2.425611   9 H  s         
    43     -1.829189   2 C  px               45     -1.602239   2 C  pz        
    74     -1.471021   3 C  px              105      1.371294   4 C  px        
 
 Vector   42  Occ=0.000000D+00  E= 4.468727D-01
              MO Center=  8.7D-02, -8.5D-02, -1.7D-01, r^2= 6.1D+00
   Bfn.  Coefficient  Atom+Function         Bfn.  Coefficient  Atom+Function  
  ----- ------------  ---------------      ----- ------------  ---------------
    36     10.235027   2 C  s                98     -9.386631   4 C  s         
    45     -5.677270   2 C  pz               67     -3.316752   3 C  s         
   127      2.850461   5 H  s                76      2.599094   3 C  pz        
    44      2.300203   2 C  py              157      2.090430  10 H  s         
   106     -2.062609   4 C  py               35     -1.965697   2 C  s         
 
 Vector   43  Occ=0.000000D+00  E= 4.616000D-01
              MO Center=  1.0D-01,  7.7D-01, -5.1D-01, r^2= 5.1D+00
   Bfn.  Coefficient  Atom+Function         Bfn.  Coefficient  Atom+Function  
  ----- ------------  ---------------      ----- ------------  ---------------
   139      3.155850   7 H  s               157     -2.362301  10 H  s         
   107     -2.308906   4 C  pz               75     -2.224800   3 C  py        
    45     -1.765497   2 C  pz               44     -1.717867   2 C  py        
    43      1.682247   2 C  px              138     -1.408007   7 H  s         
    76      1.101710   3 C  pz               98     -0.921579   4 C  s         
 
 Vector   44  Occ=0.000000D+00  E= 4.694546D-01
              MO Center=  5.0D-01,  1.6D-01, -1.5D-02, r^2= 5.6D+00
   Bfn.  Coefficient  Atom+Function         Bfn.  Coefficient  Atom+Function  
  ----- ------------  ---------------      ----- ------------  ---------------
    98     -4.821607   4 C  s                36      4.564657   2 C  s         
    45     -1.990365   2 C  pz              145      1.665103   8 H  s         
   107     -1.648105   4 C  pz              133      1.597186   6 H  s         
    67     -1.347693   3 C  s                35     -1.220971   2 C  s         
   157     -1.138491  10 H  s               132     -1.111481   6 H  s         
 
 Vector   45  Occ=0.000000D+00  E= 5.077400D-01
              MO Center=  9.1D-01, -3.9D-01, -9.4D-01, r^2= 4.8D+00
   Bfn.  Coefficient  Atom+Function         Bfn.  Coefficient  Atom+Function  
  ----- ------------  ---------------      ----- ------------  ---------------
    98     11.615865   4 C  s                36     -7.654817   2 C  s         
    45      4.678707   2 C  pz              107      3.096136   4 C  pz        
   106      1.334215   4 C  py              144     -1.339229   8 H  s         
   156     -1.231983  10 H  s               127     -1.187549   5 H  s         
   150     -1.104889   9 H  s               105     -1.049971   4 C  px        
 
 Vector   46  Occ=0.000000D+00  E= 5.381085D-01
              MO Center=  8.3D-02, -4.0D-01, -4.8D-01, r^2= 4.4D+00
   Bfn.  Coefficient  Atom+Function         Bfn.  Coefficient  Atom+Function  
  ----- ------------  ---------------      ----- ------------  ---------------
    98     -7.027791   4 C  s                36      6.682011   2 C  s         
    45     -3.589071   2 C  pz               76      3.248509   3 C  pz        
   133     -1.799169   6 H  s               105      1.497455   4 C  px        
   139      1.461673   7 H  s               107     -1.418168   4 C  pz        
    14     -1.175838   1 O  pz                5     -1.127136   1 O  s         
 
 Vector   47  Occ=0.000000D+00  E= 6.564935D-01
              MO Center= -3.4D-01,  2.5D-02, -1.7D-02, r^2= 4.3D+00
   Bfn.  Coefficient  Atom+Function         Bfn.  Coefficient  Atom+Function  
  ----- ------------  ---------------      ----- ------------  ---------------
    36     11.451984   2 C  s                67     -8.723086   3 C  s         
    98     -4.138444   4 C  s                43     -2.545481   2 C  px        
    75      2.313515   3 C  py               13      2.099024   1 O  py        
    76      2.021717   3 C  pz              105      1.586750   4 C  px        
   139      1.488841   7 H  s                44      1.455706   2 C  py        
 
 Vector   48  Occ=0.000000D+00  E= 6.748692D-01
              MO Center= -3.3D-01,  3.6D-01,  1.2D-01, r^2= 4.0D+00
   Bfn.  Coefficient  Atom+Function         Bfn.  Coefficient  Atom+Function  
  ----- ------------  ---------------      ----- ------------  ---------------
    36      8.840371   2 C  s                67     -8.607240   3 C  s         
     5      2.900485   1 O  s                75      2.760656   3 C  py        
    98     -2.233927   4 C  s                13      2.217330   1 O  py        
    43     -1.514276   2 C  px               45     -1.257093   2 C  pz        
    44      1.141444   2 C  py                4     -1.086820   1 O  s         
 
 Vector   49  Occ=0.000000D+00  E= 7.083035D-01
              MO Center=  1.7D-01, -3.0D-01, -2.7D-01, r^2= 4.5D+00
   Bfn.  Coefficient  Atom+Function         Bfn.  Coefficient  Atom+Function  
  ----- ------------  ---------------      ----- ------------  ---------------
    67      9.462351   3 C  s                36     -7.179845   2 C  s         
    43      3.676061   2 C  px               44     -3.491178   2 C  py        
    75     -2.734406   3 C  py               98     -2.692587   4 C  s         
     5      2.278339   1 O  s                12      1.677552   1 O  px        
   106      1.631531   4 C  py               13     -1.254216   1 O  py        
 
 Vector   50  Occ=0.000000D+00  E= 7.610178D-01
              MO Center=  6.4D-01, -4.2D-02, -3.6D-01, r^2= 4.0D+00
   Bfn.  Coefficient  Atom+Function         Bfn.  Coefficient  Atom+Function  
  ----- ------------  ---------------      ----- ------------  ---------------
    45      2.437252   2 C  pz              127     -1.691824   5 H  s         
   105     -1.681689   4 C  px               36      1.529641   2 C  s         
     5     -1.505006   1 O  s                43      1.415848   2 C  px        
   126     -1.357403   5 H  s               144      1.263036   8 H  s         
    66      1.053939   3 C  s                76     -0.971429   3 C  pz        
 
 Vector   51  Occ=0.000000D+00  E= 7.964873D-01
              MO Center=  2.9D-01,  4.6D-02, -1.9D-01, r^2= 4.4D+00
   Bfn.  Coefficient  Atom+Function         Bfn.  Coefficient  Atom+Function  
  ----- ------------  ---------------      ----- ------------  ---------------
     5      4.090529   1 O  s                36     -2.572820   2 C  s         
    76     -2.520944   3 C  pz                4     -1.597905   1 O  s         
    45      1.596538   2 C  pz              133      1.337958   6 H  s         
    12      1.328589   1 O  px               43      1.186211   2 C  px        
    66     -1.026363   3 C  s                35     -1.008092   2 C  s         
 
 Vector   52  Occ=0.000000D+00  E= 8.296090D-01
              MO Center=  3.2D-01,  1.7D-01,  6.4D-03, r^2= 4.4D+00
   Bfn.  Coefficient  Atom+Function         Bfn.  Coefficient  Atom+Function  
  ----- ------------  ---------------      ----- ------------  ---------------
    36      6.680330   2 C  s                 5     -4.000871   1 O  s         
    98     -4.000440   4 C  s                43     -2.608554   2 C  px        
   105      1.925219   4 C  px               35     -1.852600   2 C  s         
    45     -1.698542   2 C  pz               44      1.495631   2 C  py        
    66     -1.173114   3 C  s                97      1.069261   4 C  s         
 
 Vector   53  Occ=0.000000D+00  E= 8.573206D-01
              MO Center=  5.6D-01,  1.5D-01, -3.9D-01, r^2= 4.2D+00
   Bfn.  Coefficient  Atom+Function         Bfn.  Coefficient  Atom+Function  
  ----- ------------  ---------------      ----- ------------  ---------------
    36      4.845916   2 C  s                98     -4.622682   4 C  s         
    45     -4.598718   2 C  pz               76      1.980716   3 C  pz        
   127      1.744227   5 H  s               106     -1.549051   4 C  py        
     5     -1.532488   1 O  s               105      1.386774   4 C  px        
    44      1.340810   2 C  py              150     -1.168273   9 H  s         
 
 Vector   54  Occ=0.000000D+00  E= 8.717366D-01
              MO Center=  2.1D-01, -3.5D-02, -1.2D-01, r^2= 4.2D+00
   Bfn.  Coefficient  Atom+Function         Bfn.  Coefficient  Atom+Function  
  ----- ------------  ---------------      ----- ------------  ---------------
     5      4.383187   1 O  s                76      1.578151   3 C  pz        
    98     -1.542078   4 C  s                 4     -1.500297   1 O  s         
   138      1.361964   7 H  s                67     -1.295741   3 C  s         
    36     -1.186737   2 C  s                12      1.156388   1 O  px        
    66     -1.124771   3 C  s                44      0.927126   2 C  py        
 
 Vector   55  Occ=0.000000D+00  E= 9.209961D-01
              MO Center=  5.2D-01,  2.9D-01, -4.9D-01, r^2= 4.5D+00
   Bfn.  Coefficient  Atom+Function         Bfn.  Coefficient  Atom+Function  
  ----- ------------  ---------------      ----- ------------  ---------------
    35      5.102531   2 C  s                36     -1.864660   2 C  s         
    67      1.597101   3 C  s                66     -1.346809   3 C  s         
    72      1.330401   3 C  py              132     -1.332465   6 H  s         
    84      1.176458   3 C  d  0             41      1.163933   2 C  py        
   156     -1.163312  10 H  s               116     -1.098135   4 C  d  1      
 
 Vector   56  Occ=0.000000D+00  E= 9.621676D-01
              MO Center=  4.4D-01,  3.1D-01, -5.2D-01, r^2= 4.7D+00
   Bfn.  Coefficient  Atom+Function         Bfn.  Coefficient  Atom+Function  
  ----- ------------  ---------------      ----- ------------  ---------------
    35      4.288632   2 C  s                67      2.619724   3 C  s         
   138     -2.357243   7 H  s                76     -1.799896   3 C  pz        
    42     -1.764096   2 C  pz               83     -1.664485   3 C  d -1      
    36     -1.537838   2 C  s               115     -1.477364   4 C  d  0      
    98     -1.367662   4 C  s               132      1.373538   6 H  s         
 
 Vector   57  Occ=0.000000D+00  E= 9.940922D-01
              MO Center=  3.3D-01,  5.2D-01, -1.1D-01, r^2= 4.0D+00
   Bfn.  Coefficient  Atom+Function         Bfn.  Coefficient  Atom+Function  
  ----- ------------  ---------------      ----- ------------  ---------------
    36      7.397292   2 C  s                98     -4.883713   4 C  s         
    67     -3.789481   3 C  s                45     -3.712756   2 C  pz        
    43     -2.291090   2 C  px               44      2.082588   2 C  py        
    66     -1.651026   3 C  s               127      1.537183   5 H  s         
    75      1.412510   3 C  py              126      1.346317   5 H  s         
 
 Vector   58  Occ=0.000000D+00  E= 1.012593D+00
              MO Center=  4.0D-01,  5.1D-01, -7.1D-02, r^2= 4.3D+00
   Bfn.  Coefficient  Atom+Function         Bfn.  Coefficient  Atom+Function  
  ----- ------------  ---------------      ----- ------------  ---------------
    36      5.816590   2 C  s                67     -4.761025   3 C  s         
    45     -2.313690   2 C  pz               44      1.944793   2 C  py        
    98     -1.902797   4 C  s               156     -1.528890  10 H  s         
    43     -1.424631   2 C  px               41      1.358872   2 C  py        
   144      1.364876   8 H  s                74     -1.344085   3 C  px        
 
 Vector   59  Occ=0.000000D+00  E= 1.042084D+00
              MO Center=  7.1D-01, -1.9D-01, -4.7D-01, r^2= 4.1D+00
   Bfn.  Coefficient  Atom+Function         Bfn.  Coefficient  Atom+Function  
  ----- ------------  ---------------      ----- ------------  ---------------
    35      2.834223   2 C  s                36      2.546629   2 C  s         
    66     -2.282459   3 C  s               150      1.973654   9 H  s         
   144     -1.934963   8 H  s                 5     -1.852337   1 O  s         
   117      1.739824   4 C  d  2             41      1.473894   2 C  py        
    44      1.276381   2 C  py               72      1.173059   3 C  py        
 
 Vector   60  Occ=0.000000D+00  E= 1.080426D+00
              MO Center=  6.7D-01,  4.7D-02, -6.3D-02, r^2= 4.1D+00
   Bfn.  Coefficient  Atom+Function         Bfn.  Coefficient  Atom+Function  
  ----- ------------  ---------------      ----- ------------  ---------------
    66      4.311525   3 C  s                98     -4.029652   4 C  s         
    97     -3.786579   4 C  s                45     -3.683449   2 C  pz        
    36      3.165050   2 C  s                41     -2.741238   2 C  py        
   104     -2.562568   4 C  pz               72     -2.485799   3 C  py        
    42     -2.447987   2 C  pz               40      2.336067   2 C  px        
 
 Vector   61  Occ=0.000000D+00  E= 1.106247D+00
              MO Center=  3.7D-01,  8.7D-02,  7.9D-02, r^2= 3.8D+00
   Bfn.  Coefficient  Atom+Function         Bfn.  Coefficient  Atom+Function  
  ----- ------------  ---------------      ----- ------------  ---------------
    36      7.983465   2 C  s                67     -5.645122   3 C  s         
    98     -3.139492   4 C  s                66      2.284882   3 C  s         
   126     -2.066022   5 H  s                45     -2.051917   2 C  pz        
   132      1.707076   6 H  s                72     -1.669980   3 C  py        
    41     -1.575699   2 C  py               53      1.508950   2 C  d  0      
 
 Vector   62  Occ=0.000000D+00  E= 1.147268D+00
              MO Center=  6.3D-01, -4.7D-03, -5.2D-02, r^2= 3.5D+00
   Bfn.  Coefficient  Atom+Function         Bfn.  Coefficient  Atom+Function  
  ----- ------------  ---------------      ----- ------------  ---------------
    67      5.036354   3 C  s                36     -3.808457   2 C  s         
    44     -2.390372   2 C  py               97     -1.883210   4 C  s         
   126      1.746057   5 H  s                54      1.584191   2 C  d  1      
    43      1.545366   2 C  px               55      1.512882   2 C  d  2      
    42     -1.474136   2 C  pz               75     -1.437912   3 C  py        
 
 Vector   63  Occ=0.000000D+00  E= 1.217469D+00
              MO Center=  5.6D-01,  2.1D-01, -1.4D-01, r^2= 3.8D+00
   Bfn.  Coefficient  Atom+Function         Bfn.  Coefficient  Atom+Function  
  ----- ------------  ---------------      ----- ------------  ---------------
    36      7.023614   2 C  s                66     -5.281807   3 C  s         
    97     -3.525876   4 C  s                35      3.391538   2 C  s         
    67     -3.380261   3 C  s                72      2.005889   3 C  py        
    51     -1.801889   2 C  d -2             52      1.718411   2 C  d -1      
   138      1.664717   7 H  s                41      1.563198   2 C  py        
 
 Vector   64  Occ=0.000000D+00  E= 1.350118D+00
              MO Center=  3.4D-01,  5.4D-01,  2.2D-01, r^2= 3.6D+00
   Bfn.  Coefficient  Atom+Function         Bfn.  Coefficient  Atom+Function  
  ----- ------------  ---------------      ----- ------------  ---------------
    66      4.586027   3 C  s                35      3.944192   2 C  s         
    67     -3.249234   3 C  s                36     -2.547126   2 C  s         
    65     -2.405519   3 C  s               132     -2.052991   6 H  s         
   133      1.443272   6 H  s                34     -1.423815   2 C  s         
    72      1.425122   3 C  py              139      1.081369   7 H  s         
 
 Vector   65  Occ=0.000000D+00  E= 1.415977D+00
              MO Center=  1.4D-01,  5.3D-01, -3.8D-02, r^2= 3.3D+00
   Bfn.  Coefficient  Atom+Function         Bfn.  Coefficient  Atom+Function  
  ----- ------------  ---------------      ----- ------------  ---------------
    36      4.228187   2 C  s                67     -3.701864   3 C  s         
    66      3.560059   3 C  s                35     -3.538531   2 C  s         
    73     -2.377404   3 C  pz              138     -2.242115   7 H  s         
   139      2.215431   7 H  s               126      1.769688   5 H  s         
    76      1.749827   3 C  pz               34      1.462335   2 C  s         
 
 Vector   66  Occ=0.000000D+00  E= 1.432315D+00
              MO Center=  1.0D+00, -4.3D-01, -1.1D+00, r^2= 3.6D+00
   Bfn.  Coefficient  Atom+Function         Bfn.  Coefficient  Atom+Function  
  ----- ------------  ---------------      ----- ------------  ---------------
    98      9.738725   4 C  s                97     -7.414724   4 C  s         
    96      2.990415   4 C  s                36     -2.503590   2 C  s         
   145     -2.384388   8 H  s               151     -2.198196   9 H  s         
   157     -2.025872  10 H  s               144      1.750281   8 H  s         
   150      1.539254   9 H  s               104      1.433807   4 C  pz        
 
 Vector   67  Occ=0.000000D+00  E= 1.443377D+00
              MO Center=  4.2D-01, -2.0D-02, -2.1D-01, r^2= 4.3D+00
   Bfn.  Coefficient  Atom+Function         Bfn.  Coefficient  Atom+Function  
  ----- ------------  ---------------      ----- ------------  ---------------
    66      4.522466   3 C  s                98      3.541157   4 C  s         
    35     -3.177330   2 C  s                67     -3.133569   3 C  s         
    36      1.959313   2 C  s               133      1.892376   6 H  s         
    45      1.878671   2 C  pz               97     -1.761986   4 C  s         
    76     -1.654587   3 C  pz               65     -1.614374   3 C  s         
 
 Vector   68  Occ=0.000000D+00  E= 1.446846D+00
              MO Center=  3.2D-01, -3.6D-02, -1.4D-01, r^2= 3.1D+00
   Bfn.  Coefficient  Atom+Function         Bfn.  Coefficient  Atom+Function  
  ----- ------------  ---------------      ----- ------------  ---------------
    98      5.551298   4 C  s                97     -3.116058   4 C  s         
    36     -2.716607   2 C  s                45      2.062933   2 C  pz        
     5      1.908585   1 O  s                35     -1.405405   2 C  s         
    96      1.305845   4 C  s               127     -1.290583   5 H  s         
    42     -0.980483   2 C  pz               44     -0.980448   2 C  py        
 
 Vector   69  Occ=0.000000D+00  E= 1.473782D+00
              MO Center=  9.1D-01, -2.7D-01, -9.4D-01, r^2= 3.6D+00
   Bfn.  Coefficient  Atom+Function         Bfn.  Coefficient  Atom+Function  
  ----- ------------  ---------------      ----- ------------  ---------------
    66      2.290660   3 C  s                67     -1.371153   3 C  s         
     5     -1.195491   1 O  s                36      1.161807   2 C  s         
    65     -0.989062   3 C  s               133      0.961385   6 H  s         
    71     -0.950677   3 C  px              132     -0.864221   6 H  s         
    97      0.857836   4 C  s               103      0.860080   4 C  py        
 
 Vector   70  Occ=0.000000D+00  E= 1.477613D+00
              MO Center=  9.9D-01, -3.9D-01, -1.0D+00, r^2= 3.3D+00
   Bfn.  Coefficient  Atom+Function         Bfn.  Coefficient  Atom+Function  
  ----- ------------  ---------------      ----- ------------  ---------------
    36      2.805360   2 C  s               156     -2.780765  10 H  s         
   157      2.117841  10 H  s               102     -2.025498   4 C  px        
   104     -1.810805   4 C  pz              103      1.787553   4 C  py        
   126      1.770610   5 H  s                66     -1.522216   3 C  s         
    35     -1.430830   2 C  s               127     -1.410285   5 H  s         
 
 Vector   71  Occ=0.000000D+00  E= 1.511833D+00
              MO Center=  3.2D-01,  1.6D-01, -3.1D-01, r^2= 4.0D+00
   Bfn.  Coefficient  Atom+Function         Bfn.  Coefficient  Atom+Function  
  ----- ------------  ---------------      ----- ------------  ---------------
    98      2.756909   4 C  s               144      1.848517   8 H  s         
   102     -1.583295   4 C  px              145     -1.422568   8 H  s         
    45      1.297465   2 C  pz              103     -1.299524   4 C  py        
    97     -1.208464   4 C  s                36     -0.953148   2 C  s         
    66      0.946698   3 C  s               150     -0.911371   9 H  s         
 
 Vector   72  Occ=0.000000D+00  E= 1.543048D+00
              MO Center=  3.7D-01,  4.6D-01, -2.0D-01, r^2= 4.6D+00
   Bfn.  Coefficient  Atom+Function         Bfn.  Coefficient  Atom+Function  
  ----- ------------  ---------------      ----- ------------  ---------------
    36      4.394541   2 C  s                35     -3.657351   2 C  s         
    98     -3.505125   4 C  s                97      3.050549   4 C  s         
    67     -2.560459   3 C  s                73      2.146561   3 C  pz        
   132     -1.768421   6 H  s               133      1.481139   6 H  s         
   102     -1.423055   4 C  px              138      1.341784   7 H  s         
 
 Vector   73  Occ=0.000000D+00  E= 1.578965D+00
              MO Center=  4.6D-01,  1.0D-03, -6.5D-02, r^2= 3.2D+00
   Bfn.  Coefficient  Atom+Function         Bfn.  Coefficient  Atom+Function  
  ----- ------------  ---------------      ----- ------------  ---------------
    35      3.345782   2 C  s                36     -2.773685   2 C  s         
    97     -2.217144   4 C  s                40     -1.823172   2 C  px        
    67      1.797130   3 C  s               126      1.733313   5 H  s         
    42     -1.607317   2 C  pz               34     -1.429671   2 C  s         
    72      1.411704   3 C  py               98      1.325186   4 C  s         
 
 Vector   74  Occ=0.000000D+00  E= 1.596076D+00
              MO Center=  3.8D-01,  3.4D-01, -1.7D-01, r^2= 3.4D+00
   Bfn.  Coefficient  Atom+Function         Bfn.  Coefficient  Atom+Function  
  ----- ------------  ---------------      ----- ------------  ---------------
    66     -5.790237   3 C  s                35      5.548474   2 C  s         
    36     -5.561329   2 C  s                67      4.226925   3 C  s         
    41      3.954323   2 C  py               72      2.702442   3 C  py        
    71     -2.642269   3 C  px               40     -2.351881   2 C  px        
    98      1.836199   4 C  s                82      1.678131   3 C  d -2      
 
 Vector   75  Occ=0.000000D+00  E= 1.640949D+00
              MO Center=  4.6D-01,  1.9D-01, -2.6D-02, r^2= 3.7D+00
   Bfn.  Coefficient  Atom+Function         Bfn.  Coefficient  Atom+Function  
  ----- ------------  ---------------      ----- ------------  ---------------
    66      2.606722   3 C  s                35      2.281011   2 C  s         
    98      1.984360   4 C  s                 5     -1.748982   1 O  s         
    97     -1.719570   4 C  s                67     -1.399820   3 C  s         
   104     -1.169636   4 C  pz              144      1.095962   8 H  s         
   103     -1.058683   4 C  py              150     -1.040813   9 H  s         
 
 Vector   76  Occ=0.000000D+00  E= 1.693863D+00
              MO Center=  5.9D-01,  9.1D-02, -4.3D-01, r^2= 3.6D+00
   Bfn.  Coefficient  Atom+Function         Bfn.  Coefficient  Atom+Function  
  ----- ------------  ---------------      ----- ------------  ---------------
    97     -5.537934   4 C  s                35      5.257241   2 C  s         
   104     -2.864612   4 C  pz               42     -2.774924   2 C  pz        
   102      1.892605   4 C  px               40      1.712654   2 C  px        
    66     -1.686111   3 C  s                34     -1.504678   2 C  s         
    96      1.496164   4 C  s                54      1.095568   2 C  d  1      
 
 Vector   77  Occ=0.000000D+00  E= 1.702734D+00
              MO Center= -6.1D-02,  3.5D-01, -6.5D-02, r^2= 3.7D+00
   Bfn.  Coefficient  Atom+Function         Bfn.  Coefficient  Atom+Function  
  ----- ------------  ---------------      ----- ------------  ---------------
     5      3.831607   1 O  s                72      3.379893   3 C  py        
    36     -2.582124   2 C  s                97      2.194571   4 C  s         
   138     -1.989419   7 H  s                66     -1.945370   3 C  s         
    42      1.713302   2 C  pz               41      1.539012   2 C  py        
    12      1.478182   1 O  px              104      1.467997   4 C  pz        
 
 Vector   78  Occ=0.000000D+00  E= 1.792702D+00
              MO Center=  3.8D-01,  2.9D-01,  1.3D-02, r^2= 3.5D+00
   Bfn.  Coefficient  Atom+Function         Bfn.  Coefficient  Atom+Function  
  ----- ------------  ---------------      ----- ------------  ---------------
    35      3.303679   2 C  s                97     -2.844617   4 C  s         
    36      1.800944   2 C  s                45     -1.335141   2 C  pz        
   104     -1.164756   4 C  pz               72      1.130962   3 C  py        
    42     -1.099474   2 C  pz               67     -1.064927   3 C  s         
   102      1.021343   4 C  px               96      0.905921   4 C  s         
 
 Vector   79  Occ=0.000000D+00  E= 1.815984D+00
              MO Center= -6.7D-01,  1.6D-01,  2.0D-01, r^2= 2.5D+00
   Bfn.  Coefficient  Atom+Function         Bfn.  Coefficient  Atom+Function  
  ----- ------------  ---------------      ----- ------------  ---------------
    35      4.170053   2 C  s                 5     -3.386977   1 O  s         
    40     -2.364963   2 C  px               41      2.019263   2 C  py        
    72      1.885167   3 C  py               66     -1.715701   3 C  s         
    71     -1.686527   3 C  px               12     -1.430405   1 O  px        
    67      1.061256   3 C  s               132     -1.014341   6 H  s         
 
 Vector   80  Occ=0.000000D+00  E= 1.842290D+00
              MO Center=  8.4D-02,  2.4D-01, -3.6D-02, r^2= 3.7D+00
   Bfn.  Coefficient  Atom+Function         Bfn.  Coefficient  Atom+Function  
  ----- ------------  ---------------      ----- ------------  ---------------
    35      1.144240   2 C  s                66      1.121517   3 C  s         
    36     -1.059027   2 C  s                41     -1.027098   2 C  py        
   156     -0.905128  10 H  s               104     -0.793455   4 C  pz        
    97     -0.647398   4 C  s               126     -0.648142   5 H  s         
   157      0.641703  10 H  s                40      0.635639   2 C  px        
 
 Vector   81  Occ=0.000000D+00  E= 1.867692D+00
              MO Center=  5.6D-01,  1.4D-01, -4.7D-01, r^2= 4.0D+00
   Bfn.  Coefficient  Atom+Function         Bfn.  Coefficient  Atom+Function  
  ----- ------------  ---------------      ----- ------------  ---------------
    35      6.991816   2 C  s                66     -4.540579   3 C  s         
    72      3.583190   3 C  py               97     -3.347912   4 C  s         
    36      1.978417   2 C  s               104     -1.934308   4 C  pz        
    34     -1.681246   2 C  s                41      1.620526   2 C  py        
    67     -1.431749   3 C  s                45     -1.343099   2 C  pz        
 
 Vector   82  Occ=0.000000D+00  E= 1.918315D+00
              MO Center=  3.1D-01, -1.6D-01, -3.2D-01, r^2= 3.2D+00
   Bfn.  Coefficient  Atom+Function         Bfn.  Coefficient  Atom+Function  
  ----- ------------  ---------------      ----- ------------  ---------------
    36      1.627458   2 C  s                98     -1.510159   4 C  s         
    45     -1.323896   2 C  pz               97     -1.305124   4 C  s         
   103     -1.253154   4 C  py               35      0.972443   2 C  s         
    42     -0.877268   2 C  pz               66     -0.753552   3 C  s         
   150     -0.751451   9 H  s               104     -0.702372   4 C  pz        
 
 Vector   83  Occ=0.000000D+00  E= 1.989721D+00
              MO Center=  6.9D-01, -1.1D-01, -2.0D-01, r^2= 3.3D+00
   Bfn.  Coefficient  Atom+Function         Bfn.  Coefficient  Atom+Function  
  ----- ------------  ---------------      ----- ------------  ---------------
    35      2.943455   2 C  s                66     -2.659854   3 C  s         
    98      2.515234   4 C  s                40     -2.347399   2 C  px        
    72      1.888006   3 C  py               41      1.736118   2 C  py        
    43     -1.531233   2 C  px               67     -1.503271   3 C  s         
    71     -1.505792   3 C  px              126      1.236074   5 H  s         
 
 Vector   84  Occ=0.000000D+00  E= 1.994989D+00
              MO Center=  7.8D-01, -2.0D-01, -9.1D-01, r^2= 3.4D+00
   Bfn.  Coefficient  Atom+Function         Bfn.  Coefficient  Atom+Function  
  ----- ------------  ---------------      ----- ------------  ---------------
    36      4.719639   2 C  s                98     -4.716701   4 C  s         
    35     -2.786186   2 C  s                45     -2.068942   2 C  pz        
   107     -1.272377   4 C  pz               67     -1.244322   3 C  s         
   156      1.236883  10 H  s                66      1.210773   3 C  s         
   104      1.060605   4 C  pz               34      1.025793   2 C  s         
 
 Vector   85  Occ=0.000000D+00  E= 2.092849D+00
              MO Center= -8.0D-02,  1.9D-01,  1.3D-02, r^2= 3.5D+00
   Bfn.  Coefficient  Atom+Function         Bfn.  Coefficient  Atom+Function  
  ----- ------------  ---------------      ----- ------------  ---------------
    36      2.601979   2 C  s                98     -2.179997   4 C  s         
    67     -0.787174   3 C  s               138     -0.745417   7 H  s         
    35     -0.723437   2 C  s               156      0.716155  10 H  s         
    14     -0.617126   1 O  pz               45     -0.539439   2 C  pz        
   144      0.520219   8 H  s               105      0.512331   4 C  px        
 
 Vector   86  Occ=0.000000D+00  E= 2.100999D+00
              MO Center= -3.4D-01,  6.9D-02,  4.3D-02, r^2= 3.0D+00
   Bfn.  Coefficient  Atom+Function         Bfn.  Coefficient  Atom+Function  
  ----- ------------  ---------------      ----- ------------  ---------------
    36      5.579120   2 C  s                67     -5.575764   3 C  s         
    35     -3.502464   2 C  s                66      3.505444   3 C  s         
    41     -3.213534   2 C  py               71      2.838401   3 C  px        
    13      1.811309   1 O  py               82     -1.483739   3 C  d -2      
    43     -1.337491   2 C  px               55      1.343158   2 C  d  2      
 
 Vector   87  Occ=0.000000D+00  E= 2.168806D+00
              MO Center=  5.3D-01, -3.8D-02, -5.0D-01, r^2= 3.2D+00
   Bfn.  Coefficient  Atom+Function         Bfn.  Coefficient  Atom+Function  
  ----- ------------  ---------------      ----- ------------  ---------------
    98     -2.086140   4 C  s                67      1.943988   3 C  s         
    35      1.306369   2 C  s                73     -1.045489   3 C  pz        
    36     -0.964083   2 C  s                44     -0.890534   2 C  py        
   156      0.893111  10 H  s                43      0.861352   2 C  px        
    40     -0.841644   2 C  px               42      0.745404   2 C  pz        
 
 Vector   88  Occ=0.000000D+00  E= 2.199148D+00
              MO Center=  3.8D-01,  2.2D-01, -2.5D-01, r^2= 3.6D+00
   Bfn.  Coefficient  Atom+Function         Bfn.  Coefficient  Atom+Function  
  ----- ------------  ---------------      ----- ------------  ---------------
    98      2.273438   4 C  s                36     -1.283310   2 C  s         
    45      1.079542   2 C  pz               76     -0.929385   3 C  pz        
   132      0.806149   6 H  s                42     -0.769941   2 C  pz        
    97     -0.702293   4 C  s               117     -0.679470   4 C  d  2      
   103     -0.643611   4 C  py              138     -0.591499   7 H  s         
 
 Vector   89  Occ=0.000000D+00  E= 2.230206D+00
              MO Center=  6.5D-01, -2.6D-03, -7.9D-02, r^2= 3.5D+00
   Bfn.  Coefficient  Atom+Function         Bfn.  Coefficient  Atom+Function  
  ----- ------------  ---------------      ----- ------------  ---------------
    36      3.376583   2 C  s                67     -1.788592   3 C  s         
    98     -1.419281   4 C  s                 5     -1.131436   1 O  s         
    42     -1.085352   2 C  pz               72     -0.971292   3 C  py        
    35     -0.898502   2 C  s                66      0.876147   3 C  s         
    45     -0.748428   2 C  pz               43     -0.740894   2 C  px        
 
 Vector   90  Occ=0.000000D+00  E= 2.242901D+00
              MO Center=  8.0D-01, -3.0D-01, -8.4D-01, r^2= 3.5D+00
   Bfn.  Coefficient  Atom+Function         Bfn.  Coefficient  Atom+Function  
  ----- ------------  ---------------      ----- ------------  ---------------
   150      1.305570   9 H  s                36      1.042567   2 C  s         
   144     -0.889812   8 H  s                66     -0.789124   3 C  s         
   117      0.736065   4 C  d  2             67     -0.728354   3 C  s         
    98     -0.722019   4 C  s                72      0.705507   3 C  py        
   149     -0.543399   9 H  s                83      0.540018   3 C  d -1      
 
 Vector   91  Occ=0.000000D+00  E= 2.265939D+00
              MO Center=  9.6D-01, -2.8D-01, -1.1D+00, r^2= 3.0D+00
   Bfn.  Coefficient  Atom+Function         Bfn.  Coefficient  Atom+Function  
  ----- ------------  ---------------      ----- ------------  ---------------
    66      2.463642   3 C  s                36      1.813908   2 C  s         
    41     -1.604615   2 C  py               67     -1.348878   3 C  s         
    35     -1.307092   2 C  s                72     -1.125264   3 C  py        
    98     -1.018870   4 C  s               156      0.967901  10 H  s         
    71      0.951562   3 C  px              126     -0.921291   5 H  s         
 
 Vector   92  Occ=0.000000D+00  E= 2.287883D+00
              MO Center=  5.1D-01,  1.3D-01, -2.1D-01, r^2= 3.6D+00
   Bfn.  Coefficient  Atom+Function         Bfn.  Coefficient  Atom+Function  
  ----- ------------  ---------------      ----- ------------  ---------------
    98      3.718639   4 C  s                66      2.427224   3 C  s         
[...]
    21     -0.858415   1 O  d -1             42     -0.839461   2 C  pz        
    97     -0.765615   4 C  s                45     -0.725462   2 C  pz        
    67     -0.542043   3 C  s                98     -0.538383   4 C  s         
   102      0.520238   4 C  px                5     -0.502460   1 O  s         
 
 Vector  154  Occ=0.000000D+00  E= 6.671711D+00
              MO Center= -8.8D-01, -1.8D-01,  2.0D-01, r^2= 5.7D-01
   Bfn.  Coefficient  Atom+Function         Bfn.  Coefficient  Atom+Function  
  ----- ------------  ---------------      ----- ------------  ---------------
    18      1.059103   1 O  d  1             23     -1.022112   1 O  d  1      
    97     -0.861279   4 C  s                42     -0.768180   2 C  pz        
    35      0.753173   2 C  s               102      0.641353   4 C  px        
    54     -0.533743   2 C  d  1             16     -0.407944   1 O  d -1      
    14      0.402638   1 O  pz               21      0.394559   1 O  d -1      
 
 Vector  155  Occ=0.000000D+00  E= 6.841704D+00
              MO Center= -8.9D-01, -1.9D-01,  2.0D-01, r^2= 5.9D-01
   Bfn.  Coefficient  Atom+Function         Bfn.  Coefficient  Atom+Function  
  ----- ------------  ---------------      ----- ------------  ---------------
     5      2.161027   1 O  s                40      1.776488   2 C  px        
     9      1.373605   1 O  px               97     -1.297245   4 C  s         
     4      1.212507   1 O  s                20      1.047665   1 O  d -2      
    42     -0.981228   2 C  pz               12      0.860686   1 O  px        
    35     -0.855620   2 C  s                22     -0.845284   1 O  d  0      
 
 Vector  156  Occ=0.000000D+00  E= 7.055238D+00
              MO Center= -8.9D-01, -1.9D-01,  2.0D-01, r^2= 6.4D-01
   Bfn.  Coefficient  Atom+Function         Bfn.  Coefficient  Atom+Function  
  ----- ------------  ---------------      ----- ------------  ---------------
    66     -3.207813   3 C  s                35      3.092416   2 C  s         
    40     -2.740277   2 C  px               72      2.702325   3 C  py        
    24     -1.574528   1 O  d  2             36      1.356351   2 C  s         
    10      1.267111   1 O  py               67     -1.212055   3 C  s         
    19      1.017844   1 O  d  2             41      0.854998   2 C  py        
 
 Vector  157  Occ=0.000000D+00  E= 2.194723D+01
              MO Center=  1.0D-02,  8.6D-01,  1.4D-01, r^2= 9.6D-01
   Bfn.  Coefficient  Atom+Function         Bfn.  Coefficient  Atom+Function  
  ----- ------------  ---------------      ----- ------------  ---------------
    64      1.627475   3 C  s                65     -1.401081   3 C  s         
    63     -1.281857   3 C  s                67     -1.195754   3 C  s         
    98      0.960295   4 C  s                95     -0.618836   4 C  s         
    35      0.568438   2 C  s                40     -0.493282   2 C  px        
    94      0.489872   4 C  s                96      0.488077   4 C  s         
 
 Vector  158  Occ=0.000000D+00  E= 2.198104D+01
              MO Center=  9.6D-01, -3.4D-01, -8.0D-01, r^2= 9.0D-01
   Bfn.  Coefficient  Atom+Function         Bfn.  Coefficient  Atom+Function  
  ----- ------------  ---------------      ----- ------------  ---------------
    95      1.481742   4 C  s                96     -1.361723   4 C  s         
    98     -1.214078   4 C  s                94     -1.165845   4 C  s         
    36     -0.980831   2 C  s                34     -0.971062   2 C  s         
    33      0.885620   2 C  s                67      0.748816   3 C  s         
    32     -0.692198   2 C  s                65     -0.492128   3 C  s         
 
 Vector  159  Occ=0.000000D+00  E= 2.211015D+01
              MO Center=  6.1D-01, -9.7D-02, -8.8D-02, r^2= 7.4D-01
   Bfn.  Coefficient  Atom+Function         Bfn.  Coefficient  Atom+Function  
  ----- ------------  ---------------      ----- ------------  ---------------
    36      2.200536   2 C  s                33     -1.517155   2 C  s         
    34      1.499329   2 C  s                98     -1.319858   4 C  s         
    35     -1.283628   2 C  s                32      1.187781   2 C  s         
    67     -1.180499   3 C  s                95      0.742751   4 C  s         
    96     -0.662958   4 C  s                97      0.664837   4 C  s         
 
 Vector  160  Occ=0.000000D+00  E= 4.340687D+01
              MO Center= -8.8D-01, -1.8D-01,  2.0D-01, r^2= 1.2D-01
   Bfn.  Coefficient  Atom+Function         Bfn.  Coefficient  Atom+Function  
  ----- ------------  ---------------      ----- ------------  ---------------
     4      2.480407   1 O  s                 3     -1.867548   1 O  s         
     2      1.731021   1 O  s                 1     -1.395760   1 O  s         
     5     -0.889350   1 O  s                36      0.826581   2 C  s         
     9      0.548411   1 O  px               66     -0.527887   3 C  s         
    72      0.461384   3 C  py               40      0.434065   2 C  px        
 

 center of mass
 --------------
 x =   0.30619297 y =   0.09486547 z =  -0.27792440

 moments of inertia (a.u.)
 ------------------
         198.766629198060          44.762225998087          83.357529216274
          44.762225998087         248.033258384187         -52.264735970480
          83.357529216274         -52.264735970480         238.857017143451
 
     Multipole analysis of the density
     ---------------------------------
 
     L   x y z        total         alpha         beta         nuclear
     -   - - -        -----         -----         ----         -------
     0   0 0 0     -0.000000    -16.000000    -16.000000     32.000000
 
     1   1 0 0      0.710659     -6.223680     -6.223680     13.158018
     1   0 1 0      0.331403     -1.616302     -1.616302      3.564008
     1   0 0 1     -0.058701      5.314624      5.314624    -10.687950
 
     2   2 0 0    -20.013979    -54.490054    -54.490054     88.966129
     2   1 1 0     -1.090567     13.642017     13.642017    -28.374601
     2   1 0 1      0.175361     26.347286     26.347286    -52.519210
     2   0 2 0    -17.844732    -40.279487    -40.279487     62.714243
     2   0 1 1      0.247150    -15.300998    -15.300998     30.849145
     2   0 0 2    -18.197039    -45.563787    -45.563787     72.930535
 
 *** CALLING NEW AORESP DRIVER FOR CLOSED AND OPEN SHELLS ***
 Entering AOResponse driver routine


--------------------------------------------------------------------------------

          ****************
          *** RESPONSE ***
          ****************

 Response module for NWChem and dynamic CPKS solver
 developed by J. Autschbach and coworkers, SUNY Buffalo
 The methodology used in this program is described in 
 ChemPhysChem 12 (2011), 3224-3235 (main reference)
 J. Chem. Phys. 123 (2005), 114103
 J. Chem. Phys. 122 (2005), 224115
 J. Chem. Phys. 122 (2005), 074105
 Comp. Lett. 3 (2007), 131-150 (contact JA for a copy)
 Please cite this work in publications based on results
 obtained with this code. Thank you!

 For extension of response module to open shell
 calculations please acknowledge:
 F. Aquino, Northwestern University, Schatz Rsrch Group
 The update to the methodology is described in
 J. Phys. Chem. A 118 (2014) 517-525



          -----------------------------------------------
          Solving response equations for perturbing field
          -----------------------------------------------

 number of frequencies:     1
 frequency in a.u.:  0.9319600E-01
 Perturbing field: electric
 Using GIAO formalism for OptRot
 Adding quadrupole terms to OptRot
 to create an origin in dependent tensor.
 Using El. Dipole Length Gauge
 
 Applying DAMPING constant of  0.003700 a.u.
 
 Setting up CPKS
 with frequency omega =      0.09319600 a.u.
 and a damping of            0.00370000 a.u.

 
                            NWChem Dynamic CPHF Module
                            --------------------------
 
 
    scftype = RHF 
    nclosed =   16
      nopen =    0
  variables =     9216
  num. vecs =        3
  tolerance =   1.0D-07
  max. iter =  100

 SCF residual:   4.284518988810362E-006


Iterative solution of linear equations
  No. of variables     4608
  No. of equations        3
  Maximum subspace       99
       Convergence  1.0D-07
        Start time     86.6


   iter   nsub   residual    time 
   ----  ------  --------  --------- 
 dft_CPHF2_read: failed to open
 ./methyloxirane_blyp-def2-tzvp_488.9_29.inp.aoresp_fiao_f1
     1      3    4.11D+00     130.9
     2      6    2.74D+00     175.4
     3      9    2.36D-01     219.8
     4     12    5.52D-02     264.1
     5     15    1.02D-02     308.5
     6     18    1.38D-03     352.9
     7     21    1.50D-04     397.2
     8     24    1.43D-05     441.6
     9     27    1.36D-06     485.9
    10     30    4.86D-07     530.5
    11     33    1.32D-08     574.9

 Calculating some arrays needed for GIAO optical rotation

    0 giaofock schwarz done =      92.38%
    0 giaofock schwarz done =      93.08%
 aor_r1_tensor_giao: roadata output requested
 dip-quad polarizability Re:

              1        2        3        4        5        6      
    1   77.0414  -6.4601 -27.5560  -4.1876   1.4911   9.2994
    2  -11.9268  25.5502   3.4455  23.3748 -21.5286   4.4550
    3   -6.7071   1.2804  39.2564  -0.1947  14.2107 -40.5672
 traceless dip-quad polarizability:

              1        2        3      
    1   74.4855  -9.6902 -41.3340
    2   -9.6902 -47.3580   2.2366
    3  -41.3340   2.2366 -27.1275

              1        2        3      
    1  -25.8417  38.3254   5.1683
    2   38.3254  27.1107 -32.2929
    3    5.1683 -32.2929  -1.2690

              1        2        3      
    1   13.6738   1.9206  58.8846
    2    1.9206  23.4425  21.3161
    3   58.8846  21.3161 -37.1163

 roa begin

 alpha real:
 XX       0.4111796935467E+02
 XY      -0.5015598355318E+01
 XZ      -0.2977250229468E+01
 YX      -0.5015598360002E+01
 YY       0.4387755339044E+02
 YZ       0.3139513197818E+01
 ZX      -0.2977250228727E+01
 ZY       0.3139513207984E+01
 ZZ       0.4138905271066E+02

 alpha im:
 XX       0.1115346469364E+00
 XY      -0.2890525146122E-01
 XZ      -0.1094287734713E-01
 YX      -0.2890524549581E-01
 YY       0.1279882159642E+00
 YZ       0.1820704487658E-01
 ZX      -0.1094287187117E-01
 ZY       0.1820704518899E-01
 ZZ       0.1222033668183E+00

 beta real:
 XX      -0.1430263709118E+00
 XY       0.9387758445967E+00
 XZ       0.1972642993155E+00
 YX      -0.8945397532274E+00
 YY       0.1383856470495E+00
 YZ      -0.1526077918837E+01
 ZX      -0.4838124650337E+00
 ZY       0.1859721076637E+01
 ZZ       0.2863104226250E-02

 G-prime = -omega beta(real):
 XX      -0.1430263709118E+00
 XY       0.9387758445967E+00
 XZ       0.1972642993155E+00
 YX      -0.8945397532274E+00
 YY       0.1383856470495E+00
 YZ      -0.1526077918837E+01
 ZX      -0.4838124650337E+00
 ZY       0.1859721076637E+01
 ZZ       0.2863104226250E-02

 beta im:
 XX      -0.6167329538387E-02
 XY       0.1339466608023E-01
 XZ       0.2656656010907E-02
 YX      -0.7956555528289E-02
 YY       0.4631908243375E-02
 YZ      -0.2284139866308E-01
 ZX      -0.1376239472806E-01
 ZY       0.3978330227095E-01
 ZZ       0.8535614964154E-03

 G-prime = -omega beta(imag):
 XX      -0.6167329538387E-02
 XY       0.1339466608023E-01
 XZ       0.2656656010907E-02
 YX      -0.7956555528289E-02
 YY       0.4631908243375E-02
 YZ      -0.2284139866308E-01
 ZX      -0.1376239472806E-01
 ZY       0.3978330227095E-01
 ZZ       0.8535614964154E-03

 dipole-quadrupole real (Cartesian):
 XXX      0.7704143700630E+02
 XXY     -0.6460127100451E+01
 XXZ     -0.2755599081748E+02
 XYY     -0.4187601341616E+01
 XYZ      0.1491076504121E+01
 XZZ      0.9299416994139E+01
 YXX     -0.1192679445647E+02
 YXY      0.2555024410757E+02
 YXZ      0.3445542187987E+01
 YYY      0.2337481885813E+02
 YYZ     -0.2152856845443E+02
 YZZ      0.4455026426640E+01
 ZXX     -0.6707144048385E+01
 ZXY      0.1280404072362E+01
 ZXZ      0.3925638737457E+02
 ZYY     -0.1946610406908E+00
 ZYZ      0.1421073509434E+02
 ZZZ     -0.4056720012022E+02

 dipole-quadrupole imag (Cartesian):
 XXX      0.2691880682109E+00
 XXY     -0.3590583511232E-01
 XXZ     -0.7652460708297E-01
 XYY     -0.2695744417179E-01
 XYZ      0.3947507046020E-02
 XZZ      0.6139357164185E-01
 YXX     -0.5688636418748E-01
 YXY      0.6205745627218E-01
 YXZ      0.1986634598438E-01
 YYY      0.9214596344403E-01
 YYZ     -0.6062309258292E-01
 YZZ      0.1293726672055E-01
 ZXX     -0.3428981682036E-01
 ZXY      0.1184456354651E-02
 ZXZ      0.1444961473009E+00
 ZYY      0.4940374907358E-02
 ZYZ      0.6853371540824E-01
 ZZZ     -0.9198732205262E-01

 dipole-quadrupole (traceless):
 XXX      0.7448552918004E+02
 XXY     -0.9690190650677E+01
 XXZ     -0.4133398622623E+02
 XYY     -0.4735802834184E+02
 XYZ      0.2236614756181E+01
 XZZ     -0.2712750083820E+02
 YXX     -0.2584171709885E+02
 YXY      0.3832536616136E+02
 YXZ      0.5168313281980E+01
 YYY      0.2711070287304E+02
 YYZ     -0.3229285268164E+02
 YZZ     -0.1268985774191E+01
 ZXX      0.1367378653207E+02
 ZXY      0.1920606108543E+01
 ZXZ      0.5888458106186E+02
 ZYY      0.2344251104361E+02
 ZYZ      0.2131610264150E+02
 ZZZ     -0.3711629757568E+02

 roa end


 Electric Dipole Response Matrix (nonzero elements):

              1        2        3      
    1   41.1180  -5.0156  -2.9773
    2   -5.0156  43.8776   3.1395
    3   -2.9773   3.1395  41.3891
 
 Imaginary part:

              1        2        3      
    1    0.1115  -0.0289  -0.0109
    2   -0.0289   0.1280   0.0182
    3   -0.0109   0.0182   0.1222

 ------------------------------------------
 average:        42.12819 + I       0.12058


 DFT Linear Response polarizability / au 
 Frequency  =       0.0931960 / au
 Wavelength =     488.8981609 / nm
              X              Y              Z
 -----------------------------------------------
 X      41.1179694     -5.0155984     -2.9772502
 Y      -5.0155984     43.8775534      3.1395132
 Z      -2.9772502      3.1395132     41.3890527
 -----------------------------------------------
 Eigenvalues =      37.2064076     49.8827018     39.2954661
 Isotropic   =      42.1281918
 Anisotropic =       9.6114889
 -----------------------------------------------
 *************************

 DFT Linear Response IMAG polarizability / au 
 Frequency  =       0.0931960 / au
 Wavelength =     488.8981609 / nm
              X              Y              Z
 -----------------------------------------------
 X       0.1115346     -0.0289053     -0.0109429
 Y      -0.0289052      0.1279882      0.0182070
 Z      -0.0109429      0.0182070      0.1222034
 -----------------------------------------------
 Eigenvalues =       0.0895101      0.1612603      0.1109558
 Isotropic   =       0.1205754
 Anisotropic =       0.0520850
 -----------------------------------------------
 *************************

 Magnetic Dipole Response Matrix (nonzero elements):
 Optical rotation tensor Beta
 (Buckingham-Dunn version including dipole-quadrupole terms)

              1        2        3      
    1    2.6173  -0.3586   0.4651
    2   -0.3586  -1.5902  -1.7352
    3    0.4651  -1.7352  -1.0080
 
 Imaginary part:

              1        2        3      
    1    0.0662  -0.1437  -0.0285
    2    0.0854  -0.0497   0.2451
    3    0.1477  -0.4269  -0.0092

 ------------------------------------------
 average:         0.00636 + I       0.00244

 Principal components and PAS (Real part)
                 -3.05870
                  2.76661
                  0.31116
 ------------------------
 average:         0.00636

              1        2        3      
    1   -0.0048   0.9691  -0.2465
    2    0.7628  -0.1559  -0.6275
    3    0.6466   0.1911   0.7385

 Chiral response tensor (Real part):

              1        2        3      
    1   -1.2991   0.1793  -0.2325
    2    0.1793   0.8046   0.8676
    3   -0.2325   0.8676   0.5135
 
 Principal components and PAS (Real part)
                  1.53889
                 -1.37377
                 -0.14604
 ------------------------
 average:         0.00636

              1        2        3      
    1   -0.0048   0.9691  -0.2465
    2    0.7628  -0.1559  -0.6275
    3    0.6466   0.1911   0.7385
 Exiting AOResponse driver routine

 Task  times  cpu:      555.9s     wall:      568.8s
 
 
                                NWChem Input Module
                                -------------------
 
 
 Summary of allocated global arrays
-----------------------------------
  No active global arrays



                         GA Statistics for process    0
                         ------------------------------

       create   destroy   get      put      acc     scatter   gather  read&inc
calls: 3294     3294     7.12e+06 3.14e+06 7.61e+05 2694        0     1194     
number of processes/call 1.01e+00 1.03e+00 1.43e+00 0.00e+00 0.00e+00
bytes total:             1.78e+09 1.26e+08 1.82e+09 1.84e+02 0.00e+00 9.55e+03
bytes remote:            7.64e+08 3.29e+07 1.06e+09 0.00e+00 0.00e+00 0.00e+00
Max memory consumed for GA by this process: 11242192 bytes
 
MA_summarize_allocated_blocks: starting scan ...
MA_summarize_allocated_blocks: scan completed: 0 heap blocks, 0 stack blocks
MA usage statistics:

	allocation statistics:
					      heap	     stack
					      ----	     -----
	current number of blocks	         0	         0
	maximum number of blocks	        24	        52
	current total bytes		         0	         0
	maximum total bytes		   7519840	  48969464
	maximum total K-bytes		      7520	     48970
	maximum total M-bytes		         8	        49
 
 
                                     CITATION
                                     --------
                Please cite the following reference when publishing
                           results obtained with NWChem:
 
                 M. Valiev, E.J. Bylaska, N. Govind, K. Kowalski,
              T.P. Straatsma, H.J.J. van Dam, D. Wang, J. Nieplocha,
                        E. Apra, T.L. Windus, W.A. de Jong
                 "NWChem: a comprehensive and scalable open-source
                  solution for large scale molecular simulations"
                      Comput. Phys. Commun. 181, 1477 (2010)
                           doi:10.1016/j.cpc.2010.04.018
 
                                      AUTHORS
                                      -------
          E. Apra, E. J. Bylaska, W. A. de Jong, N. Govind, K. Kowalski,
       T. P. Straatsma, M. Valiev, H. J. J. van Dam, D. Wang, T. L. Windus,
        J. Hammond, J. Autschbach, K. Bhaskaran-Nair, J. Brabec, K. Lopata,
    S. A. Fischer, S. Krishnamoorthy, M. Jacquelin, W. Ma, M. Klemm, O. Villa,
      Y. Chen, V. Anisimov, F. Aquino, S. Hirata, M. T. Hackler, V. Konjkov,
            D. Mejia-Rodriguez, T. Risthaus, M. Malagoli, A. Marenich,
   A. Otero-de-la-Roza, J. Mullin, P. Nichols, R. Peverati, J. Pittner, Y. Zhao,
        P.-D. Fan, A. Fonari, M. J. Williamson, R. J. Harrison, J. R. Rehr,
      M. Dupuis, D. Silverstein, D. M. A. Smith, J. Nieplocha, V. Tipparaju,
    M. Krishnan, B. E. Van Kuiken, A. Vazquez-Mayagoitia, L. Jensen, M. Swart,
      Q. Wu, T. Van Voorhis, A. A. Auer, M. Nooijen, L. D. Crosby, E. Brown,
      G. Cisneros, G. I. Fann, H. Fruchtl, J. Garza, K. Hirao, R. A. Kendall,
      J. A. Nichols, K. Tsemekhman, K. Wolinski, J. Anchell, D. E. Bernholdt,
      P. Borowski, T. Clark, D. Clerc, H. Dachsel, M. J. O. Deegan, K. Dyall,
    D. Elwood, E. Glendening, M. Gutowski, A. C. Hess, J. Jaffe, B. G. Johnson,
     J. Ju, R. Kobayashi, R. Kutteh, Z. Lin, R. Littlefield, X. Long, B. Meng,
      T. Nakajima, S. Niu, L. Pollack, M. Rosing, K. Glaesemann, G. Sandrone,
      M. Stave, H. Taylor, G. Thomas, J. H. van Lenthe, A. T. Wong, Z. Zhang.

 Total times  cpu:      623.6s     wall:      637.7s
