 argument  1 = methyloxirane_blyp-def2-tzvp_488.9_07.inp
 


============================== echo of input deck ==============================
echo
start methyloxirane_blyp-def2-tzvp_488.9_07.inp
title "methyloxirane roa calculations at 488.9 nm, input generated in va  with delta_type=2"
charge 0



geometry units angstrom nocenter noautoz noautosym nucleus point;symmetry c1
 O -0.875601 -0.176289  0.205706
 C  0.576590 -0.158105  0.118935
 C -0.188538  1.082745  0.339693
 C  1.180032 -0.517561 -1.208597
 H  1.063878 -0.616885  0.986162
 H -0.233376  1.537301  1.332989
 H -0.317329  1.775936 -0.496803
 H  2.237824 -0.215665 -1.224918
 H  1.144643 -1.605787 -1.357559
 H  0.661398 -0.032970 -2.044854
end

basis spherical
* library def2-TZVP
end

 set prop:newaoresp 1
 set aor:roadata T
 set cphf:maxsub 100
 set cphf:acc 1.0d-10
 set cphf:maxiter 100

property
    response 1   0.093196
    bdtensor
    convergence 1e-7
    damping 0.0037
    giao
end

dft
 direct
 mult 1
 xc becke88 lyp
 iterations 250
 tolerances tight
 grid xfine
 convergence nolevelshifting
 convergence energy 1e-8
 convergence gradient 1e-7


end

task dft gradient
task dft property
================================================================================


                                         
                                         
 
 
              Northwest Computational Chemistry Package (NWChem) 6.8
              ------------------------------------------------------
 
 
                    Environmental Molecular Sciences Laboratory
                       Pacific Northwest National Laboratory
                                Richland, WA 99352
 
                              Copyright (c) 1994-2017
                       Pacific Northwest National Laboratory
                            Battelle Memorial Institute
 
             NWChem is an open-source computational chemistry package
                        distributed under the terms of the
                      Educational Community License (ECL) 2.0
             A copy of the license is included with this distribution
                              in the LICENSE.TXT file
 
                                  ACKNOWLEDGMENT
                                  --------------

            This software and its documentation were developed at the
            EMSL at Pacific Northwest National Laboratory, a multiprogram
            national laboratory, operated for the U.S. Department of Energy
            by Battelle under Contract Number DE-AC05-76RL01830. Support
            for this work was provided by the Department of Energy Office
            of Biological and Environmental Research, Office of Basic
            Energy Sciences, and the Office of Advanced Scientific Computing.


           Job information
           ---------------

    hostname        = cpn-f11-14-01.cbls.ccr.buffalo.edu
    program         = /util/academic/nwchem/nwchem-6.8/bin/LINUX64/nwchem
    date            = Fri Mar  1 09:54:10 2019

    compiled        = Tue_Nov_06_14:59:08_2018
    source          = /util/academic/nwchem/nwchem-6.8
    nwchem branch   = 6.8
    nwchem revision = v6.8-47-gdf6c956
    ga revision     = ga-5.6.3
    use scalapack   = F
    input           = methyloxirane_blyp-def2-tzvp_488.9_07.inp
    prefix          = methyloxirane_blyp-def2-tzvp_488.9_07.inp.
    data base       = ./methyloxirane_blyp-def2-tzvp_488.9_07.inp.db
    status          = startup
    nproc           =        7
    time left       =     -1s



           Memory information
           ------------------

    heap     =   13107196 doubles =    100.0 Mbytes
    stack    =   13107201 doubles =    100.0 Mbytes
    global   =   26214400 doubles =    200.0 Mbytes (distinct from heap & stack)
    total    =   52428797 doubles =    400.0 Mbytes
    verify   = yes
    hardfail = no 


           Directory information
           ---------------------
 
  0 permanent = .
  0 scratch   = .
 
 
 
 
                                NWChem Input Module
                                -------------------
 
 
                    methyloxirane roa calculations at 488.9 nm, input generated in va  with delta_type=2
                    ------------------------------------------

 Scaling coordinates for geometry "geometry" by  1.889725989
 (inverse scale =  0.529177249)

 
 
                             Geometry "geometry" -> ""
                             -------------------------
 
 Output coordinates in angstroms (scale by  1.889725989 to convert to a.u.)
 
  No.       Tag          Charge          X              Y              Z
 ---- ---------------- ---------- -------------- -------------- --------------
    1 O                    8.0000    -0.87560100    -0.17628900     0.20570600
    2 C                    6.0000     0.57659000    -0.15810500     0.11893500
    3 C                    6.0000    -0.18853800     1.08274500     0.33969300
    4 C                    6.0000     1.18003200    -0.51756100    -1.20859700
    5 H                    1.0000     1.06387800    -0.61688500     0.98616200
    6 H                    1.0000    -0.23337600     1.53730100     1.33298900
    7 H                    1.0000    -0.31732900     1.77593600    -0.49680300
    8 H                    1.0000     2.23782400    -0.21566500    -1.22491800
    9 H                    1.0000     1.14464300    -1.60578700    -1.35755900
   10 H                    1.0000     0.66139800    -0.03297000    -2.04485400
 
      Atomic Mass 
      ----------- 
 
      O                 15.994910
      C                 12.000000
      H                  1.007825
 

 Effective nuclear repulsion energy (a.u.)     123.8865283664

            Nuclear Dipole moment (a.u.) 
            ----------------------------
        X                 Y               Z
 ---------------- ---------------- ----------------
    13.1538799394     3.5415203574   -10.6942409385
 
 
            XYZ format geometry
            -------------------
    10
 geometry
 O                    -0.87560100    -0.17628900     0.20570600
 C                     0.57659000    -0.15810500     0.11893500
 C                    -0.18853800     1.08274500     0.33969300
 C                     1.18003200    -0.51756100    -1.20859700
 H                     1.06387800    -0.61688500     0.98616200
 H                    -0.23337600     1.53730100     1.33298900
 H                    -0.31732900     1.77593600    -0.49680300
 H                     2.23782400    -0.21566500    -1.22491800
 H                     1.14464300    -1.60578700    -1.35755900
 H                     0.66139800    -0.03297000    -2.04485400
 
 ==============================================================================
                                internuclear distances
 ------------------------------------------------------------------------------
       center one      |      center two      | atomic units |  angstroms
 ------------------------------------------------------------------------------
    2 C                |   1 O                |     2.74935  |     1.45489
    3 C                |   1 O                |     2.72224  |     1.44055
    3 C                |   2 C                |     2.78622  |     1.47440
    4 C                |   2 C                |     2.83817  |     1.50190
    5 H                |   2 C                |     2.07010  |     1.09545
    6 H                |   3 C                |     2.06601  |     1.09328
    7 H                |   3 C                |     2.06735  |     1.09400
    8 H                |   4 C                |     2.07898  |     1.10015
    9 H                |   4 C                |     2.07670  |     1.09894
   10 H                |   4 C                |     2.07279  |     1.09688
 ------------------------------------------------------------------------------
                         number of included internuclear distances:         10
 ==============================================================================



 ==============================================================================
                                 internuclear angles
 ------------------------------------------------------------------------------
        center 1       |       center 2       |       center 3       |  degrees
 ------------------------------------------------------------------------------
    2 C                |   1 O                |   3 C                |    61.22
    2 C                |   1 O                |   3 C                |    61.22
    1 O                |   2 C                |   4 C                |   116.79
    1 O                |   2 C                |   5 H                |   113.05
    3 C                |   2 C                |   4 C                |   122.84
    3 C                |   2 C                |   5 H                |   117.70
    4 C                |   2 C                |   5 H                |   114.88
    3 C                |   1 O                |   2 C                |    61.22
    1 O                |   3 C                |   6 H                |   115.36
    1 O                |   3 C                |   7 H                |   115.25
    2 C                |   3 C                |   6 H                |   120.48
    2 C                |   3 C                |   7 H                |   118.68
    6 H                |   3 C                |   7 H                |   115.24
    2 C                |   4 C                |   8 H                |   109.50
    2 C                |   4 C                |   9 H                |   110.11
    2 C                |   4 C                |  10 H                |   112.22
    8 H                |   4 C                |   9 H                |   107.50
    8 H                |   4 C                |  10 H                |   108.79
    9 H                |   4 C                |  10 H                |   108.60
 ------------------------------------------------------------------------------
                            number of included internuclear angles:         19
 ==============================================================================



  warning:::::::::::::: from_environment
  NWCHEM_BASIS_LIBRARY set to: <
 /util/academic/nwchem/nwchem-6.8/src/basis/libraries>
  but file does not exist !
  using .nwchemrc or compiled library


 Summary of "ao basis" -> "" (spherical)
 ------------------------------------------------------------------------------
       Tag                 Description            Shells   Functions and Types
 ---------------- ------------------------------  ------  ---------------------
 *                         def2-TZVP                  on all atoms 


 
                                 NWChem DFT Module
                                 -----------------
 
 
                    methyloxirane roa calculations at 488.9 nm, input generated in va  with delta_type=2
 
 
                      Basis "ao basis" -> "ao basis" (spherical)
                      -----
  O (Oxygen)
  ----------
            Exponent  Coefficients 
       -------------- ---------------------------------------------------------
  1 S  2.70323826E+04  0.000217
  1 S  4.05238714E+03  0.001684
  1 S  9.22327227E+02  0.008740
  1 S  2.61240710E+02  0.035240
  1 S  8.53546414E+01  0.111535
  1 S  3.10350352E+01  0.255890
 
  2 S  1.22608607E+01  0.397687
  2 S  4.99870760E+00  0.246278
 
  3 S  1.17031082E+00  1.000000
 
  4 S  4.64747410E-01  1.000000
 
  5 S  1.85045364E-01  1.000000
 
  6 P  6.32749548E+01  0.006069
  6 P  1.46270494E+01  0.041913
  6 P  4.45012235E+00  0.161538
  6 P  1.52757996E+00  0.357070
 
  7 P  5.29351179E-01  1.000000
 
  8 P  1.74784213E-01  1.000000
 
  9 D  2.31400000E+00  1.000000
 
 10 D  6.45000000E-01  1.000000
 
 11 F  1.42800000E+00  1.000000
 
  C (Carbon)
  ----------
            Exponent  Coefficients 
       -------------- ---------------------------------------------------------
  1 S  1.35753497E+04  0.000222
  1 S  2.03523337E+03  0.001723
  1 S  4.63225624E+02  0.008926
  1 S  1.31200196E+02  0.035728
  1 S  4.28530159E+01  0.110763
  1 S  1.55841858E+01  0.242956
 
  2 S  6.20671385E+00  0.414403
  2 S  2.57648965E+00  0.237450
 
  3 S  5.76963394E-01  1.000000
 
  4 S  2.29728314E-01  1.000000
 
  5 S  9.51644400E-02  1.000000
 
  6 P  3.46972322E+01  0.005333
  6 P  7.95826228E+00  0.035864
  6 P  2.37808269E+00  0.142159
  6 P  8.14332082E-01  0.342705
 
  7 P  2.88875473E-01  1.000000
 
  8 P  1.00568237E-01  1.000000
 
  9 D  1.09700000E+00  1.000000
 
 10 D  3.18000000E-01  1.000000
 
 11 F  7.61000000E-01  1.000000
 
  H (Hydrogen)
  ------------
            Exponent  Coefficients 
       -------------- ---------------------------------------------------------
  1 S  3.40613410E+01  0.006025
  1 S  5.12357460E+00  0.045021
  1 S  1.16466260E+00  0.201897
 
  2 S  3.27230410E-01  1.000000
 
  3 S  1.03072410E-01  1.000000
 
  4 P  8.00000000E-01  1.000000
 


 Summary of "ao basis" -> "ao basis" (spherical)
 ------------------------------------------------------------------------------
       Tag                 Description            Shells   Functions and Types
 ---------------- ------------------------------  ------  ---------------------
 O                         def2-TZVP                11       31   5s3p2d1f
 C                         def2-TZVP                11       31   5s3p2d1f
 H                         def2-TZVP                 4        6   3s1p




 Summary of "ao basis" -> "ao basis" (spherical)
 ------------------------------------------------------------------------------
       Tag                 Description            Shells   Functions and Types
 ---------------- ------------------------------  ------  ---------------------
 O                         def2-TZVP                11       31   5s3p2d1f
 C                         def2-TZVP                11       31   5s3p2d1f
 H                         def2-TZVP                 4        6   3s1p


  Caching 1-el integrals 
  itol2e modified to match energy
  convergence criterion.
  tol_rho modified to match energy
  convergence criterion.
 
            General Information
            -------------------
          SCF calculation type: DFT
          Wavefunction type:  closed shell.
          No. of atoms     :    10
          No. of electrons :    32
           Alpha electrons :    16
            Beta electrons :    16
          Charge           :     0
          Spin multiplicity:     1
          Use of symmetry is: off; symmetry adaption is: off
          Maximum number of iterations: 250
          This is a Direct SCF calculation.
          AO basis - number of functions:   160
                     number of shells:    68
          Convergence on energy requested:  1.00D-08
          Convergence on density requested:  1.00D-05
          Convergence on gradient requested:  1.00D-07
 
              XC Information
              --------------
                    Becke 1988 Exchange Functional  1.000          
              Lee-Yang-Parr Correlation Functional  1.000          
 
             Grid Information
             ----------------
          Grid used for XC integration:  xfine     
          Radial quadrature: Mura-Knowles        
          Angular quadrature: Lebedev. 
          Tag              B.-S. Rad. Rad. Pts. Rad. Cut. Ang. Pts.
          ---              ---------- --------- --------- ---------
          O                   0.60      100          11.0      1454
          C                   0.70      100          11.0      1454
          H                   0.35      100          12.0      1202
          Grid pruning is: on 
          Number of quadrature shells:  1000
          Spatial weights used:  Erf1
 
          Convergence Information
          -----------------------
          Convergence aids based upon iterative change in 
          total energy or number of iterations. 
          Levelshifting, if invoked, occurs when the 
          HOMO/LUMO gap drops below (HL_TOL):  1.00D-02
          DIIS, if invoked, will attempt to extrapolate 
          using up to (NFOCK): 10 stored Fock matrices.

                    Damping( 0%)  Levelshifting(0.0)       DIIS
                  --------------- ------------------- ---------------
          dE  on:    start             N/A                start   
          dE off:    2 iters           N/A              250 iters 

 
      Screening Tolerance Information
      -------------------------------
          Density screening/tol_rho:  1.00D-11
          AO Gaussian exp screening on grid/accAOfunc:  18
          CD Gaussian exp screening on grid/accCDfunc:  20
          XC Gaussian exp screening on grid/accXCfunc:  20
          Schwarz screening/accCoul:  1.00D-09

 
      Superposition of Atomic Density Guess
      -------------------------------------
 
 Sum of atomic energies:        -190.79714706
 
      Non-variational initial energy
      ------------------------------

 Total energy =    -193.200444
 1-e energy   =    -502.710951
 2-e energy   =     185.623979
 HOMO         =      -0.351124
 LUMO         =       0.092345
 
   Time after variat. SCF:      0.6
   Time prior to 1st pass:      0.6

 Grid_pts file          = ./methyloxirane_blyp-def2-tzvp_488.9_07.inp.gridpts.0
 Record size in doubles =  12289        No. of grid_pts per rec  =   3070
 Max. records in memory =     76        Max. recs in file   =   2600914


           Memory utilization after 1st SCF pass: 
           Heap Space remaining (MW):       12.17            12167540
          Stack Space remaining (MW):       13.11            13106124

   convergence    iter        energy       DeltaE   RMS-Dens  Diis-err    time
 ---------------- ----- ----------------- --------- --------- ---------  ------
 d= 0,ls=0.0,diis     1   -193.0208831195 -3.17D+02  9.05D-03  1.05D+00     7.3
 d= 0,ls=0.0,diis     2   -192.8694744667  1.51D-01  7.45D-03  2.45D+00    13.8
 d= 0,ls=0.0,diis     3   -193.0769152766 -2.07D-01  1.82D-03  3.88D-01    20.2
 d= 0,ls=0.0,diis     4   -193.1072035114 -3.03D-02  6.66D-04  1.74D-02    26.7
 d= 0,ls=0.0,diis     5   -193.1087953037 -1.59D-03  2.86D-04  2.62D-03    33.2
 d= 0,ls=0.0,diis     6   -193.1091216834 -3.26D-04  3.00D-05  3.30D-05    39.7
 d= 0,ls=0.0,diis     7   -193.1091256130 -3.93D-06  9.97D-06  3.78D-06    46.2
 d= 0,ls=0.0,diis     8   -193.1091260418 -4.29D-07  2.37D-06  4.06D-07    52.6
 d= 0,ls=0.0,diis     9   -193.1091260883 -4.64D-08  6.02D-07  2.76D-08    59.1
 d= 0,ls=0.0,diis    10   -193.1091260911 -2.82D-09  2.05D-07  2.65D-09    65.6


         Total DFT energy =     -193.109126091078
      One electron energy =     -506.372662567222
           Coulomb energy =      216.406509098774
    Exchange-Corr. energy =      -27.029500989017
 Nuclear repulsion energy =      123.886528366386

 Numeric. integr. density =       32.000000026041

     Total iterative time =     65.0s


 
                       DFT Final Molecular Orbital Analysis
                       ------------------------------------
 
 Vector    1  Occ=2.000000D+00  E=-1.877942D+01
              MO Center= -8.8D-01, -1.8D-01,  2.1D-01, r^2= 1.5D-02
   Bfn.  Coefficient  Atom+Function         Bfn.  Coefficient  Atom+Function  
  ----- ------------  ---------------      ----- ------------  ---------------
     2      0.638470   1 O  s                 1      0.435421   1 O  s         
     3      0.039950   1 O  s                 4     -0.033454   1 O  s         
 
 Vector    2  Occ=2.000000D+00  E=-9.962267D+00
              MO Center=  5.8D-01, -1.6D-01,  1.2D-01, r^2= 2.8D-02
   Bfn.  Coefficient  Atom+Function         Bfn.  Coefficient  Atom+Function  
  ----- ------------  ---------------      ----- ------------  ---------------
    33      0.606894   2 C  s                32      0.467253   2 C  s         
    34      0.042533   2 C  s                36      0.037614   2 C  s         
    35     -0.026919   2 C  s         
 
 Vector    3  Occ=2.000000D+00  E=-9.955022D+00
              MO Center= -1.9D-01,  1.1D+00,  3.4D-01, r^2= 2.8D-02
   Bfn.  Coefficient  Atom+Function         Bfn.  Coefficient  Atom+Function  
  ----- ------------  ---------------      ----- ------------  ---------------
    64      0.607005   3 C  s                63      0.467218   3 C  s         
    65      0.039599   3 C  s         
 
 Vector    4  Occ=2.000000D+00  E=-9.907420D+00
              MO Center=  1.2D+00, -5.2D-01, -1.2D+00, r^2= 2.8D-02
   Bfn.  Coefficient  Atom+Function         Bfn.  Coefficient  Atom+Function  
  ----- ------------  ---------------      ----- ------------  ---------------
    95      0.606949   4 C  s                94      0.467211   4 C  s         
    96      0.040569   4 C  s                98      0.035970   4 C  s         
 
 Vector    5  Occ=2.000000D+00  E=-9.658953D-01
              MO Center= -4.7D-01,  6.1D-02,  2.1D-01, r^2= 6.4D-01
   Bfn.  Coefficient  Atom+Function         Bfn.  Coefficient  Atom+Function  
  ----- ------------  ---------------      ----- ------------  ---------------
     4      0.374693   1 O  s                 3      0.276991   1 O  s         
     2     -0.192595   1 O  s                65      0.140778   3 C  s         
    34      0.138835   2 C  s                 5      0.122190   1 O  s         
    35      0.105333   2 C  s                 6      0.093674   1 O  px        
    66      0.092514   3 C  s                69     -0.092902   3 C  py        
 
 Vector    6  Occ=2.000000D+00  E=-6.718950D-01
              MO Center=  9.4D-01, -3.9D-01, -7.6D-01, r^2= 1.5D+00
   Bfn.  Coefficient  Atom+Function         Bfn.  Coefficient  Atom+Function  
  ----- ------------  ---------------      ----- ------------  ---------------
    97      0.284362   4 C  s                96      0.276010   4 C  s         
    35      0.185917   2 C  s                34      0.175972   2 C  s         
    95     -0.173885   4 C  s                 4     -0.145474   1 O  s         
    33     -0.110046   2 C  s                 3     -0.101538   1 O  s         
    94     -0.083322   4 C  s                 5     -0.072053   1 O  s         
 
 Vector    7  Occ=2.000000D+00  E=-5.885211D-01
              MO Center= -1.3D-01,  7.2D-01,  2.2D-01, r^2= 1.9D+00
   Bfn.  Coefficient  Atom+Function         Bfn.  Coefficient  Atom+Function  
  ----- ------------  ---------------      ----- ------------  ---------------
    66      0.327711   3 C  s                65      0.277783   3 C  s         
     4     -0.240209   1 O  s                64     -0.171881   3 C  s         
     3     -0.168792   1 O  s                 5     -0.148908   1 O  s         
     2      0.111559   1 O  s                38      0.105319   2 C  py        
   132      0.103037   6 H  s               138      0.099178   7 H  s         
 
 Vector    8  Occ=2.000000D+00  E=-5.300461D-01
              MO Center=  4.2D-01,  4.4D-04, -1.1D-01, r^2= 2.7D+00
   Bfn.  Coefficient  Atom+Function         Bfn.  Coefficient  Atom+Function  
  ----- ------------  ---------------      ----- ------------  ---------------
    35      0.302558   2 C  s                34      0.224338   2 C  s         
    97     -0.159236   4 C  s                66     -0.149584   3 C  s         
    33     -0.138013   2 C  s               126      0.132101   5 H  s         
    96     -0.130790   4 C  s                 6      0.108006   1 O  px        
   125      0.105761   5 H  s               101      0.098001   4 C  pz        
 
 Vector    9  Occ=2.000000D+00  E=-4.488721D-01
              MO Center=  1.1D-01,  2.8D-01,  2.5D-01, r^2= 2.4D+00
   Bfn.  Coefficient  Atom+Function         Bfn.  Coefficient  Atom+Function  
  ----- ------------  ---------------      ----- ------------  ---------------
    70      0.208699   3 C  pz               39      0.153622   2 C  pz        
   132      0.144105   6 H  s                73      0.130965   3 C  pz        
     8      0.128351   1 O  pz              126      0.116217   5 H  s         
     6     -0.112266   1 O  px               38     -0.108626   2 C  py        
    37      0.106931   2 C  px              131      0.107094   6 H  s         
 
 Vector   10  Occ=2.000000D+00  E=-4.144540D-01
              MO Center=  4.7D-02,  2.8D-01, -2.5D-01, r^2= 2.6D+00
   Bfn.  Coefficient  Atom+Function         Bfn.  Coefficient  Atom+Function  
  ----- ------------  ---------------      ----- ------------  ---------------
    69      0.213141   3 C  py              101      0.157923   4 C  pz        
   138      0.153104   7 H  s                 6     -0.145167   1 O  px        
    38     -0.136942   2 C  py               37      0.127443   2 C  px        
     7     -0.118645   1 O  py               70     -0.118638   3 C  pz        
    72      0.119094   3 C  py                9     -0.115933   1 O  px        
 
 Vector   11  Occ=2.000000D+00  E=-3.776698D-01
              MO Center=  8.8D-01, -3.0D-01, -7.2D-01, r^2= 2.7D+00
   Bfn.  Coefficient  Atom+Function         Bfn.  Coefficient  Atom+Function  
  ----- ------------  ---------------      ----- ------------  ---------------
    99      0.208362   4 C  px              144      0.183945   8 H  s         
   100      0.160831   4 C  py              150     -0.136619   9 H  s         
   102      0.133618   4 C  px               37      0.128866   2 C  px        
   143      0.128692   8 H  s                 7      0.124481   1 O  py        
     6     -0.115662   1 O  px              103      0.106171   4 C  py        
 
 Vector   12  Occ=2.000000D+00  E=-3.567519D-01
              MO Center=  5.9D-01, -3.7D-01, -8.8D-01, r^2= 2.8D+00
   Bfn.  Coefficient  Atom+Function         Bfn.  Coefficient  Atom+Function  
  ----- ------------  ---------------      ----- ------------  ---------------
   100      0.257605   4 C  py              150     -0.188959   9 H  s         
     7     -0.174669   1 O  py              156      0.174203  10 H  s         
   103      0.166740   4 C  py               10     -0.139589   1 O  py        
   149     -0.131615   9 H  s               155      0.123278  10 H  s         
    70      0.108228   3 C  pz              106      0.103946   4 C  py        
 
 Vector   13  Occ=2.000000D+00  E=-3.298443D-01
              MO Center=  3.5D-01,  2.6D-01, -2.2D-01, r^2= 2.8D+00
   Bfn.  Coefficient  Atom+Function         Bfn.  Coefficient  Atom+Function  
  ----- ------------  ---------------      ----- ------------  ---------------
    39      0.219034   2 C  pz              101     -0.188492   4 C  pz        
    70     -0.176822   3 C  pz              138      0.163956   7 H  s         
     7     -0.161321   1 O  py               42      0.147916   2 C  pz        
    99      0.140154   4 C  px              104     -0.131781   4 C  pz        
    10     -0.129980   1 O  py               73     -0.110981   3 C  pz        
 
 Vector   14  Occ=2.000000D+00  E=-3.216938D-01
              MO Center=  4.2D-01, -6.1D-02, -2.4D-01, r^2= 3.0D+00
   Bfn.  Coefficient  Atom+Function         Bfn.  Coefficient  Atom+Function  
  ----- ------------  ---------------      ----- ------------  ---------------
     7      0.204481   1 O  py               10      0.167485   1 O  py        
   126      0.164053   5 H  s                99     -0.158296   4 C  px        
   156      0.154096  10 H  s                 6     -0.143539   1 O  px        
   144     -0.133223   8 H  s                37      0.132451   2 C  px        
    39      0.129112   2 C  pz              101     -0.121095   4 C  pz        
 
 Vector   15  Occ=2.000000D+00  E=-2.621381D-01
              MO Center=  2.4D-02,  1.4D-01,  3.2D-02, r^2= 2.3D+00
   Bfn.  Coefficient  Atom+Function         Bfn.  Coefficient  Atom+Function  
  ----- ------------  ---------------      ----- ------------  ---------------
    68     -0.261683   3 C  px               38     -0.257100   2 C  py        
     6      0.240818   1 O  px               41     -0.200713   2 C  py        
    71     -0.193894   3 C  px                9      0.188609   1 O  px        
    12      0.159619   1 O  px              150     -0.116173   9 H  s         
   100      0.111276   4 C  py               67     -0.110071   3 C  s         
 
 Vector   16  Occ=2.000000D+00  E=-2.197324D-01
              MO Center= -5.8D-01, -1.1D-02,  2.0D-01, r^2= 1.6D+00
   Bfn.  Coefficient  Atom+Function         Bfn.  Coefficient  Atom+Function  
  ----- ------------  ---------------      ----- ------------  ---------------
     8      0.448639   1 O  pz               11      0.357563   1 O  pz        
    14      0.296067   1 O  pz              133     -0.133909   6 H  s         
   139      0.122643   7 H  s               138      0.107918   7 H  s         
   132     -0.106177   6 H  s               145     -0.101337   8 H  s         
   126     -0.094840   5 H  s               127     -0.081022   5 H  s         
 
 Vector   17  Occ=0.000000D+00  E= 2.546895D-02
              MO Center=  1.2D+00, -1.7D-01, -6.2D-01, r^2= 7.2D+00
   Bfn.  Coefficient  Atom+Function         Bfn.  Coefficient  Atom+Function  
  ----- ------------  ---------------      ----- ------------  ---------------
    98      4.602145   4 C  s               145     -1.565744   8 H  s         
   151     -1.535309   9 H  s               157     -1.339474  10 H  s         
   127     -1.274382   5 H  s                45      1.166982   2 C  pz        
   139     -0.869176   7 H  s                67      0.719262   3 C  s         
   133     -0.593680   6 H  s                75      0.335489   3 C  py        
 
 Vector   18  Occ=0.000000D+00  E= 4.576105D-02
              MO Center= -1.2D-01,  6.9D-01,  1.2D-01, r^2= 4.5D+00
   Bfn.  Coefficient  Atom+Function         Bfn.  Coefficient  Atom+Function  
  ----- ------------  ---------------      ----- ------------  ---------------
    98     -1.997096   4 C  s                36      1.946775   2 C  s         
     5     -1.327254   1 O  s                74     -0.967239   3 C  px        
   151      0.801061   9 H  s                45     -0.493217   2 C  pz        
    13     -0.442963   1 O  py               44      0.427598   2 C  py        
    43     -0.372175   2 C  px               66      0.365988   3 C  s         
 
 Vector   19  Occ=0.000000D+00  E= 4.995276D-02
              MO Center=  3.9D-01,  4.3D-01, -1.7D-01, r^2= 6.6D+00
   Bfn.  Coefficient  Atom+Function         Bfn.  Coefficient  Atom+Function  
  ----- ------------  ---------------      ----- ------------  ---------------
    36      2.840897   2 C  s                67     -2.578280   3 C  s         
   127     -1.845768   5 H  s               139      1.601466   7 H  s         
   157      0.974547  10 H  s                98     -0.822674   4 C  s         
    76      0.532877   3 C  pz               45      0.493456   2 C  pz        
    43      0.452161   2 C  px               74     -0.433467   3 C  px        
 
 Vector   20  Occ=0.000000D+00  E= 5.148668D-02
              MO Center=  5.5D-01,  6.3D-01,  4.4D-01, r^2= 7.6D+00
   Bfn.  Coefficient  Atom+Function         Bfn.  Coefficient  Atom+Function  
  ----- ------------  ---------------      ----- ------------  ---------------
    98      3.380616   4 C  s                67     -2.872187   3 C  s         
   133      1.888814   6 H  s               145     -1.199858   8 H  s         
    44      1.107956   2 C  py              127      1.042192   5 H  s         
   157     -1.038687  10 H  s                36     -0.721128   2 C  s         
   151     -0.694904   9 H  s                43     -0.623380   2 C  px        
 
 Vector   21  Occ=0.000000D+00  E= 6.522032D-02
              MO Center=  2.6D-01,  1.0D-01, -1.5D-01, r^2= 4.7D+00
   Bfn.  Coefficient  Atom+Function         Bfn.  Coefficient  Atom+Function  
  ----- ------------  ---------------      ----- ------------  ---------------
   139      1.218527   7 H  s                98      1.183349   4 C  s         
   151     -0.932502   9 H  s                 5     -0.918120   1 O  s         
    67     -0.916918   3 C  s                43     -0.835684   2 C  px        
    75     -0.588553   3 C  py              133      0.571607   6 H  s         
    12     -0.493271   1 O  px               35      0.399169   2 C  s         
 
 Vector   22  Occ=0.000000D+00  E= 8.649381D-02
              MO Center=  1.5D+00,  5.9D-02, -6.5D-01, r^2= 6.6D+00
   Bfn.  Coefficient  Atom+Function         Bfn.  Coefficient  Atom+Function  
  ----- ------------  ---------------      ----- ------------  ---------------
    36      2.392227   2 C  s               145      2.273280   8 H  s         
   157     -1.272697  10 H  s               105     -1.198274   4 C  px        
   127     -1.181914   5 H  s                67     -1.143382   3 C  s         
   107     -1.007632   4 C  pz              133      0.983366   6 H  s         
    98     -0.777547   4 C  s               151     -0.720311   9 H  s         
 
 Vector   23  Occ=0.000000D+00  E= 9.171305D-02
              MO Center=  9.6D-01, -4.9D-01, -3.7D-01, r^2= 7.1D+00
   Bfn.  Coefficient  Atom+Function         Bfn.  Coefficient  Atom+Function  
  ----- ------------  ---------------      ----- ------------  ---------------
    36      3.016528   2 C  s               151      1.976604   9 H  s         
    98     -1.526427   4 C  s               145     -1.131486   8 H  s         
   133      1.121462   6 H  s                67     -1.113470   3 C  s         
   106      1.082683   4 C  py              127     -1.073746   5 H  s         
   107     -0.910825   4 C  pz              105      0.893750   4 C  px        
 
 Vector   24  Occ=0.000000D+00  E= 1.020320D-01
              MO Center=  4.3D-01,  4.3D-01, -1.1D+00, r^2= 6.8D+00
   Bfn.  Coefficient  Atom+Function         Bfn.  Coefficient  Atom+Function  
  ----- ------------  ---------------      ----- ------------  ---------------
   157      2.047941  10 H  s               133      1.601413   6 H  s         
    98     -1.520927   4 C  s               106     -1.482174   4 C  py        
   139     -1.488144   7 H  s               151     -1.397958   9 H  s         
    36      1.322830   2 C  s                76     -1.144950   3 C  pz        
   105      1.014953   4 C  px               45     -0.587294   2 C  pz        
 
 Vector   25  Occ=0.000000D+00  E= 1.392600D-01
              MO Center=  7.7D-01,  2.2D-01, -4.4D-01, r^2= 7.9D+00
   Bfn.  Coefficient  Atom+Function         Bfn.  Coefficient  Atom+Function  
  ----- ------------  ---------------      ----- ------------  ---------------
    36      4.826295   2 C  s                98     -3.569357   4 C  s         
    45     -3.377515   2 C  pz               67     -2.950022   3 C  s         
   127      2.719605   5 H  s                76      2.177022   3 C  pz        
   105      2.075355   4 C  px              133     -1.783795   6 H  s         
   139      1.698336   7 H  s               107     -1.532932   4 C  pz        
 
 Vector   26  Occ=0.000000D+00  E= 1.707256D-01
              MO Center=  4.5D-01,  5.2D-01, -1.4D-01, r^2= 7.3D+00
   Bfn.  Coefficient  Atom+Function         Bfn.  Coefficient  Atom+Function  
  ----- ------------  ---------------      ----- ------------  ---------------
    75      2.277308   3 C  py              107      1.675146   4 C  pz        
    67     -1.454923   3 C  s                36      1.313372   2 C  s         
   139     -1.185008   7 H  s               157      1.078969  10 H  s         
    74     -0.953576   3 C  px               44      0.684749   2 C  py        
    43     -0.581759   2 C  px              106     -0.541096   4 C  py        
 
 Vector   27  Occ=0.000000D+00  E= 1.975316D-01
              MO Center=  7.7D-01, -1.4D-01, -1.0D+00, r^2= 5.0D+00
   Bfn.  Coefficient  Atom+Function         Bfn.  Coefficient  Atom+Function  
  ----- ------------  ---------------      ----- ------------  ---------------
    67      3.010770   3 C  s                44     -2.503712   2 C  py        
    36     -1.923824   2 C  s               106      1.895004   4 C  py        
    43      0.920082   2 C  px              105      0.904595   4 C  px        
    45     -0.778983   2 C  pz               74      0.724268   3 C  px        
    75     -0.695182   3 C  py              150      0.636799   9 H  s         
 
 Vector   28  Occ=0.000000D+00  E= 2.025678D-01
              MO Center=  1.0D+00, -4.1D-01, -6.5D-01, r^2= 6.7D+00
   Bfn.  Coefficient  Atom+Function         Bfn.  Coefficient  Atom+Function  
  ----- ------------  ---------------      ----- ------------  ---------------
    36      2.634454   2 C  s                75      1.628200   3 C  py        
   133     -1.283433   6 H  s               105     -1.272731   4 C  px        
   106      1.084614   4 C  py              107     -1.048002   4 C  pz        
    76      0.725946   3 C  pz              139     -0.728117   7 H  s         
   156     -0.706792  10 H  s                45      0.617588   2 C  pz        
 
 Vector   29  Occ=0.000000D+00  E= 2.373691D-01
              MO Center= -2.7D-01,  3.4D-01, -4.2D-02, r^2= 5.4D+00
   Bfn.  Coefficient  Atom+Function         Bfn.  Coefficient  Atom+Function  
  ----- ------------  ---------------      ----- ------------  ---------------
    67      4.437848   3 C  s                36     -3.253607   2 C  s         
   139     -1.575128   7 H  s                66     -1.472123   3 C  s         
    98      1.413071   4 C  s               133     -1.235324   6 H  s         
   107      1.069636   4 C  pz               74     -0.784249   3 C  px        
    44      0.758090   2 C  py              106      0.713228   4 C  py        
 
 Vector   30  Occ=0.000000D+00  E= 2.488064D-01
              MO Center=  5.3D-01,  1.9D-02, -7.1D-02, r^2= 5.9D+00
   Bfn.  Coefficient  Atom+Function         Bfn.  Coefficient  Atom+Function  
  ----- ------------  ---------------      ----- ------------  ---------------
    67      6.315627   3 C  s                43      4.309461   2 C  px        
    75     -3.038763   3 C  py               44     -2.763016   2 C  py        
   107     -2.242549   4 C  pz               36     -1.985974   2 C  s         
   157     -1.895753  10 H  s                45     -1.641147   2 C  pz        
    98     -1.634588   4 C  s               105     -1.120488   4 C  px        
 
 Vector   31  Occ=0.000000D+00  E= 2.689008D-01
              MO Center=  3.0D-01, -1.5D-01,  2.4D-01, r^2= 5.6D+00
   Bfn.  Coefficient  Atom+Function         Bfn.  Coefficient  Atom+Function  
  ----- ------------  ---------------      ----- ------------  ---------------
    36      4.215099   2 C  s                 5     -2.210719   1 O  s         
    67      2.113091   3 C  s                43     -1.616614   2 C  px        
   105      1.541256   4 C  px               98     -1.237991   4 C  s         
    66     -1.151470   3 C  s               139     -0.915103   7 H  s         
   133     -0.871231   6 H  s               106     -0.821655   4 C  py        
 
 Vector   32  Occ=0.000000D+00  E= 2.803853D-01
              MO Center=  3.5D-01,  3.5D-01,  3.0D-01, r^2= 4.1D+00
   Bfn.  Coefficient  Atom+Function         Bfn.  Coefficient  Atom+Function  
  ----- ------------  ---------------      ----- ------------  ---------------
    36      2.423291   2 C  s                 5     -1.796445   1 O  s         
    67     -1.364685   3 C  s                43     -1.292965   2 C  px        
    74     -0.771352   3 C  px               45     -0.659803   2 C  pz        
    98     -0.596381   4 C  s               145      0.556126   8 H  s         
     4      0.495602   1 O  s               157     -0.407330  10 H  s         
 
 Vector   33  Occ=0.000000D+00  E= 3.024742D-01
              MO Center=  4.3D-01,  3.8D-01, -3.7D-01, r^2= 5.1D+00
   Bfn.  Coefficient  Atom+Function         Bfn.  Coefficient  Atom+Function  
  ----- ------------  ---------------      ----- ------------  ---------------
    98      2.022936   4 C  s               151     -1.813094   9 H  s         
   106     -1.797191   4 C  py               43     -1.774844   2 C  px        
    76     -1.562413   3 C  pz              139     -1.149077   7 H  s         
    44      1.115240   2 C  py               66     -1.120597   3 C  s         
   107      0.980982   4 C  pz               36      0.887734   2 C  s         
 
 Vector   34  Occ=0.000000D+00  E= 3.377022D-01
              MO Center=  7.6D-02,  4.7D-01, -3.8D-01, r^2= 5.9D+00
   Bfn.  Coefficient  Atom+Function         Bfn.  Coefficient  Atom+Function  
  ----- ------------  ---------------      ----- ------------  ---------------
    67      4.751929   3 C  s                76     -4.129589   3 C  pz        
   139     -3.283578   7 H  s                36     -2.940416   2 C  s         
   133      2.156253   6 H  s               157     -1.803792  10 H  s         
    98      1.791318   4 C  s               107     -1.716584   4 C  pz        
    43      1.489717   2 C  px               44     -1.288453   2 C  py        
 
 Vector   35  Occ=0.000000D+00  E= 3.618497D-01
              MO Center=  8.5D-01, -7.9D-02, -4.6D-01, r^2= 6.8D+00
   Bfn.  Coefficient  Atom+Function         Bfn.  Coefficient  Atom+Function  
  ----- ------------  ---------------      ----- ------------  ---------------
    98      8.577560   4 C  s               145     -3.415575   8 H  s         
    97     -3.387852   4 C  s                76      3.158941   3 C  pz        
   133     -2.306354   6 H  s               151     -2.105866   9 H  s         
   157     -1.522594  10 H  s                45     -1.500580   2 C  pz        
    44      1.407955   2 C  py              139      1.360525   7 H  s         
 
 Vector   36  Occ=0.000000D+00  E= 3.726685D-01
              MO Center=  5.4D-01,  2.3D-01,  1.2D-01, r^2= 6.2D+00
   Bfn.  Coefficient  Atom+Function         Bfn.  Coefficient  Atom+Function  
  ----- ------------  ---------------      ----- ------------  ---------------
    36     12.877508   2 C  s                67     -8.357845   3 C  s         
    98     -7.340672   4 C  s               127     -3.516306   5 H  s         
    35     -2.052280   2 C  s               157      2.056581  10 H  s         
    97      2.025355   4 C  s                44      1.851112   2 C  py        
    74     -1.652075   3 C  px               75      1.588535   3 C  py        
 
 Vector   37  Occ=0.000000D+00  E= 3.859412D-01
              MO Center=  8.6D-01, -3.1D-01, -1.9D-01, r^2= 6.1D+00
   Bfn.  Coefficient  Atom+Function         Bfn.  Coefficient  Atom+Function  
  ----- ------------  ---------------      ----- ------------  ---------------
    36      4.940332   2 C  s                98      4.668683   4 C  s         
   127     -3.743560   5 H  s                45      2.768822   2 C  pz        
   151     -2.305273   9 H  s               145     -2.170182   8 H  s         
    76     -2.110248   3 C  pz               35     -2.083040   2 C  s         
    67     -1.923306   3 C  s               133      1.764024   6 H  s         
 
 Vector   38  Occ=0.000000D+00  E= 3.955153D-01
              MO Center=  2.0D-01,  1.0D-01, -2.6D-01, r^2= 6.4D+00
   Bfn.  Coefficient  Atom+Function         Bfn.  Coefficient  Atom+Function  
  ----- ------------  ---------------      ----- ------------  ---------------
    98     12.714606   4 C  s                45      5.507459   2 C  pz        
    67     -5.092574   3 C  s                36     -3.263140   2 C  s         
    76     -2.914721   3 C  pz              157     -2.821871  10 H  s         
   133      2.280239   6 H  s                44      2.145475   2 C  py        
    43     -1.832990   2 C  px              107      1.814320   4 C  pz        
 
 Vector   39  Occ=0.000000D+00  E= 4.014812D-01
              MO Center= -1.3D-01,  2.9D-01,  2.7D-01, r^2= 6.5D+00
   Bfn.  Coefficient  Atom+Function         Bfn.  Coefficient  Atom+Function  
  ----- ------------  ---------------      ----- ------------  ---------------
    67    -12.980117   3 C  s                36     12.367623   2 C  s         
    45     -4.943557   2 C  pz               98     -4.869541   4 C  s         
    44      4.279806   2 C  py              127      2.993536   5 H  s         
    43     -2.756096   2 C  px               66      2.722780   3 C  s         
   105      2.390458   4 C  px              139      2.316672   7 H  s         
 
 Vector   40  Occ=0.000000D+00  E= 4.151935D-01
              MO Center=  7.9D-01, -4.8D-01, -8.7D-01, r^2= 5.7D+00
   Bfn.  Coefficient  Atom+Function         Bfn.  Coefficient  Atom+Function  
  ----- ------------  ---------------      ----- ------------  ---------------
    98      6.968948   4 C  s                36     -3.017179   2 C  s         
    45      2.855859   2 C  pz              151     -2.567375   9 H  s         
   105     -2.405544   4 C  px              157     -1.970373  10 H  s         
   145      1.675201   8 H  s                97     -1.247270   4 C  s         
   127     -1.049946   5 H  s               144     -0.945738   8 H  s         
 
 Vector   41  Occ=0.000000D+00  E= 4.273587D-01
              MO Center=  3.9D-01,  3.2D-01, -4.1D-02, r^2= 6.7D+00
   Bfn.  Coefficient  Atom+Function         Bfn.  Coefficient  Atom+Function  
  ----- ------------  ---------------      ----- ------------  ---------------
    36      9.470822   2 C  s                67     -4.798069   3 C  s         
    98     -3.933775   4 C  s                44      2.706153   2 C  py        
    75      2.661142   3 C  py              151      2.210138   9 H  s         
    43     -1.815304   2 C  px               74     -1.498590   3 C  px        
   132      1.379609   6 H  s                45     -1.352413   2 C  pz        
 
 Vector   42  Occ=0.000000D+00  E= 4.459613D-01
              MO Center=  9.4D-02, -8.9D-02, -1.9D-01, r^2= 6.1D+00
   Bfn.  Coefficient  Atom+Function         Bfn.  Coefficient  Atom+Function  
  ----- ------------  ---------------      ----- ------------  ---------------
    36      9.649206   2 C  s                98     -8.839575   4 C  s         
    45     -5.385991   2 C  pz               67     -3.041596   3 C  s         
   127      2.795043   5 H  s                76      2.523605   3 C  pz        
    44      2.338013   2 C  py              157      2.114966  10 H  s         
   106     -2.079863   4 C  py              133     -1.978884   6 H  s         
 
 Vector   43  Occ=0.000000D+00  E= 4.605361D-01
              MO Center=  7.5D-02,  8.5D-01, -4.4D-01, r^2= 5.0D+00
   Bfn.  Coefficient  Atom+Function         Bfn.  Coefficient  Atom+Function  
  ----- ------------  ---------------      ----- ------------  ---------------
   139      3.140072   7 H  s               107     -2.220982   4 C  pz        
   157     -2.211745  10 H  s                75     -2.008060   3 C  py        
    45     -1.693448   2 C  pz               43      1.506573   2 C  px        
    44     -1.464957   2 C  py              138     -1.471436   7 H  s         
    76      1.163314   3 C  pz               73     -0.835114   3 C  pz        
 
 Vector   44  Occ=0.000000D+00  E= 4.704730D-01
              MO Center=  5.4D-01,  7.5D-02, -1.2D-01, r^2= 5.7D+00
   Bfn.  Coefficient  Atom+Function         Bfn.  Coefficient  Atom+Function  
  ----- ------------  ---------------      ----- ------------  ---------------
    98     -5.156021   4 C  s                36      5.018588   2 C  s         
    45     -2.284176   2 C  pz              107     -1.920841   4 C  pz        
   145      1.670294   8 H  s                67     -1.540804   3 C  s         
   133      1.490573   6 H  s               157     -1.303912  10 H  s         
    35     -1.293734   2 C  s                43      1.097214   2 C  px        
 
 Vector   45  Occ=0.000000D+00  E= 5.086815D-01
              MO Center=  8.4D-01, -3.5D-01, -8.7D-01, r^2= 4.9D+00
   Bfn.  Coefficient  Atom+Function         Bfn.  Coefficient  Atom+Function  
  ----- ------------  ---------------      ----- ------------  ---------------
    98     11.232856   4 C  s                36     -7.200487   2 C  s         
    45      4.500667   2 C  pz              107      3.024948   4 C  pz        
   106      1.349053   4 C  py              144     -1.353111   8 H  s         
   127     -1.242768   5 H  s               156     -1.160087  10 H  s         
    14     -1.128646   1 O  pz              150     -1.024018   9 H  s         
 
 Vector   46  Occ=0.000000D+00  E= 5.391407D-01
              MO Center=  1.6D-01, -4.3D-01, -5.3D-01, r^2= 4.4D+00
   Bfn.  Coefficient  Atom+Function         Bfn.  Coefficient  Atom+Function  
  ----- ------------  ---------------      ----- ------------  ---------------
    98     -8.391558   4 C  s                36      7.683758   2 C  s         
    45     -4.119047   2 C  pz               76      3.299257   3 C  pz        
   133     -1.759165   6 H  s               107     -1.743297   4 C  pz        
   105      1.585270   4 C  px              139      1.543785   7 H  s         
     5     -1.207963   1 O  s                14     -1.097369   1 O  pz        
 
 Vector   47  Occ=0.000000D+00  E= 6.578933D-01
              MO Center= -3.3D-01,  3.0D-02, -8.4D-03, r^2= 4.2D+00
   Bfn.  Coefficient  Atom+Function         Bfn.  Coefficient  Atom+Function  
  ----- ------------  ---------------      ----- ------------  ---------------
    36     11.085623   2 C  s                67     -8.744846   3 C  s         
    98     -3.610348   4 C  s                43     -2.664279   2 C  px        
    75      2.352720   3 C  py               13      2.117459   1 O  py        
    76      1.962379   3 C  pz               44      1.551804   2 C  py        
   105      1.523824   4 C  px              139      1.464284   7 H  s         
 
 Vector   48  Occ=0.000000D+00  E= 6.746773D-01
              MO Center= -3.1D-01,  3.6D-01,  1.1D-01, r^2= 4.0D+00
   Bfn.  Coefficient  Atom+Function         Bfn.  Coefficient  Atom+Function  
  ----- ------------  ---------------      ----- ------------  ---------------
    36      8.862345   2 C  s                67     -8.386840   3 C  s         
     5      3.042278   1 O  s                75      2.716166   3 C  py        
    98     -2.482934   4 C  s                13      2.235314   1 O  py        
    43     -1.345092   2 C  px               45     -1.247189   2 C  pz        
     4     -1.107269   1 O  s                44      0.995401   2 C  py        
 
 Vector   49  Occ=0.000000D+00  E= 7.089967D-01
              MO Center=  1.6D-01, -3.1D-01, -2.6D-01, r^2= 4.5D+00
   Bfn.  Coefficient  Atom+Function         Bfn.  Coefficient  Atom+Function  
  ----- ------------  ---------------      ----- ------------  ---------------
    67      9.439886   3 C  s                36     -7.164079   2 C  s         
    43      3.703682   2 C  px               44     -3.466054   2 C  py        
    75     -2.720565   3 C  py               98     -2.639309   4 C  s         
     5      2.236612   1 O  s                12      1.687370   1 O  px        
   106      1.643717   4 C  py               13     -1.321042   1 O  py        
 
 Vector   50  Occ=0.000000D+00  E= 7.624025D-01
              MO Center=  6.2D-01, -5.5D-02, -3.5D-01, r^2= 4.1D+00
   Bfn.  Coefficient  Atom+Function         Bfn.  Coefficient  Atom+Function  
  ----- ------------  ---------------      ----- ------------  ---------------
    45      2.328755   2 C  pz                5     -1.793581   1 O  s         
   127     -1.670180   5 H  s               105     -1.598241   4 C  px        
    36      1.443601   2 C  s                43      1.411949   2 C  px        
   126     -1.359367   5 H  s               144      1.272497   8 H  s         
    66      1.073532   3 C  s                67      1.002268   3 C  s         
 
 Vector   51  Occ=0.000000D+00  E= 7.947792D-01
              MO Center=  2.8D-01,  8.3D-02, -1.7D-01, r^2= 4.4D+00
   Bfn.  Coefficient  Atom+Function         Bfn.  Coefficient  Atom+Function  
  ----- ------------  ---------------      ----- ------------  ---------------
     5      4.098942   1 O  s                36     -2.943130   2 C  s         
    76     -2.592859   3 C  pz               45      1.737448   2 C  pz        
     4     -1.553057   1 O  s                43      1.355467   2 C  px        
   133      1.359270   6 H  s                12      1.322643   1 O  px        
    35     -1.034153   2 C  s                66     -0.969991   3 C  s         
 
 Vector   52  Occ=0.000000D+00  E= 8.333463D-01
              MO Center=  3.5D-01,  1.7D-01, -2.0D-02, r^2= 4.4D+00
   Bfn.  Coefficient  Atom+Function         Bfn.  Coefficient  Atom+Function  
  ----- ------------  ---------------      ----- ------------  ---------------
    36      6.402116   2 C  s                98     -4.030763   4 C  s         
     5     -3.702230   1 O  s                43     -2.559395   2 C  px        
   105      1.904622   4 C  px               35     -1.850749   2 C  s         
    45     -1.614219   2 C  pz               44      1.489632   2 C  py        
    66     -1.219694   3 C  s                97      1.136715   4 C  s         
 
 Vector   53  Occ=0.000000D+00  E= 8.545820D-01
              MO Center=  5.8D-01,  1.5D-01, -3.9D-01, r^2= 4.2D+00
   Bfn.  Coefficient  Atom+Function         Bfn.  Coefficient  Atom+Function  
  ----- ------------  ---------------      ----- ------------  ---------------
    36      5.291721   2 C  s                98     -4.943896   4 C  s         
    45     -4.627434   2 C  pz               76      2.043368   3 C  pz        
   127      1.812883   5 H  s                44      1.654296   2 C  py        
   106     -1.647273   4 C  py              105      1.434667   4 C  px        
     5     -1.341287   1 O  s               150     -1.199515   9 H  s         
 
 Vector   54  Occ=0.000000D+00  E= 8.736540D-01
              MO Center=  1.9D-01, -7.0D-02, -1.4D-01, r^2= 4.2D+00
   Bfn.  Coefficient  Atom+Function         Bfn.  Coefficient  Atom+Function  
  ----- ------------  ---------------      ----- ------------  ---------------
     5      4.686214   1 O  s                36     -1.720551   2 C  s         
     4     -1.552844   1 O  s               138      1.393587   7 H  s         
    76      1.365516   3 C  pz               67     -1.307510   3 C  s         
    12      1.193845   1 O  px               66     -1.175514   3 C  s         
    98     -1.042747   4 C  s                43      0.867868   2 C  px        
 
 Vector   55  Occ=0.000000D+00  E= 9.210242D-01
              MO Center=  4.9D-01,  3.1D-01, -4.6D-01, r^2= 4.5D+00
   Bfn.  Coefficient  Atom+Function         Bfn.  Coefficient  Atom+Function  
  ----- ------------  ---------------      ----- ------------  ---------------
    35      5.099163   2 C  s                36     -2.164999   2 C  s         
    67      1.697572   3 C  s               132     -1.299749   6 H  s         
    72      1.290867   3 C  py               66     -1.250901   3 C  s         
    84      1.163610   3 C  d  0             41      1.155494   2 C  py        
   156     -1.150863  10 H  s               116     -1.078740   4 C  d  1      
 
 Vector   56  Occ=0.000000D+00  E= 9.614941D-01
              MO Center=  4.2D-01,  3.4D-01, -4.9D-01, r^2= 4.7D+00
   Bfn.  Coefficient  Atom+Function         Bfn.  Coefficient  Atom+Function  
  ----- ------------  ---------------      ----- ------------  ---------------
    35      4.232405   2 C  s                67      2.495467   3 C  s         
   138     -2.402566   7 H  s                76     -1.811047   3 C  pz        
    42     -1.756204   2 C  pz               83     -1.695217   3 C  d -1      
    98     -1.513218   4 C  s               115     -1.446367   4 C  d  0      
   132      1.401794   6 H  s               107     -1.318401   4 C  pz        
 
 Vector   57  Occ=0.000000D+00  E= 9.923896D-01
              MO Center=  3.7D-01,  4.3D-01, -1.7D-01, r^2= 4.1D+00
   Bfn.  Coefficient  Atom+Function         Bfn.  Coefficient  Atom+Function  
  ----- ------------  ---------------      ----- ------------  ---------------
    36      7.790679   2 C  s                98     -4.894520   4 C  s         
    67     -4.209401   3 C  s                45     -3.824929   2 C  pz        
    43     -2.418883   2 C  px               44      2.273773   2 C  py        
   127      1.624331   5 H  s                66     -1.590860   3 C  s         
    75      1.506075   3 C  py              126      1.367585   5 H  s         
 
 Vector   58  Occ=0.000000D+00  E= 1.013576D+00
              MO Center=  3.5D-01,  5.9D-01, -3.4D-02, r^2= 4.2D+00
   Bfn.  Coefficient  Atom+Function         Bfn.  Coefficient  Atom+Function  
  ----- ------------  ---------------      ----- ------------  ---------------
    36      5.285004   2 C  s                67     -4.428641   3 C  s         
    45     -2.029177   2 C  pz               44      1.809322   2 C  py        
    98     -1.515658   4 C  s               156     -1.455149  10 H  s         
    82      1.372521   3 C  d -2             74     -1.348733   3 C  px        
   144      1.331946   8 H  s                76      1.275610   3 C  pz        
 
 Vector   59  Occ=0.000000D+00  E= 1.041299D+00
              MO Center=  6.9D-01, -1.6D-01, -4.6D-01, r^2= 4.2D+00
   Bfn.  Coefficient  Atom+Function         Bfn.  Coefficient  Atom+Function  
  ----- ------------  ---------------      ----- ------------  ---------------
    35      2.771955   2 C  s                36      2.589014   2 C  s         
    66     -2.401509   3 C  s               150      1.982552   9 H  s         
   144     -1.887476   8 H  s                 5     -1.846709   1 O  s         
   117      1.738073   4 C  d  2             41      1.569608   2 C  py        
    44      1.379230   2 C  py               67     -1.265360   3 C  s         
 
 Vector   60  Occ=0.000000D+00  E= 1.079413D+00
              MO Center=  6.7D-01,  1.5D-02, -7.2D-02, r^2= 4.1D+00
   Bfn.  Coefficient  Atom+Function         Bfn.  Coefficient  Atom+Function  
  ----- ------------  ---------------      ----- ------------  ---------------
    66      4.171673   3 C  s                97     -3.904129   4 C  s         
    98     -3.899133   4 C  s                45     -3.602687   2 C  pz        
    36      3.093412   2 C  s                41     -2.660735   2 C  py        
   104     -2.646916   4 C  pz               42     -2.516002   2 C  pz        
    72     -2.423693   3 C  py               53      2.332314   2 C  d  0      
 
 Vector   61  Occ=0.000000D+00  E= 1.108121D+00
              MO Center=  3.7D-01,  5.4D-02,  5.3D-02, r^2= 3.7D+00
   Bfn.  Coefficient  Atom+Function         Bfn.  Coefficient  Atom+Function  
  ----- ------------  ---------------      ----- ------------  ---------------
    36      7.620419   2 C  s                67     -5.284411   3 C  s         
    98     -2.972662   4 C  s                66      2.018195   3 C  s         
   126     -2.019794   5 H  s                45     -1.929023   2 C  pz        
   132      1.663886   6 H  s                72     -1.545009   3 C  py        
    41     -1.420734   2 C  py               53      1.392073   2 C  d  0      
 
 Vector   62  Occ=0.000000D+00  E= 1.149327D+00
              MO Center=  6.2D-01,  1.5D-02, -3.4D-02, r^2= 3.6D+00
   Bfn.  Coefficient  Atom+Function         Bfn.  Coefficient  Atom+Function  
  ----- ------------  ---------------      ----- ------------  ---------------
    67      5.143923   3 C  s                36     -3.779427   2 C  s         
    44     -2.364920   2 C  py               97     -1.972192   4 C  s         
   126      1.865200   5 H  s                54      1.634600   2 C  d  1      
    43      1.558539   2 C  px               42     -1.508350   2 C  pz        
    55      1.477212   2 C  d  2            132     -1.419417   6 H  s         
 
 Vector   63  Occ=0.000000D+00  E= 1.216598D+00
              MO Center=  5.7D-01,  1.9D-01, -1.6D-01, r^2= 3.8D+00
   Bfn.  Coefficient  Atom+Function         Bfn.  Coefficient  Atom+Function  
  ----- ------------  ---------------      ----- ------------  ---------------
    36      6.819874   2 C  s                66     -5.073331   3 C  s         
    97     -3.557624   4 C  s                35      3.332299   2 C  s         
    67     -3.299942   3 C  s                72      1.953460   3 C  py        
    51     -1.783472   2 C  d -2             52      1.719661   2 C  d -1      
   138      1.624470   7 H  s               104     -1.565485   4 C  pz        
 
 Vector   64  Occ=0.000000D+00  E= 1.349298D+00
              MO Center=  3.4D-01,  5.5D-01,  2.2D-01, r^2= 3.5D+00
   Bfn.  Coefficient  Atom+Function         Bfn.  Coefficient  Atom+Function  
  ----- ------------  ---------------      ----- ------------  ---------------
    66      4.848510   3 C  s                35      3.791739   2 C  s         
    67     -3.218390   3 C  s                36     -2.515888   2 C  s         
    65     -2.447598   3 C  s               132     -2.038770   6 H  s         
   133      1.426108   6 H  s                34     -1.399431   2 C  s         
    72      1.290679   3 C  py              139      1.110347   7 H  s         
 
 Vector   65  Occ=0.000000D+00  E= 1.416978D+00
              MO Center=  1.8D-01,  4.9D-01, -3.2D-02, r^2= 3.4D+00
   Bfn.  Coefficient  Atom+Function         Bfn.  Coefficient  Atom+Function  
  ----- ------------  ---------------      ----- ------------  ---------------
    36      4.275199   2 C  s                35     -3.767207   2 C  s         
    66      3.729188   3 C  s                67     -3.594331   3 C  s         
    73     -2.358363   3 C  pz              138     -2.229944   7 H  s         
   139      2.151690   7 H  s               126      1.843068   5 H  s         
    76      1.638820   3 C  pz               34      1.559794   2 C  s         
 
 Vector   66  Occ=0.000000D+00  E= 1.432813D+00
              MO Center=  1.1D+00, -4.3D-01, -1.1D+00, r^2= 3.6D+00
   Bfn.  Coefficient  Atom+Function         Bfn.  Coefficient  Atom+Function  
  ----- ------------  ---------------      ----- ------------  ---------------
    98      9.957090   4 C  s                97     -7.535086   4 C  s         
    96      3.047203   4 C  s               145     -2.441863   8 H  s         
    36     -2.365241   2 C  s               151     -2.226353   9 H  s         
   157     -2.067192  10 H  s               144      1.755967   8 H  s         
   150      1.554690   9 H  s               104      1.439672   4 C  pz        
 
 Vector   67  Occ=0.000000D+00  E= 1.443788D+00
              MO Center=  3.4D-01,  8.7D-03, -4.0D-02, r^2= 4.2D+00
   Bfn.  Coefficient  Atom+Function         Bfn.  Coefficient  Atom+Function  
  ----- ------------  ---------------      ----- ------------  ---------------
    66      4.489232   3 C  s                98      3.940195   4 C  s         
    35     -3.193461   2 C  s                67     -2.943822   3 C  s         
    45      2.131759   2 C  pz              133      2.063912   6 H  s         
    97     -1.900922   4 C  s                76     -1.879168   3 C  pz        
   127     -1.728673   5 H  s                65     -1.623973   3 C  s         
 
 Vector   68  Occ=0.000000D+00  E= 1.446933D+00
              MO Center=  4.1D-01, -6.6D-02, -2.9D-01, r^2= 3.2D+00
   Bfn.  Coefficient  Atom+Function         Bfn.  Coefficient  Atom+Function  
  ----- ------------  ---------------      ----- ------------  ---------------
    98      4.725664   4 C  s                36     -2.902316   2 C  s         
    97     -2.625568   4 C  s                 5      2.048586   1 O  s         
    45      1.754675   2 C  pz               67      1.129486   3 C  s         
   127     -1.111042   5 H  s                44     -1.095916   2 C  py        
    96      1.096612   4 C  s                35     -1.003639   2 C  s         
 
 Vector   69  Occ=0.000000D+00  E= 1.472720D+00
              MO Center=  8.7D-01, -2.2D-01, -9.0D-01, r^2= 3.6D+00
   Bfn.  Coefficient  Atom+Function         Bfn.  Coefficient  Atom+Function  
  ----- ------------  ---------------      ----- ------------  ---------------
    66      2.138262   3 C  s                36      1.481050   2 C  s         
    98     -1.457361   4 C  s                 5     -1.409125   1 O  s         
    67     -1.341463   3 C  s                97      1.233473   4 C  s         
    71     -1.040817   3 C  px               65     -0.905208   3 C  s         
   103      0.899677   4 C  py              133      0.828303   6 H  s         
 
 Vector   70  Occ=0.000000D+00  E= 1.477725D+00
              MO Center=  9.8D-01, -3.9D-01, -1.0D+00, r^2= 3.3D+00
   Bfn.  Coefficient  Atom+Function         Bfn.  Coefficient  Atom+Function  
  ----- ------------  ---------------      ----- ------------  ---------------
    36      2.792629   2 C  s               156     -2.757606  10 H  s         
   157      2.112918  10 H  s               102     -2.045960   4 C  px        
   104     -1.817156   4 C  pz              126      1.788896   5 H  s         
   103      1.744244   4 C  py               66     -1.569067   3 C  s         
    35     -1.488352   2 C  s               127     -1.415893   5 H  s         
 
 Vector   71  Occ=0.000000D+00  E= 1.513421D+00
              MO Center=  2.9D-01,  1.8D-01, -3.0D-01, r^2= 3.9D+00
   Bfn.  Coefficient  Atom+Function         Bfn.  Coefficient  Atom+Function  
  ----- ------------  ---------------      ----- ------------  ---------------
    98      2.917358   4 C  s               144      1.835980   8 H  s         
   102     -1.561662   4 C  px              145     -1.397289   8 H  s         
    45      1.388944   2 C  pz               97     -1.335070   4 C  s         
    36     -1.230355   2 C  s               103     -1.234912   4 C  py        
   150     -0.840478   9 H  s               106      0.739423   4 C  py        
 
 Vector   72  Occ=0.000000D+00  E= 1.542240D+00
              MO Center=  3.9D-01,  4.2D-01, -2.4D-01, r^2= 4.7D+00
   Bfn.  Coefficient  Atom+Function         Bfn.  Coefficient  Atom+Function  
  ----- ------------  ---------------      ----- ------------  ---------------
    36      4.214519   2 C  s                35     -3.731355   2 C  s         
    98     -3.480682   4 C  s                97      3.169978   4 C  s         
    67     -2.464882   3 C  s                73      2.129298   3 C  pz        
   132     -1.738100   6 H  s               102     -1.439351   4 C  px        
   133      1.445100   6 H  s               138      1.351665   7 H  s         
 
 Vector   73  Occ=0.000000D+00  E= 1.576853D+00
              MO Center=  4.8D-01, -1.3D-03, -8.5D-02, r^2= 3.3D+00
   Bfn.  Coefficient  Atom+Function         Bfn.  Coefficient  Atom+Function  
  ----- ------------  ---------------      ----- ------------  ---------------
    35      3.353345   2 C  s                36     -2.540861   2 C  s         
    40     -2.013987   2 C  px               97     -1.976794   4 C  s         
   126      1.786870   5 H  s                67      1.611607   3 C  s         
    72      1.585830   3 C  py               42     -1.488482   2 C  pz        
    34     -1.407235   2 C  s               127     -1.267874   5 H  s         
 
 Vector   74  Occ=0.000000D+00  E= 1.599212D+00
              MO Center=  3.6D-01,  3.6D-01, -1.7D-01, r^2= 3.4D+00
   Bfn.  Coefficient  Atom+Function         Bfn.  Coefficient  Atom+Function  
  ----- ------------  ---------------      ----- ------------  ---------------
    36     -5.465295   2 C  s                66     -5.380681   3 C  s         
    35      5.342253   2 C  s                67      4.089770   3 C  s         
    41      3.788649   2 C  py               71     -2.608558   3 C  px        
    72      2.505988   3 C  py               40     -2.246623   2 C  px        
    98      1.746422   4 C  s                82      1.702372   3 C  d -2      
 
 Vector   75  Occ=0.000000D+00  E= 1.641790D+00
              MO Center=  4.8D-01,  1.5D-01, -5.1D-02, r^2= 3.7D+00
   Bfn.  Coefficient  Atom+Function         Bfn.  Coefficient  Atom+Function  
  ----- ------------  ---------------      ----- ------------  ---------------
    66      2.786154   3 C  s                35      2.300506   2 C  s         
    98      2.003648   4 C  s                 5     -1.866720   1 O  s         
    97     -1.741853   4 C  s                67     -1.281287   3 C  s         
   104     -1.229714   4 C  pz              144      1.160349   8 H  s         
   103     -1.142801   4 C  py              150     -1.111771   9 H  s         
 
 Vector   76  Occ=0.000000D+00  E= 1.695336D+00
              MO Center=  3.2D-01,  4.2D-01, -3.2D-01, r^2= 4.0D+00
   Bfn.  Coefficient  Atom+Function         Bfn.  Coefficient  Atom+Function  
  ----- ------------  ---------------      ----- ------------  ---------------
    97     -5.951128   4 C  s                35      5.411493   2 C  s         
    42     -3.296991   2 C  pz              104     -3.202244   4 C  pz        
    72     -2.434521   3 C  py                5     -2.351145   1 O  s         
   138      1.774653   7 H  s               102      1.673219   4 C  px        
    34     -1.649872   2 C  s                96      1.507285   4 C  s         
 
 Vector   77  Occ=0.000000D+00  E= 1.703513D+00
              MO Center=  1.7D-01, -1.6D-02, -1.6D-01, r^2= 3.5D+00
   Bfn.  Coefficient  Atom+Function         Bfn.  Coefficient  Atom+Function  
  ----- ------------  ---------------      ----- ------------  ---------------
     5      3.267973   1 O  s                72      2.615315   3 C  py        
    66     -2.586396   3 C  s                36     -2.070021   2 C  s         
    35      1.560390   2 C  s               138     -1.325750   7 H  s         
    12      1.281142   1 O  px               41      1.164029   2 C  py        
    67      1.116509   3 C  s                43      1.030522   2 C  px        
 
 Vector   78  Occ=0.000000D+00  E= 1.794384D+00
              MO Center=  3.9D-01,  2.5D-01,  3.8D-02, r^2= 3.5D+00
   Bfn.  Coefficient  Atom+Function         Bfn.  Coefficient  Atom+Function  
  ----- ------------  ---------------      ----- ------------  ---------------
    35      3.428319   2 C  s                97     -2.922137   4 C  s         
    36      1.800007   2 C  s                45     -1.355787   2 C  pz        
   104     -1.257058   4 C  pz               42     -1.112961   2 C  pz        
    67     -1.108707   3 C  s                72      1.096427   3 C  py        
   102      0.962534   4 C  px                5     -0.934825   1 O  s         
 
 Vector   79  Occ=0.000000D+00  E= 1.816445D+00
              MO Center= -6.0D-01,  1.9D-01,  1.8D-01, r^2= 2.6D+00
   Bfn.  Coefficient  Atom+Function         Bfn.  Coefficient  Atom+Function  
  ----- ------------  ---------------      ----- ------------  ---------------
    35      3.768069   2 C  s                 5     -3.196826   1 O  s         
    40     -2.456874   2 C  px               41      2.137862   2 C  py        
    72      1.972577   3 C  py               66     -1.751182   3 C  s         
    71     -1.623048   3 C  px               12     -1.342104   1 O  px        
   132     -1.057046   6 H  s               138     -1.061780   7 H  s         
 
 Vector   80  Occ=0.000000D+00  E= 1.844164D+00
              MO Center= -9.0D-04,  3.5D-01, -2.8D-02, r^2= 3.5D+00
   Bfn.  Coefficient  Atom+Function         Bfn.  Coefficient  Atom+Function  
  ----- ------------  ---------------      ----- ------------  ---------------
    36      1.627827   2 C  s                66     -1.382577   3 C  s         
    67     -1.034098   3 C  s                41      0.961525   2 C  py        
   156      0.887000  10 H  s                72      0.724401   3 C  py        
     5      0.629648   1 O  s               157     -0.606864  10 H  s         
    40     -0.601338   2 C  px              126      0.588472   5 H  s         
 
 Vector   81  Occ=0.000000D+00  E= 1.867456D+00
              MO Center=  6.1D-01,  1.1D-01, -5.3D-01, r^2= 4.0D+00
   Bfn.  Coefficient  Atom+Function         Bfn.  Coefficient  Atom+Function  
  ----- ------------  ---------------      ----- ------------  ---------------
    35      7.059172   2 C  s                66     -4.249679   3 C  s         
    97     -3.542949   4 C  s                72      3.464088   3 C  py        
   104     -2.076593   4 C  pz               36      2.016895   2 C  s         
    34     -1.677215   2 C  s                67     -1.467364   3 C  s         
    41      1.426516   2 C  py               45     -1.390883   2 C  pz        
 
 Vector   82  Occ=0.000000D+00  E= 1.921807D+00
              MO Center=  3.3D-01, -1.5D-01, -3.0D-01, r^2= 3.2D+00
   Bfn.  Coefficient  Atom+Function         Bfn.  Coefficient  Atom+Function  
  ----- ------------  ---------------      ----- ------------  ---------------
    98     -1.371514   4 C  s                36      1.312634   2 C  s         
   103     -1.247229   4 C  py               45     -1.192351   2 C  pz        
    97     -1.146986   4 C  s                35      0.985960   2 C  s         
    66     -0.868619   3 C  s                41      0.795138   2 C  py        
   150     -0.774574   9 H  s                42     -0.767174   2 C  pz        
 
 Vector   83  Occ=0.000000D+00  E= 1.995198D+00
              MO Center=  4.6D-01,  1.2D-02, -1.6D-01, r^2= 3.2D+00
   Bfn.  Coefficient  Atom+Function         Bfn.  Coefficient  Atom+Function  
  ----- ------------  ---------------      ----- ------------  ---------------
    67     -2.121376   3 C  s                36      1.947350   2 C  s         
    40     -1.906362   2 C  px               66     -1.432910   3 C  s         
    43     -1.366807   2 C  px               45     -1.258974   2 C  pz        
     5     -1.244743   1 O  s                44      1.221500   2 C  py        
    71     -1.131880   3 C  px               72      1.132767   3 C  py        
 
 Vector   84  Occ=0.000000D+00  E= 1.996729D+00
              MO Center=  1.0D+00, -3.4D-01, -9.2D-01, r^2= 3.3D+00
   Bfn.  Coefficient  Atom+Function         Bfn.  Coefficient  Atom+Function  
  ----- ------------  ---------------      ----- ------------  ---------------
    98      5.424756   4 C  s                36     -4.198451   2 C  s         
    35      3.874572   2 C  s                66     -2.313674   3 C  s         
    45      1.656692   2 C  pz              107      1.581397   4 C  pz        
    72      1.532803   3 C  py               41      1.386450   2 C  py        
    34     -1.284485   2 C  s                40     -1.243001   2 C  px        
 
 Vector   85  Occ=0.000000D+00  E= 2.090115D+00
              MO Center= -5.4D-02,  1.9D-01, -1.0D-02, r^2= 3.5D+00
   Bfn.  Coefficient  Atom+Function         Bfn.  Coefficient  Atom+Function  
  ----- ------------  ---------------      ----- ------------  ---------------
    98      2.138641   4 C  s                36     -1.908149   2 C  s         
   156     -0.761762  10 H  s               138      0.751083   7 H  s         
    14      0.652772   1 O  pz               41     -0.648145   2 C  py        
    40      0.578591   2 C  px               45      0.578697   2 C  pz        
    73     -0.525099   3 C  pz              105     -0.526798   4 C  px        
 
 Vector   86  Occ=0.000000D+00  E= 2.095682D+00
              MO Center= -4.0D-01,  7.1D-02,  8.6D-02, r^2= 2.9D+00
   Bfn.  Coefficient  Atom+Function         Bfn.  Coefficient  Atom+Function  
  ----- ------------  ---------------      ----- ------------  ---------------
    36      6.120272   2 C  s                67     -5.740702   3 C  s         
    35     -3.249553   2 C  s                66      3.176923   3 C  s         
    41     -2.987065   2 C  py               71      2.771134   3 C  px        
    13      1.928673   1 O  py               82     -1.476708   3 C  d -2      
    43     -1.380938   2 C  px               75      1.364375   3 C  py        
 
 Vector   87  Occ=0.000000D+00  E= 2.172530D+00
              MO Center=  5.2D-01, -3.4D-03, -4.9D-01, r^2= 3.2D+00
   Bfn.  Coefficient  Atom+Function         Bfn.  Coefficient  Atom+Function  
  ----- ------------  ---------------      ----- ------------  ---------------
    98      2.199543   4 C  s                67     -1.618065   3 C  s         
    35     -1.239023   2 C  s                73      1.039402   3 C  pz        
   156     -0.973339  10 H  s                40      0.858165   2 C  px        
    44      0.778908   2 C  py               45      0.760905   2 C  pz        
    43     -0.739110   2 C  px              144     -0.734961   8 H  s         
 
 Vector   88  Occ=0.000000D+00  E= 2.204007D+00
              MO Center=  4.0D-01,  1.7D-01, -2.9D-01, r^2= 3.6D+00
   Bfn.  Coefficient  Atom+Function         Bfn.  Coefficient  Atom+Function  
  ----- ------------  ---------------      ----- ------------  ---------------
    98      2.108865   4 C  s                36     -1.527718   2 C  s         
    45      1.012877   2 C  pz               76     -0.949144   3 C  pz        
   132      0.822610   6 H  s                42     -0.770037   2 C  pz        
    97     -0.729220   4 C  s               103     -0.700563   4 C  py        
   117     -0.657187   4 C  d  2            138     -0.603125   7 H  s         
 
 Vector   89  Occ=0.000000D+00  E= 2.234961D+00
              MO Center=  7.8D-01, -6.5D-02, -3.1D-01, r^2= 3.6D+00
   Bfn.  Coefficient  Atom+Function         Bfn.  Coefficient  Atom+Function  
  ----- ------------  ---------------      ----- ------------  ---------------
    36      3.543021   2 C  s                67     -2.000320   3 C  s         
    98     -1.470380   4 C  s                 5     -1.048316   1 O  s         
   150      0.995189   9 H  s                42     -0.980498   2 C  pz        
    35     -0.856985   2 C  s                43     -0.831086   2 C  px        
    45     -0.830453   2 C  pz               72     -0.721093   3 C  py        
 
 Vector   90  Occ=0.000000D+00  E= 2.243177D+00
              MO Center=  6.1D-01, -1.7D-01, -5.9D-01, r^2= 3.8D+00
   Bfn.  Coefficient  Atom+Function         Bfn.  Coefficient  Atom+Function  
  ----- ------------  ---------------      ----- ------------  ---------------
   150      1.077287   9 H  s                66     -0.912873   3 C  s         
    72      0.906028   3 C  py              144     -0.905956   8 H  s         
   117      0.719874   4 C  d  2             83      0.681387   3 C  d -1      
     5      0.651600   1 O  s                42      0.595712   2 C  pz        
   158      0.498186  10 H  px              138      0.431581   7 H  s         
 
 Vector   91  Occ=0.000000D+00  E= 2.266427D+00
              MO Center=  9.6D-01, -2.6D-01, -1.1D+00, r^2= 3.0D+00
   Bfn.  Coefficient  Atom+Function         Bfn.  Coefficient  Atom+Function  
  ----- ------------  ---------------      ----- ------------  ---------------
    66      2.233551   3 C  s                36      1.918079   2 C  s         
    67     -1.517100   3 C  s                41     -1.494565   2 C  py        
    35     -1.257826   2 C  s                72     -0.988973   3 C  py        
    71      0.903503   3 C  px              156      0.899119  10 H  s         
   126     -0.872414   5 H  s                98     -0.859251   4 C  s         
 
 Vector   92  Occ=0.000000D+00  E= 2.286775D+00
              MO Center=  5.3D-01,  8.5D-02, -2.3D-01, r^2= 3.6D+00
   Bfn.  Coefficient  Atom+Function         Bfn.  Coefficient  Atom+Function  
  ----- ------------  ---------------      ----- ------------  ---------------
    98      3.943704   4 C  s                36     -2.737522   2 C  s         
[...]
    21     -0.873321   1 O  d -1             42     -0.835882   2 C  pz        
    97     -0.760220   4 C  s                45     -0.692824   2 C  pz        
    67     -0.520273   3 C  s               102      0.516459   4 C  px        
     5     -0.513331   1 O  s                98     -0.514285   4 C  s         
 
 Vector  154  Occ=0.000000D+00  E= 6.679772D+00
              MO Center= -8.7D-01, -1.8D-01,  2.0D-01, r^2= 5.7D-01
   Bfn.  Coefficient  Atom+Function         Bfn.  Coefficient  Atom+Function  
  ----- ------------  ---------------      ----- ------------  ---------------
    18      1.054163   1 O  d  1             23     -1.035004   1 O  d  1      
    97     -0.905393   4 C  s                35      0.809203   2 C  s         
    42     -0.791624   2 C  pz              102      0.647027   4 C  px        
    54     -0.533841   2 C  d  1             16     -0.410833   1 O  d -1      
    14      0.407611   1 O  pz               21      0.405769   1 O  d -1      
 
 Vector  155  Occ=0.000000D+00  E= 6.844096D+00
              MO Center= -8.8D-01, -1.8D-01,  2.0D-01, r^2= 5.9D-01
   Bfn.  Coefficient  Atom+Function         Bfn.  Coefficient  Atom+Function  
  ----- ------------  ---------------      ----- ------------  ---------------
     5      2.081455   1 O  s                40      1.729397   2 C  px        
     9      1.348833   1 O  px               97     -1.328567   4 C  s         
     4      1.197542   1 O  s                20      1.062033   1 O  d -2      
    42     -1.014037   2 C  pz              104     -0.852462   4 C  pz        
    15     -0.840929   1 O  d -2             12      0.831473   1 O  px        
 
 Vector  156  Occ=0.000000D+00  E= 7.056585D+00
              MO Center= -8.8D-01, -1.8D-01,  2.0D-01, r^2= 6.4D-01
   Bfn.  Coefficient  Atom+Function         Bfn.  Coefficient  Atom+Function  
  ----- ------------  ---------------      ----- ------------  ---------------
    66     -3.175180   3 C  s                35      3.016120   2 C  s         
    40     -2.765972   2 C  px               72      2.692850   3 C  py        
    24     -1.586286   1 O  d  2             36      1.518508   2 C  s         
    67     -1.350663   3 C  s                10      1.287799   1 O  py        
    19      1.018601   1 O  d  2             13      0.873138   1 O  py        
 
 Vector  157  Occ=0.000000D+00  E= 2.195794D+01
              MO Center=  1.3D-01,  7.1D-01, -1.5D-02, r^2= 1.4D+00
   Bfn.  Coefficient  Atom+Function         Bfn.  Coefficient  Atom+Function  
  ----- ------------  ---------------      ----- ------------  ---------------
    64      1.546913   3 C  s                67     -1.305195   3 C  s         
    65     -1.295178   3 C  s                63     -1.218521   3 C  s         
    98      1.131255   4 C  s                95     -0.843324   4 C  s         
    96      0.697054   4 C  s                94      0.666353   4 C  s         
    40     -0.533863   2 C  px               35      0.454765   2 C  s         
 
 Vector  158  Occ=0.000000D+00  E= 2.198437D+01
              MO Center=  8.2D-01, -1.9D-01, -6.3D-01, r^2= 1.3D+00
   Bfn.  Coefficient  Atom+Function         Bfn.  Coefficient  Atom+Function  
  ----- ------------  ---------------      ----- ------------  ---------------
    95      1.362133   4 C  s                96     -1.266019   4 C  s         
    94     -1.071218   4 C  s                98     -1.057386   4 C  s         
    34     -1.019300   2 C  s                36     -0.950454   2 C  s         
    33      0.915008   2 C  s                32     -0.714766   2 C  s         
    65     -0.712899   3 C  s                64      0.680163   3 C  s         
 
 Vector  159  Occ=0.000000D+00  E= 2.211937D+01
              MO Center=  6.2D-01, -1.2D-01, -9.7D-02, r^2= 7.2D-01
   Bfn.  Coefficient  Atom+Function         Bfn.  Coefficient  Atom+Function  
  ----- ------------  ---------------      ----- ------------  ---------------
    36      2.189857   2 C  s                33     -1.525366   2 C  s         
    34      1.502825   2 C  s                98     -1.325365   4 C  s         
    35     -1.272651   2 C  s                32      1.193718   2 C  s         
    67     -1.147261   3 C  s                95      0.751384   4 C  s         
    96     -0.662652   4 C  s                97      0.625659   4 C  s         
 
 Vector  160  Occ=0.000000D+00  E= 4.342019D+01
              MO Center= -8.7D-01, -1.8D-01,  2.1D-01, r^2= 1.2D-01
   Bfn.  Coefficient  Atom+Function         Bfn.  Coefficient  Atom+Function  
  ----- ------------  ---------------      ----- ------------  ---------------
     4      2.525779   1 O  s                 3     -1.879310   1 O  s         
     2      1.731890   1 O  s                 1     -1.395901   1 O  s         
     5     -0.867790   1 O  s                36      0.813080   2 C  s         
     9      0.566070   1 O  px               66     -0.535597   3 C  s         
    72      0.485786   3 C  py               40      0.456872   2 C  px        
 

 center of mass
 --------------
 x =   0.30619305 y =   0.09486548 z =  -0.27792508

 moments of inertia (a.u.)
 ------------------
         198.663759267904          45.807480960581          83.372277580844
          45.807480960581         246.681695843045         -52.269158856755
          83.372277580844         -52.269158856755         237.455007896309
 
     Multipole analysis of the density
     ---------------------------------
 
     L   x y z        total         alpha         beta         nuclear
     -   - - -        -----         -----         ----         -------
     0   0 0 0     -0.000000    -16.000000    -16.000000     32.000000
 
     1   1 0 0      0.687767     -6.233057     -6.233057     13.153880
     1   0 1 0      0.313868     -1.613826     -1.613826      3.541520
     1   0 0 1     -0.059435      5.317403      5.317403    -10.694241
 
     2   2 0 0    -20.008218    -54.176023    -54.176023     88.343829
     2   1 1 0     -1.115126     13.945347     13.945347    -29.005819
     2   1 0 1      0.154906     26.365227     26.365227    -52.575548
     2   0 2 0    -17.863631    -40.292514    -40.292514     62.721398
     2   0 1 1      0.229178    -15.289401    -15.289401     30.807980
     2   0 0 2    -18.198146    -45.525693    -45.525693     72.853240
 
 *** CALLING NEW AORESP DRIVER FOR CLOSED AND OPEN SHELLS ***
 Entering AOResponse driver routine


--------------------------------------------------------------------------------

          ****************
          *** RESPONSE ***
          ****************

 Response module for NWChem and dynamic CPKS solver
 developed by J. Autschbach and coworkers, SUNY Buffalo
 The methodology used in this program is described in 
 ChemPhysChem 12 (2011), 3224-3235 (main reference)
 J. Chem. Phys. 123 (2005), 114103
 J. Chem. Phys. 122 (2005), 224115
 J. Chem. Phys. 122 (2005), 074105
 Comp. Lett. 3 (2007), 131-150 (contact JA for a copy)
 Please cite this work in publications based on results
 obtained with this code. Thank you!

 For extension of response module to open shell
 calculations please acknowledge:
 F. Aquino, Northwestern University, Schatz Rsrch Group
 The update to the methodology is described in
 J. Phys. Chem. A 118 (2014) 517-525



          -----------------------------------------------
          Solving response equations for perturbing field
          -----------------------------------------------

 number of frequencies:     1
 frequency in a.u.:  0.9319600E-01
 Perturbing field: electric
 Using GIAO formalism for OptRot
 Adding quadrupole terms to OptRot
 to create an origin in dependent tensor.
 Using El. Dipole Length Gauge
 
 Applying DAMPING constant of  0.003700 a.u.
 
 Setting up CPKS
 with frequency omega =      0.09319600 a.u.
 and a damping of            0.00370000 a.u.

 
                            NWChem Dynamic CPHF Module
                            --------------------------
 
 
    scftype = RHF 
    nclosed =   16
      nopen =    0
  variables =     9216
  num. vecs =        3
  tolerance =   1.0D-07
  max. iter =  100

 SCF residual:   4.893556472975598E-006


Iterative solution of linear equations
  No. of variables     4608
  No. of equations        3
  Maximum subspace       99
       Convergence  1.0D-07
        Start time    101.3


   iter   nsub   residual    time 
   ----  ------  --------  --------- 
 dft_CPHF2_read: failed to open
 ./methyloxirane_blyp-def2-tzvp_488.9_07.inp.aoresp_fiao_f1
     1      3    3.86D+00     153.7
     2      6    2.61D+00     206.3
     3      9    2.44D-01     258.9
     4     12    5.39D-02     311.5
     5     15    1.02D-02     364.1
     6     18    1.27D-03     416.7
     7     21    1.43D-04     469.4
     8     24    1.35D-05     522.0
     9     27    1.26D-06     574.6
    10     30    4.84D-07     627.2
    11     33    1.32D-08     679.8

 Calculating some arrays needed for GIAO optical rotation

    0 giaofock schwarz done =      92.18%
    0 giaofock schwarz done =      92.18%
 aor_r1_tensor_giao: roadata output requested
 dip-quad polarizability Re:

              1        2        3        4        5        6      
    1   77.4332  -6.2509 -27.0312  -4.4423   0.8950   8.5538
    2  -11.7274  25.7918   3.1166  23.1858 -21.4292   4.5109
    3   -6.1053   0.8575  38.8535  -0.0071  14.3976 -41.1916
 traceless dip-quad polarizability:

              1        2        3      
    1   75.3775  -9.3763 -40.5468
    2   -9.3763 -47.4358   1.3425
    3  -40.5468   1.3425 -27.9417

              1        2        3      
    1  -25.5757  38.6878   4.6748
    2   38.6878  26.7941 -32.1439
    3    4.6748 -32.1439  -1.2183

              1        2        3      
    1   14.4940   1.2862  58.2803
    2    1.2862  23.6414  21.5965
    3   58.2803  21.5965 -38.1354

 roa begin

 alpha real:
 XX       0.4091200408214E+02
 XY      -0.5258408955217E+01
 XZ      -0.3017900872216E+01
 YX      -0.5258408965685E+01
 YY       0.4394488272336E+02
 YZ       0.3117949479379E+01
 ZX      -0.3017900880155E+01
 ZY       0.3117949479052E+01
 ZZ       0.4137387962845E+02

 alpha im:
 XX       0.1110915831203E+00
 XY      -0.3043246215233E-01
 XZ      -0.1115863428070E-01
 YX      -0.3043245745394E-01
 YY       0.1290138241649E+00
 YZ       0.1815552249180E-01
 ZX      -0.1115863191087E-01
 ZY       0.1815552390864E-01
 ZZ       0.1221735842819E+00

 beta real:
 XX      -0.1383832209449E+00
 XY       0.9426678237215E+00
 XZ       0.1984073819260E+00
 YX      -0.8863864693564E+00
 YY       0.1445685605915E+00
 YZ      -0.1557452505608E+01
 ZX      -0.4902375487177E+00
 ZY       0.1873616317804E+01
 ZZ      -0.1083252507257E-01

 G-prime = -omega beta(real):
 XX      -0.1383832209449E+00
 XY       0.9426678237215E+00
 XZ       0.1984073819260E+00
 YX      -0.8863864693564E+00
 YY       0.1445685605915E+00
 YZ      -0.1557452505608E+01
 ZX      -0.4902375487177E+00
 ZY       0.1873616317804E+01
 ZZ      -0.1083252507257E-01

 beta im:
 XX      -0.5925450110799E-02
 XY       0.1348844822840E-01
 XZ       0.2707935035930E-02
 YX      -0.7549628808736E-02
 YY       0.4817026898386E-02
 YZ      -0.2393377759522E-01
 ZX      -0.1410686011953E-01
 ZY       0.4014034591636E-01
 ZZ       0.2229778104895E-03

 G-prime = -omega beta(imag):
 XX      -0.5925450110799E-02
 XY       0.1348844822840E-01
 XZ       0.2707935035930E-02
 YX      -0.7549628808736E-02
 YY       0.4817026898386E-02
 YZ      -0.2393377759522E-01
 ZX      -0.1410686011953E-01
 ZY       0.4014034591636E-01
 ZZ       0.2229778104895E-03

 dipole-quadrupole real (Cartesian):
 XXX      0.7743320811414E+02
 XXY     -0.6250852180194E+01
 XXZ     -0.2703120155390E+02
 XYY     -0.4442336645026E+01
 XYZ      0.8950044521583E+00
 XZZ      0.8553771035724E+01
 YXX     -0.1172738347470E+02
 YXY      0.2579184032973E+02
 YXZ      0.3116554225678E+01
 YYY      0.2318582825104E+02
 YYZ     -0.2142924202635E+02
 YZZ      0.4510894874716E+01
 ZXX     -0.6105305518402E+01
 ZXY      0.8574870193012E+00
 ZXZ      0.3885353075865E+02
 ZYY     -0.7068838410949E-02
 ZYZ      0.1439763885683E+02
 ZZZ     -0.4119162562232E+02

 dipole-quadrupole imag (Cartesian):
 XXX      0.2722218533621E+00
 XXY     -0.3481445248937E-01
 XXZ     -0.7447834288330E-01
 XYY     -0.2931679968485E-01
 XYZ      0.9872016530804E-03
 XZZ      0.5785335377101E-01
 YXX     -0.5653685939301E-01
 YXY      0.6284182848120E-01
 YXZ      0.1839469473872E-01
 YYY      0.9234480686814E-01
 YYZ     -0.6158650381169E-01
 YZZ      0.1206172691418E-01
 ZXX     -0.3131520097176E-01
 ZXY     -0.8008861638177E-03
 ZXZ      0.1423980313716E+00
 ZYY      0.4855227373456E-02
 ZYZ      0.7056733824280E-01
 ZZZ     -0.9404120703996E-01

 dipole-quadrupole (traceless):
 XXX      0.7537749091879E+02
 XXY     -0.9376278270291E+01
 XXZ     -0.4054680233086E+02
 XYY     -0.4743582621996E+02
 XYZ      0.1342506678237E+01
 XZZ     -0.2794166469883E+02
 YXX     -0.2557574503758E+02
 YXY      0.3868776049459E+02
 YXZ      0.4674831338517E+01
 YYY      0.2679407255104E+02
 YYZ     -0.3214386303953E+02
 YZZ     -0.1218327513455E+01
 ZXX      0.1449404171197E+02
 ZXY      0.1286230528952E+01
 ZXZ      0.5828029613797E+02
 ZYY      0.2364139673195E+02
 ZYZ      0.2159645828524E+02
 ZZZ     -0.3813543844392E+02

 roa end


 Electric Dipole Response Matrix (nonzero elements):

              1        2        3      
    1   40.9120  -5.2584  -3.0179
    2   -5.2584  43.9449   3.1179
    3   -3.0179   3.1179  41.3739
 
 Imaginary part:

              1        2        3      
    1    0.1111  -0.0304  -0.0112
    2   -0.0304   0.1290   0.0182
    3   -0.0112   0.0182   0.1222

 ------------------------------------------
 average:        42.07692 + I       0.12076


 DFT Linear Response polarizability / au 
 Frequency  =       0.0931960 / au
 Wavelength =     488.8981609 / nm
              X              Y              Z
 -----------------------------------------------
 X      40.9120041     -5.2584090     -3.0179009
 Y      -5.2584090     43.9448827      3.1179495
 Z      -3.0179009      3.1179495     41.3738796
 -----------------------------------------------
 Eigenvalues =      36.8542373     50.0448644     39.3316648
 Isotropic   =      42.0769221
 Anisotropic =       9.9146850
 -----------------------------------------------
 *************************

 DFT Linear Response IMAG polarizability / au 
 Frequency  =       0.0931960 / au
 Wavelength =     488.8981609 / nm
              X              Y              Z
 -----------------------------------------------
 X       0.1110916     -0.0304325     -0.0111586
 Y      -0.0304325      0.1290138      0.0181555
 Z      -0.0111586      0.0181555      0.1221736
 -----------------------------------------------
 Eigenvalues =       0.0881885      0.1628603      0.1112302
 Isotropic   =       0.1207597
 Anisotropic =       0.0540754
 -----------------------------------------------
 *************************

 Magnetic Dipole Response Matrix (nonzero elements):
 Optical rotation tensor Beta
 (Buckingham-Dunn version including dipole-quadrupole terms)

              1        2        3      
    1    2.6144  -0.4260   0.4631
    2   -0.4260  -1.5700  -1.6798
    3    0.4631  -1.6798  -0.9945
 
 Imaginary part:

              1        2        3      
    1    0.0636  -0.1447  -0.0291
    2    0.0810  -0.0517   0.2568
    3    0.1514  -0.4307  -0.0024

 ------------------------------------------
 average:         0.01662 + I       0.00317

 Principal components and PAS (Real part)
                 -2.98670
                  2.78200
                  0.25456
 ------------------------
 average:         0.01662

              1        2        3      
    1    0.0049   0.9663  -0.2574
    2    0.7650  -0.1694  -0.6213
    3    0.6440   0.1939   0.7401

 Chiral response tensor (Real part):

              1        2        3      
    1   -1.2823   0.2130  -0.2316
    2    0.2130   0.8099   0.8399
    3   -0.2316   0.8399   0.5222
 
 Principal components and PAS (Real part)
                  1.51828
                 -1.36607
                 -0.10235
 ------------------------
 average:         0.01662

              1        2        3      
    1    0.0049   0.9663  -0.2574
    2    0.7650  -0.1694  -0.6213
    3    0.6440   0.1939   0.7401
 Exiting AOResponse driver routine

 Task  times  cpu:      660.1s     wall:      667.7s
 
 
                                NWChem Input Module
                                -------------------
 
 
 Summary of allocated global arrays
-----------------------------------
  No active global arrays



                         GA Statistics for process    0
                         ------------------------------

       create   destroy   get      put      acc     scatter   gather  read&inc
calls: 3294     3294     6.41e+06 3.14e+06 6.70e+05 2694        0     1067     
number of processes/call 1.01e+00 1.03e+00 1.41e+00 0.00e+00 0.00e+00
bytes total:             1.55e+09 1.26e+08 1.61e+09 1.84e+02 0.00e+00 8.54e+03
bytes remote:            6.49e+08 3.29e+07 8.86e+08 0.00e+00 0.00e+00 0.00e+00
Max memory consumed for GA by this process: 11242192 bytes
 
MA_summarize_allocated_blocks: starting scan ...
MA_summarize_allocated_blocks: scan completed: 0 heap blocks, 0 stack blocks
MA usage statistics:

	allocation statistics:
					      heap	     stack
					      ----	     -----
	current number of blocks	         0	         0
	maximum number of blocks	        24	        52
	current total bytes		         0	         0
	maximum total bytes		   7519856	  48868392
	maximum total K-bytes		      7520	     48869
	maximum total M-bytes		         8	        49
 
 
                                     CITATION
                                     --------
                Please cite the following reference when publishing
                           results obtained with NWChem:
 
                 M. Valiev, E.J. Bylaska, N. Govind, K. Kowalski,
              T.P. Straatsma, H.J.J. van Dam, D. Wang, J. Nieplocha,
                        E. Apra, T.L. Windus, W.A. de Jong
                 "NWChem: a comprehensive and scalable open-source
                  solution for large scale molecular simulations"
                      Comput. Phys. Commun. 181, 1477 (2010)
                           doi:10.1016/j.cpc.2010.04.018
 
                                      AUTHORS
                                      -------
          E. Apra, E. J. Bylaska, W. A. de Jong, N. Govind, K. Kowalski,
       T. P. Straatsma, M. Valiev, H. J. J. van Dam, D. Wang, T. L. Windus,
        J. Hammond, J. Autschbach, K. Bhaskaran-Nair, J. Brabec, K. Lopata,
    S. A. Fischer, S. Krishnamoorthy, M. Jacquelin, W. Ma, M. Klemm, O. Villa,
      Y. Chen, V. Anisimov, F. Aquino, S. Hirata, M. T. Hackler, V. Konjkov,
            D. Mejia-Rodriguez, T. Risthaus, M. Malagoli, A. Marenich,
   A. Otero-de-la-Roza, J. Mullin, P. Nichols, R. Peverati, J. Pittner, Y. Zhao,
        P.-D. Fan, A. Fonari, M. J. Williamson, R. J. Harrison, J. R. Rehr,
      M. Dupuis, D. Silverstein, D. M. A. Smith, J. Nieplocha, V. Tipparaju,
    M. Krishnan, B. E. Van Kuiken, A. Vazquez-Mayagoitia, L. Jensen, M. Swart,
      Q. Wu, T. Van Voorhis, A. A. Auer, M. Nooijen, L. D. Crosby, E. Brown,
      G. Cisneros, G. I. Fann, H. Fruchtl, J. Garza, K. Hirao, R. A. Kendall,
      J. A. Nichols, K. Tsemekhman, K. Wolinski, J. Anchell, D. E. Bernholdt,
      P. Borowski, T. Clark, D. Clerc, H. Dachsel, M. J. O. Deegan, K. Dyall,
    D. Elwood, E. Glendening, M. Gutowski, A. C. Hess, J. Jaffe, B. G. Johnson,
     J. Ju, R. Kobayashi, R. Kutteh, Z. Lin, R. Littlefield, X. Long, B. Meng,
      T. Nakajima, S. Niu, L. Pollack, M. Rosing, K. Glaesemann, G. Sandrone,
      M. Stave, H. Taylor, G. Thomas, J. H. van Lenthe, A. T. Wong, Z. Zhang.

 Total times  cpu:      739.8s     wall:      748.7s
