 argument  1 = methyloxirane_blyp-def2-tzvp_488.9_16.inp
 


============================== echo of input deck ==============================
echo
start methyloxirane_blyp-def2-tzvp_488.9_16.inp
title "methyloxirane roa calculations at 488.9 nm, input generated in va  with delta_type=2"
charge 0



geometry units angstrom nocenter noautoz noautosym nucleus point;symmetry c1
 O -0.879143 -0.180369  0.205251
 C  0.574334 -0.158843  0.122353
 C -0.185624  1.088248  0.340113
 C  1.184900 -0.521885 -1.211343
 H  1.058423 -0.601934  0.999698
 H -0.228162  1.541916  1.333960
 H -0.325213  1.785760 -0.490572
 H  2.236622 -0.202378 -1.258473
 H  1.138250 -1.608748 -1.360716
 H  0.667550 -0.013188 -2.034648
end

basis spherical
* library def2-TZVP
end

 set prop:newaoresp 1
 set aor:roadata T
 set cphf:maxsub 100
 set cphf:acc 1.0d-10
 set cphf:maxiter 100

property
    response 1   0.093196
    bdtensor
    convergence 1e-7
    damping 0.0037
    giao
end

dft
 direct
 mult 1
 xc becke88 lyp
 iterations 250
 tolerances tight
 grid xfine
 convergence nolevelshifting
 convergence energy 1e-8
 convergence gradient 1e-7


end

task dft gradient
task dft property
================================================================================


                                         
                                         
 
 
              Northwest Computational Chemistry Package (NWChem) 6.8
              ------------------------------------------------------
 
 
                    Environmental Molecular Sciences Laboratory
                       Pacific Northwest National Laboratory
                                Richland, WA 99352
 
                              Copyright (c) 1994-2017
                       Pacific Northwest National Laboratory
                            Battelle Memorial Institute
 
             NWChem is an open-source computational chemistry package
                        distributed under the terms of the
                      Educational Community License (ECL) 2.0
             A copy of the license is included with this distribution
                              in the LICENSE.TXT file
 
                                  ACKNOWLEDGMENT
                                  --------------

            This software and its documentation were developed at the
            EMSL at Pacific Northwest National Laboratory, a multiprogram
            national laboratory, operated for the U.S. Department of Energy
            by Battelle under Contract Number DE-AC05-76RL01830. Support
            for this work was provided by the Department of Energy Office
            of Biological and Environmental Research, Office of Basic
            Energy Sciences, and the Office of Advanced Scientific Computing.


           Job information
           ---------------

    hostname        = cpn-f15-33.cbls.ccr.buffalo.edu
    program         = /util/academic/nwchem/nwchem-6.8/bin/LINUX64/nwchem
    date            = Fri Mar  1 10:08:39 2019

    compiled        = Tue_Nov_06_14:59:08_2018
    source          = /util/academic/nwchem/nwchem-6.8
    nwchem branch   = 6.8
    nwchem revision = v6.8-47-gdf6c956
    ga revision     = ga-5.6.3
    use scalapack   = F
    input           = methyloxirane_blyp-def2-tzvp_488.9_16.inp
    prefix          = methyloxirane_blyp-def2-tzvp_488.9_16.inp.
    data base       = ./methyloxirane_blyp-def2-tzvp_488.9_16.inp.db
    status          = startup
    nproc           =        7
    time left       =     -1s



           Memory information
           ------------------

    heap     =   13107196 doubles =    100.0 Mbytes
    stack    =   13107201 doubles =    100.0 Mbytes
    global   =   26214400 doubles =    200.0 Mbytes (distinct from heap & stack)
    total    =   52428797 doubles =    400.0 Mbytes
    verify   = yes
    hardfail = no 


           Directory information
           ---------------------
 
  0 permanent = .
  0 scratch   = .
 
 
 
 
                                NWChem Input Module
                                -------------------
 
 
                    methyloxirane roa calculations at 488.9 nm, input generated in va  with delta_type=2
                    ------------------------------------------

 Scaling coordinates for geometry "geometry" by  1.889725989
 (inverse scale =  0.529177249)

 
 
                             Geometry "geometry" -> ""
                             -------------------------
 
 Output coordinates in angstroms (scale by  1.889725989 to convert to a.u.)
 
  No.       Tag          Charge          X              Y              Z
 ---- ---------------- ---------- -------------- -------------- --------------
    1 O                    8.0000    -0.87914300    -0.18036900     0.20525100
    2 C                    6.0000     0.57433400    -0.15884300     0.12235300
    3 C                    6.0000    -0.18562400     1.08824800     0.34011300
    4 C                    6.0000     1.18490000    -0.52188500    -1.21134300
    5 H                    1.0000     1.05842300    -0.60193400     0.99969800
    6 H                    1.0000    -0.22816200     1.54191600     1.33396000
    7 H                    1.0000    -0.32521300     1.78576000    -0.49057200
    8 H                    1.0000     2.23662200    -0.20237800    -1.25847300
    9 H                    1.0000     1.13825000    -1.60874800    -1.36071600
   10 H                    1.0000     0.66755000    -0.01318800    -2.03464800
 
      Atomic Mass 
      ----------- 
 
      O                 15.994910
      C                 12.000000
      H                  1.007825
 

 Effective nuclear repulsion energy (a.u.)     123.5176249120

            Nuclear Dipole moment (a.u.) 
            ----------------------------
        X                 Y               Z
 ---------------- ---------------- ----------------
    13.1449075204     3.5972748330   -10.6996379960
 
 
            XYZ format geometry
            -------------------
    10
 geometry
 O                    -0.87914300    -0.18036900     0.20525100
 C                     0.57433400    -0.15884300     0.12235300
 C                    -0.18562400     1.08824800     0.34011300
 C                     1.18490000    -0.52188500    -1.21134300
 H                     1.05842300    -0.60193400     0.99969800
 H                    -0.22816200     1.54191600     1.33396000
 H                    -0.32521300     1.78576000    -0.49057200
 H                     2.23662200    -0.20237800    -1.25847300
 H                     1.13825000    -1.60874800    -1.36071600
 H                     0.66755000    -0.01318800    -2.03464800
 
 ==============================================================================
                                internuclear distances
 ------------------------------------------------------------------------------
       center one      |      center two      | atomic units |  angstroms
 ------------------------------------------------------------------------------
    2 C                |   1 O                |     2.75144  |     1.45600
    3 C                |   1 O                |     2.74404  |     1.45208
    3 C                |   2 C                |     2.79027  |     1.47655
    4 C                |   2 C                |     2.85551  |     1.51107
    5 H                |   2 C                |     2.07044  |     1.09563
    6 H                |   3 C                |     2.06608  |     1.09332
    7 H                |   3 C                |     2.06668  |     1.09364
    8 H                |   4 C                |     2.07906  |     1.10019
    9 H                |   4 C                |     2.07505  |     1.09807
   10 H                |   4 C                |     2.07376  |     1.09739
 ------------------------------------------------------------------------------
                         number of included internuclear distances:         10
 ==============================================================================



 ==============================================================================
                                 internuclear angles
 ------------------------------------------------------------------------------
        center 1       |       center 2       |       center 3       |  degrees
 ------------------------------------------------------------------------------
    2 C                |   1 O                |   3 C                |    61.03
    2 C                |   1 O                |   3 C                |    61.03
    1 O                |   2 C                |   4 C                |   116.75
    1 O                |   2 C                |   5 H                |   112.92
    3 C                |   2 C                |   4 C                |   122.76
    3 C                |   2 C                |   5 H                |   116.80
    4 C                |   2 C                |   5 H                |   115.54
    3 C                |   1 O                |   2 C                |    61.03
    1 O                |   3 C                |   6 H                |   115.36
    1 O                |   3 C                |   7 H                |   115.20
    2 C                |   3 C                |   6 H                |   120.30
    2 C                |   3 C                |   7 H                |   119.50
    6 H                |   3 C                |   7 H                |   114.89
    2 C                |   4 C                |   8 H                |   110.75
    2 C                |   4 C                |   9 H                |   109.92
    2 C                |   4 C                |  10 H                |   111.12
    8 H                |   4 C                |   9 H                |   108.80
    8 H                |   4 C                |  10 H                |   106.49
    9 H                |   4 C                |  10 H                |   109.68
 ------------------------------------------------------------------------------
                            number of included internuclear angles:         19
 ==============================================================================



  warning:::::::::::::: from_environment
  NWCHEM_BASIS_LIBRARY set to: <
 /util/academic/nwchem/nwchem-6.8/src/basis/libraries>
  but file does not exist !
  using .nwchemrc or compiled library


 Summary of "ao basis" -> "" (spherical)
 ------------------------------------------------------------------------------
       Tag                 Description            Shells   Functions and Types
 ---------------- ------------------------------  ------  ---------------------
 *                         def2-TZVP                  on all atoms 


 
                                 NWChem DFT Module
                                 -----------------
 
 
                    methyloxirane roa calculations at 488.9 nm, input generated in va  with delta_type=2
 
 
                      Basis "ao basis" -> "ao basis" (spherical)
                      -----
  O (Oxygen)
  ----------
            Exponent  Coefficients 
       -------------- ---------------------------------------------------------
  1 S  2.70323826E+04  0.000217
  1 S  4.05238714E+03  0.001684
  1 S  9.22327227E+02  0.008740
  1 S  2.61240710E+02  0.035240
  1 S  8.53546414E+01  0.111535
  1 S  3.10350352E+01  0.255890
 
  2 S  1.22608607E+01  0.397687
  2 S  4.99870760E+00  0.246278
 
  3 S  1.17031082E+00  1.000000
 
  4 S  4.64747410E-01  1.000000
 
  5 S  1.85045364E-01  1.000000
 
  6 P  6.32749548E+01  0.006069
  6 P  1.46270494E+01  0.041913
  6 P  4.45012235E+00  0.161538
  6 P  1.52757996E+00  0.357070
 
  7 P  5.29351179E-01  1.000000
 
  8 P  1.74784213E-01  1.000000
 
  9 D  2.31400000E+00  1.000000
 
 10 D  6.45000000E-01  1.000000
 
 11 F  1.42800000E+00  1.000000
 
  C (Carbon)
  ----------
            Exponent  Coefficients 
       -------------- ---------------------------------------------------------
  1 S  1.35753497E+04  0.000222
  1 S  2.03523337E+03  0.001723
  1 S  4.63225624E+02  0.008926
  1 S  1.31200196E+02  0.035728
  1 S  4.28530159E+01  0.110763
  1 S  1.55841858E+01  0.242956
 
  2 S  6.20671385E+00  0.414403
  2 S  2.57648965E+00  0.237450
 
  3 S  5.76963394E-01  1.000000
 
  4 S  2.29728314E-01  1.000000
 
  5 S  9.51644400E-02  1.000000
 
  6 P  3.46972322E+01  0.005333
  6 P  7.95826228E+00  0.035864
  6 P  2.37808269E+00  0.142159
  6 P  8.14332082E-01  0.342705
 
  7 P  2.88875473E-01  1.000000
 
  8 P  1.00568237E-01  1.000000
 
  9 D  1.09700000E+00  1.000000
 
 10 D  3.18000000E-01  1.000000
 
 11 F  7.61000000E-01  1.000000
 
  H (Hydrogen)
  ------------
            Exponent  Coefficients 
       -------------- ---------------------------------------------------------
  1 S  3.40613410E+01  0.006025
  1 S  5.12357460E+00  0.045021
  1 S  1.16466260E+00  0.201897
 
  2 S  3.27230410E-01  1.000000
 
  3 S  1.03072410E-01  1.000000
 
  4 P  8.00000000E-01  1.000000
 


 Summary of "ao basis" -> "ao basis" (spherical)
 ------------------------------------------------------------------------------
       Tag                 Description            Shells   Functions and Types
 ---------------- ------------------------------  ------  ---------------------
 O                         def2-TZVP                11       31   5s3p2d1f
 C                         def2-TZVP                11       31   5s3p2d1f
 H                         def2-TZVP                 4        6   3s1p




 Summary of "ao basis" -> "ao basis" (spherical)
 ------------------------------------------------------------------------------
       Tag                 Description            Shells   Functions and Types
 ---------------- ------------------------------  ------  ---------------------
 O                         def2-TZVP                11       31   5s3p2d1f
 C                         def2-TZVP                11       31   5s3p2d1f
 H                         def2-TZVP                 4        6   3s1p


  Caching 1-el integrals 
  itol2e modified to match energy
  convergence criterion.
  tol_rho modified to match energy
  convergence criterion.
 
            General Information
            -------------------
          SCF calculation type: DFT
          Wavefunction type:  closed shell.
          No. of atoms     :    10
          No. of electrons :    32
           Alpha electrons :    16
            Beta electrons :    16
          Charge           :     0
          Spin multiplicity:     1
          Use of symmetry is: off; symmetry adaption is: off
          Maximum number of iterations: 250
          This is a Direct SCF calculation.
          AO basis - number of functions:   160
                     number of shells:    68
          Convergence on energy requested:  1.00D-08
          Convergence on density requested:  1.00D-05
          Convergence on gradient requested:  1.00D-07
 
              XC Information
              --------------
                    Becke 1988 Exchange Functional  1.000          
              Lee-Yang-Parr Correlation Functional  1.000          
 
             Grid Information
             ----------------
          Grid used for XC integration:  xfine     
          Radial quadrature: Mura-Knowles        
          Angular quadrature: Lebedev. 
          Tag              B.-S. Rad. Rad. Pts. Rad. Cut. Ang. Pts.
          ---              ---------- --------- --------- ---------
          O                   0.60      100          11.0      1454
          C                   0.70      100          11.0      1454
          H                   0.35      100          12.0      1202
          Grid pruning is: on 
          Number of quadrature shells:  1000
          Spatial weights used:  Erf1
 
          Convergence Information
          -----------------------
          Convergence aids based upon iterative change in 
          total energy or number of iterations. 
          Levelshifting, if invoked, occurs when the 
          HOMO/LUMO gap drops below (HL_TOL):  1.00D-02
          DIIS, if invoked, will attempt to extrapolate 
          using up to (NFOCK): 10 stored Fock matrices.

                    Damping( 0%)  Levelshifting(0.0)       DIIS
                  --------------- ------------------- ---------------
          dE  on:    start             N/A                start   
          dE off:    2 iters           N/A              250 iters 

 
      Screening Tolerance Information
      -------------------------------
          Density screening/tol_rho:  1.00D-11
          AO Gaussian exp screening on grid/accAOfunc:  18
          CD Gaussian exp screening on grid/accCDfunc:  20
          XC Gaussian exp screening on grid/accXCfunc:  20
          Schwarz screening/accCoul:  1.00D-09

 
      Superposition of Atomic Density Guess
      -------------------------------------
 
 Sum of atomic energies:        -190.79714706
 
      Non-variational initial energy
      ------------------------------

 Total energy =    -193.160004
 1-e energy   =    -501.998380
 2-e energy   =     185.320751
 HOMO         =      -0.351722
 LUMO         =       0.090135
 
   Time after variat. SCF:      0.5
   Time prior to 1st pass:      0.5

 Grid_pts file          = ./methyloxirane_blyp-def2-tzvp_488.9_16.inp.gridpts.0
 Record size in doubles =  12289        No. of grid_pts per rec  =   3070
 Max. records in memory =     76        Max. recs in file   =   1218515


           Memory utilization after 1st SCF pass: 
           Heap Space remaining (MW):       12.17            12167540
          Stack Space remaining (MW):       13.11            13106124

   convergence    iter        energy       DeltaE   RMS-Dens  Diis-err    time
 ---------------- ----- ----------------- --------- --------- ---------  ------
 d= 0,ls=0.0,diis     1   -193.0201253859 -3.17D+02  9.17D-03  1.06D+00     4.6
 d= 0,ls=0.0,diis     2   -192.8592126211  1.61D-01  7.60D-03  2.55D+00     8.5
 d= 0,ls=0.0,diis     3   -193.0768548435 -2.18D-01  1.82D-03  3.88D-01    12.5
 d= 0,ls=0.0,diis     4   -193.1071469875 -3.03D-02  6.83D-04  1.82D-02    16.4
 d= 0,ls=0.0,diis     5   -193.1088143649 -1.67D-03  2.93D-04  2.71D-03    20.3
 d= 0,ls=0.0,diis     6   -193.1091517431 -3.37D-04  3.03D-05  3.55D-05    24.2
 d= 0,ls=0.0,diis     7   -193.1091559393 -4.20D-06  8.40D-06  4.26D-06    28.1
 d= 0,ls=0.0,diis     8   -193.1091564082 -4.69D-07  2.17D-06  3.17D-07    32.0
 d= 0,ls=0.0,diis     9   -193.1091564423 -3.41D-08  7.07D-07  1.97D-08    35.9
 d= 0,ls=0.0,diis    10   -193.1091564445 -2.18D-09  2.11D-07  2.96D-09    39.9


         Total DFT energy =     -193.109156444471
      One electron energy =     -505.652364007201
           Coulomb energy =      216.045717019553
    Exchange-Corr. energy =      -27.020134368778
 Nuclear repulsion energy =      123.517624911955

 Numeric. integr. density =       31.999999992368

     Total iterative time =     39.4s


 
                       DFT Final Molecular Orbital Analysis
                       ------------------------------------
 
 Vector    1  Occ=2.000000D+00  E=-1.877985D+01
              MO Center= -8.8D-01, -1.8D-01,  2.1D-01, r^2= 1.5D-02
   Bfn.  Coefficient  Atom+Function         Bfn.  Coefficient  Atom+Function  
  ----- ------------  ---------------      ----- ------------  ---------------
     2      0.638478   1 O  s                 1      0.435422   1 O  s         
     3      0.039880   1 O  s                 4     -0.033217   1 O  s         
 
 Vector    2  Occ=2.000000D+00  E=-9.963299D+00
              MO Center=  5.7D-01, -1.6D-01,  1.2D-01, r^2= 2.8D-02
   Bfn.  Coefficient  Atom+Function         Bfn.  Coefficient  Atom+Function  
  ----- ------------  ---------------      ----- ------------  ---------------
    33      0.606919   2 C  s                32      0.467265   2 C  s         
    34      0.042488   2 C  s                36      0.037378   2 C  s         
    35     -0.027283   2 C  s         
 
 Vector    3  Occ=2.000000D+00  E=-9.955533D+00
              MO Center= -1.9D-01,  1.1D+00,  3.4D-01, r^2= 2.8D-02
   Bfn.  Coefficient  Atom+Function         Bfn.  Coefficient  Atom+Function  
  ----- ------------  ---------------      ----- ------------  ---------------
    64      0.607030   3 C  s                63      0.467226   3 C  s         
    65      0.039738   3 C  s         
 
 Vector    4  Occ=2.000000D+00  E=-9.908081D+00
              MO Center=  1.2D+00, -5.2D-01, -1.2D+00, r^2= 2.8D-02
   Bfn.  Coefficient  Atom+Function         Bfn.  Coefficient  Atom+Function  
  ----- ------------  ---------------      ----- ------------  ---------------
    95      0.606962   4 C  s                94      0.467215   4 C  s         
    96      0.040582   4 C  s                98      0.035595   4 C  s         
 
 Vector    5  Occ=2.000000D+00  E=-9.623307D-01
              MO Center= -4.7D-01,  5.5D-02,  2.1D-01, r^2= 6.5D-01
   Bfn.  Coefficient  Atom+Function         Bfn.  Coefficient  Atom+Function  
  ----- ------------  ---------------      ----- ------------  ---------------
     4      0.375456   1 O  s                 3      0.277579   1 O  s         
     2     -0.192879   1 O  s                34      0.139695   2 C  s         
    65      0.138991   3 C  s                 5      0.122782   1 O  s         
    35      0.105228   2 C  s                 6      0.093282   1 O  px        
    66      0.093529   3 C  s                69     -0.091316   3 C  py        
 
 Vector    6  Occ=2.000000D+00  E=-6.699382D-01
              MO Center=  9.4D-01, -3.9D-01, -7.7D-01, r^2= 1.5D+00
   Bfn.  Coefficient  Atom+Function         Bfn.  Coefficient  Atom+Function  
  ----- ------------  ---------------      ----- ------------  ---------------
    97      0.285315   4 C  s                96      0.276412   4 C  s         
    35      0.185060   2 C  s                34      0.174430   2 C  s         
    95     -0.174046   4 C  s                 4     -0.147298   1 O  s         
    33     -0.108972   2 C  s                 3     -0.103030   1 O  s         
    94     -0.083393   4 C  s                 5     -0.073019   1 O  s         
 
 Vector    7  Occ=2.000000D+00  E=-5.896609D-01
              MO Center= -1.3D-01,  7.2D-01,  2.2D-01, r^2= 2.0D+00
   Bfn.  Coefficient  Atom+Function         Bfn.  Coefficient  Atom+Function  
  ----- ------------  ---------------      ----- ------------  ---------------
    66      0.326287   3 C  s                65      0.278489   3 C  s         
     4     -0.237796   1 O  s                64     -0.172111   3 C  s         
     3     -0.167965   1 O  s                 5     -0.147667   1 O  s         
     2      0.110890   1 O  s                38      0.104554   2 C  py        
   132      0.102964   6 H  s                97     -0.098727   4 C  s         
 
 Vector    8  Occ=2.000000D+00  E=-5.300467D-01
              MO Center=  4.2D-01,  1.6D-02, -9.7D-02, r^2= 2.7D+00
   Bfn.  Coefficient  Atom+Function         Bfn.  Coefficient  Atom+Function  
  ----- ------------  ---------------      ----- ------------  ---------------
    35      0.303313   2 C  s                34      0.225196   2 C  s         
    97     -0.155084   4 C  s                66     -0.151996   3 C  s         
    33     -0.138522   2 C  s               126      0.133015   5 H  s         
    96     -0.128742   4 C  s                 6      0.106979   1 O  px        
   125      0.106281   5 H  s                65     -0.098271   3 C  s         
 
 Vector    9  Occ=2.000000D+00  E=-4.472176D-01
              MO Center=  1.1D-01,  2.8D-01,  2.5D-01, r^2= 2.5D+00
   Bfn.  Coefficient  Atom+Function         Bfn.  Coefficient  Atom+Function  
  ----- ------------  ---------------      ----- ------------  ---------------
    70      0.208695   3 C  pz               39      0.154736   2 C  pz        
   132      0.144925   6 H  s                73      0.131396   3 C  pz        
     8      0.126499   1 O  pz              126      0.116434   5 H  s         
     6     -0.112381   1 O  px               38     -0.108862   2 C  py        
   131      0.107540   6 H  s                37      0.105607   2 C  px        
 
 Vector   10  Occ=2.000000D+00  E=-4.138646D-01
              MO Center=  6.8D-02,  2.9D-01, -2.5D-01, r^2= 2.6D+00
   Bfn.  Coefficient  Atom+Function         Bfn.  Coefficient  Atom+Function  
  ----- ------------  ---------------      ----- ------------  ---------------
    69      0.214536   3 C  py              101      0.155270   4 C  pz        
   138      0.154165   7 H  s                38     -0.139944   2 C  py        
     6     -0.138489   1 O  px               37      0.123625   2 C  px        
     7     -0.122010   1 O  py               72      0.121059   3 C  py        
    70     -0.117686   3 C  pz              137      0.112096   7 H  s         
 
 Vector   11  Occ=2.000000D+00  E=-3.765531D-01
              MO Center=  9.2D-01, -3.9D-01, -7.6D-01, r^2= 2.6D+00
   Bfn.  Coefficient  Atom+Function         Bfn.  Coefficient  Atom+Function  
  ----- ------------  ---------------      ----- ------------  ---------------
    99      0.195580   4 C  px              100      0.190519   4 C  py        
   144      0.179349   8 H  s               150     -0.160307   9 H  s         
    37      0.135392   2 C  px                6     -0.129089   1 O  px        
   102      0.126216   4 C  px              143      0.125434   8 H  s         
   103      0.124397   4 C  py              149     -0.112960   9 H  s         
 
 Vector   12  Occ=2.000000D+00  E=-3.570548D-01
              MO Center=  5.3D-01, -2.8D-01, -8.2D-01, r^2= 2.9D+00
   Bfn.  Coefficient  Atom+Function         Bfn.  Coefficient  Atom+Function  
  ----- ------------  ---------------      ----- ------------  ---------------
   100      0.236430   4 C  py                7     -0.192047   1 O  py        
   156      0.181388  10 H  s               150     -0.171488   9 H  s         
    10     -0.154451   1 O  py              103      0.151550   4 C  py        
   155      0.128279  10 H  s               149     -0.119229   9 H  s         
    70      0.114926   3 C  pz               99     -0.108567   4 C  px        
 
 Vector   13  Occ=2.000000D+00  E=-3.294011D-01
              MO Center=  3.3D-01,  2.7D-01, -2.1D-01, r^2= 2.8D+00
   Bfn.  Coefficient  Atom+Function         Bfn.  Coefficient  Atom+Function  
  ----- ------------  ---------------      ----- ------------  ---------------
    39      0.217624   2 C  pz              101     -0.189801   4 C  pz        
    70     -0.177136   3 C  pz              138      0.165628   7 H  s         
     7     -0.159500   1 O  py               42      0.147394   2 C  pz        
   104     -0.133133   4 C  pz               99      0.131812   4 C  px        
    10     -0.128784   1 O  py              137      0.111536   7 H  s         
 
 Vector   14  Occ=2.000000D+00  E=-3.201012D-01
              MO Center=  4.5D-01, -7.1D-02, -2.9D-01, r^2= 3.0D+00
   Bfn.  Coefficient  Atom+Function         Bfn.  Coefficient  Atom+Function  
  ----- ------------  ---------------      ----- ------------  ---------------
     7      0.199323   1 O  py               99     -0.166065   4 C  px        
    10      0.163401   1 O  py              126      0.160246   5 H  s         
   156      0.157391  10 H  s                 6     -0.145543   1 O  px        
   144     -0.137812   8 H  s                37      0.129487   2 C  px        
    39      0.128364   2 C  pz              101     -0.123077   4 C  pz        
 
 Vector   15  Occ=2.000000D+00  E=-2.633400D-01
              MO Center=  1.1D-02,  1.5D-01,  4.4D-02, r^2= 2.3D+00
   Bfn.  Coefficient  Atom+Function         Bfn.  Coefficient  Atom+Function  
  ----- ------------  ---------------      ----- ------------  ---------------
    68      0.265447   3 C  px               38      0.257417   2 C  py        
     6     -0.236783   1 O  px               41      0.200596   2 C  py        
    71      0.197540   3 C  px                9     -0.185187   1 O  px        
    12     -0.156887   1 O  px              150      0.113093   9 H  s         
   100     -0.108795   4 C  py               67      0.106054   3 C  s         
 
 Vector   16  Occ=2.000000D+00  E=-2.197348D-01
              MO Center= -5.8D-01, -2.3D-02,  2.0D-01, r^2= 1.6D+00
   Bfn.  Coefficient  Atom+Function         Bfn.  Coefficient  Atom+Function  
  ----- ------------  ---------------      ----- ------------  ---------------
     8      0.449154   1 O  pz               11      0.357765   1 O  pz        
    14      0.296098   1 O  pz              133     -0.131413   6 H  s         
   139      0.117342   7 H  s               132     -0.104323   6 H  s         
   138      0.104363   7 H  s               145     -0.102565   8 H  s         
   126     -0.096466   5 H  s                98      0.090311   4 C  s         
 
 Vector   17  Occ=0.000000D+00  E= 2.552963D-02
              MO Center=  1.2D+00, -5.7D-02, -6.2D-01, r^2= 7.2D+00
   Bfn.  Coefficient  Atom+Function         Bfn.  Coefficient  Atom+Function  
  ----- ------------  ---------------      ----- ------------  ---------------
    98      4.470187   4 C  s               145     -1.536050   8 H  s         
   151     -1.469733   9 H  s               157     -1.360963  10 H  s         
   127     -1.231440   5 H  s                45      1.123807   2 C  pz        
   139     -0.884615   7 H  s                67      0.732799   3 C  s         
   133     -0.613695   6 H  s                75      0.320080   3 C  py        
 
 Vector   18  Occ=0.000000D+00  E= 4.287183D-02
              MO Center= -1.2D-01,  6.4D-01,  9.9D-02, r^2= 4.5D+00
   Bfn.  Coefficient  Atom+Function         Bfn.  Coefficient  Atom+Function  
  ----- ------------  ---------------      ----- ------------  ---------------
    98      2.161895   4 C  s                36     -1.915640   2 C  s         
     5      1.277190   1 O  s                74      0.932248   3 C  px        
   151     -0.824315   9 H  s                45      0.513437   2 C  pz        
    13      0.439157   1 O  py               44     -0.408361   2 C  py        
   157     -0.410080  10 H  s               145     -0.396824   8 H  s         
 
 Vector   19  Occ=0.000000D+00  E= 4.998073D-02
              MO Center=  3.3D-01,  5.9D-01, -1.5D-01, r^2= 6.4D+00
   Bfn.  Coefficient  Atom+Function         Bfn.  Coefficient  Atom+Function  
  ----- ------------  ---------------      ----- ------------  ---------------
    67      3.049707   3 C  s                36     -2.594921   2 C  s         
   139     -1.650204   7 H  s               127      1.605189   5 H  s         
   157     -0.726894  10 H  s                44     -0.602391   2 C  py        
   145      0.592337   8 H  s                45     -0.577632   2 C  pz        
    74      0.479788   3 C  px                5     -0.461540   1 O  s         
 
 Vector   20  Occ=0.000000D+00  E= 5.067775D-02
              MO Center=  6.5D-01,  4.4D-01,  4.3D-01, r^2= 7.6D+00
   Bfn.  Coefficient  Atom+Function         Bfn.  Coefficient  Atom+Function  
  ----- ------------  ---------------      ----- ------------  ---------------
    98      3.373221   4 C  s                67     -2.245987   3 C  s         
   133      1.780685   6 H  s               127      1.421475   5 H  s         
    36     -1.266851   2 C  s               157     -1.188055  10 H  s         
   145     -1.104976   8 H  s                44      1.000313   2 C  py        
    43     -0.675687   2 C  px              151     -0.649879   9 H  s         
 
 Vector   21  Occ=0.000000D+00  E= 6.497373D-02
              MO Center=  2.7D-01,  1.1D-01, -1.3D-01, r^2= 4.8D+00
   Bfn.  Coefficient  Atom+Function         Bfn.  Coefficient  Atom+Function  
  ----- ------------  ---------------      ----- ------------  ---------------
    98      1.265097   4 C  s               139      1.233204   7 H  s         
    67     -1.046370   3 C  s               151     -0.961853   9 H  s         
     5     -0.880003   1 O  s                43     -0.833493   2 C  px        
   133      0.645631   6 H  s                75     -0.553961   3 C  py        
    12     -0.488853   1 O  px               45      0.423624   2 C  pz        
 
 Vector   22  Occ=0.000000D+00  E= 8.547522D-02
              MO Center=  1.3D+00,  1.8D-01, -5.6D-01, r^2= 7.0D+00
   Bfn.  Coefficient  Atom+Function         Bfn.  Coefficient  Atom+Function  
  ----- ------------  ---------------      ----- ------------  ---------------
    36      2.788132   2 C  s               145      2.073008   8 H  s         
    67     -1.380463   3 C  s               157     -1.285636  10 H  s         
   127     -1.233081   5 H  s               133      1.113537   6 H  s         
   107     -1.074528   4 C  pz              105     -1.045217   4 C  px        
    98     -0.957236   4 C  s                75      0.771505   3 C  py        
 
 Vector   23  Occ=0.000000D+00  E= 9.201166D-02
              MO Center=  1.1D+00, -5.8D-01, -4.6D-01, r^2= 6.9D+00
   Bfn.  Coefficient  Atom+Function         Bfn.  Coefficient  Atom+Function  
  ----- ------------  ---------------      ----- ------------  ---------------
    36      2.683481   2 C  s               151      2.048425   9 H  s         
   145     -1.474846   8 H  s                98     -1.297451   4 C  s         
   106      1.136082   4 C  py              133      1.053358   6 H  s         
   105      1.040134   4 C  px               67     -1.015395   3 C  s         
   127     -0.940769   5 H  s               107     -0.756038   4 C  pz        
 
 Vector   24  Occ=0.000000D+00  E= 1.020573D-01
              MO Center=  4.5D-01,  3.8D-01, -1.1D+00, r^2= 6.8D+00
   Bfn.  Coefficient  Atom+Function         Bfn.  Coefficient  Atom+Function  
  ----- ------------  ---------------      ----- ------------  ---------------
   157      2.045233  10 H  s               133      1.551476   6 H  s         
    98     -1.539328   4 C  s               106     -1.520681   4 C  py        
   139     -1.453410   7 H  s               151     -1.451020   9 H  s         
    36      1.319884   2 C  s                76     -1.110326   3 C  pz        
   105      0.996533   4 C  px               45     -0.606331   2 C  pz        
 
 Vector   25  Occ=0.000000D+00  E= 1.387314D-01
              MO Center=  7.9D-01,  2.2D-01, -4.4D-01, r^2= 7.9D+00
   Bfn.  Coefficient  Atom+Function         Bfn.  Coefficient  Atom+Function  
  ----- ------------  ---------------      ----- ------------  ---------------
    36      4.706811   2 C  s                98     -3.580640   4 C  s         
    45     -3.406317   2 C  pz               67     -2.804417   3 C  s         
   127      2.717270   5 H  s                76      2.172964   3 C  pz        
   105      2.060992   4 C  px              133     -1.804970   6 H  s         
   139      1.702014   7 H  s               107     -1.572193   4 C  pz        
 
 Vector   26  Occ=0.000000D+00  E= 1.714428D-01
              MO Center=  4.6D-01,  5.0D-01, -1.0D-01, r^2= 7.3D+00
   Bfn.  Coefficient  Atom+Function         Bfn.  Coefficient  Atom+Function  
  ----- ------------  ---------------      ----- ------------  ---------------
    75      2.264626   3 C  py              107      1.634802   4 C  pz        
    36      1.342290   2 C  s                67     -1.348986   3 C  s         
   139     -1.212027   7 H  s               157      1.060367  10 H  s         
    74     -0.953412   3 C  px               44      0.633420   2 C  py        
   106     -0.558865   4 C  py               43     -0.532206   2 C  px        
 
 Vector   27  Occ=0.000000D+00  E= 1.980156D-01
              MO Center=  8.0D-01, -7.3D-02, -1.0D+00, r^2= 5.0D+00
   Bfn.  Coefficient  Atom+Function         Bfn.  Coefficient  Atom+Function  
  ----- ------------  ---------------      ----- ------------  ---------------
    67      2.949431   3 C  s                44     -2.566598   2 C  py        
   106      2.084150   4 C  py               36     -1.552933   2 C  s         
    43      0.908659   2 C  px              105      0.775516   4 C  px        
    74      0.762109   3 C  px               45     -0.747806   2 C  pz        
   157     -0.730565  10 H  s               150      0.661455   9 H  s         
 
 Vector   28  Occ=0.000000D+00  E= 2.021588D-01
              MO Center=  9.5D-01, -4.4D-01, -7.1D-01, r^2= 6.7D+00
   Bfn.  Coefficient  Atom+Function         Bfn.  Coefficient  Atom+Function  
  ----- ------------  ---------------      ----- ------------  ---------------
    36      2.648948   2 C  s                75      1.732796   3 C  py        
   105     -1.391501   4 C  px              133     -1.222955   6 H  s         
   107     -0.874903   4 C  pz              106      0.814286   4 C  py        
   139     -0.760475   7 H  s                45      0.735114   2 C  pz        
   156     -0.714160  10 H  s                76      0.675108   3 C  pz        
 
 Vector   29  Occ=0.000000D+00  E= 2.362145D-01
              MO Center= -2.6D-01,  3.5D-01, -7.3D-02, r^2= 5.4D+00
   Bfn.  Coefficient  Atom+Function         Bfn.  Coefficient  Atom+Function  
  ----- ------------  ---------------      ----- ------------  ---------------
    67      4.175755   3 C  s                36     -2.878941   2 C  s         
   139     -1.553307   7 H  s                66     -1.459801   3 C  s         
    98      1.278683   4 C  s               133     -1.262899   6 H  s         
   107      1.029317   4 C  pz               74     -0.815216   3 C  px        
    44      0.776190   2 C  py              106      0.779230   4 C  py        
 
 Vector   30  Occ=0.000000D+00  E= 2.468659D-01
              MO Center=  5.1D-01,  6.0D-02, -5.2D-02, r^2= 5.9D+00
   Bfn.  Coefficient  Atom+Function         Bfn.  Coefficient  Atom+Function  
  ----- ------------  ---------------      ----- ------------  ---------------
    67      6.346130   3 C  s                43      4.165003   2 C  px        
    75     -3.030737   3 C  py               44     -2.646877   2 C  py        
    36     -2.363633   2 C  s               107     -1.993234   4 C  pz        
   157     -1.828264  10 H  s                45     -1.437514   2 C  pz        
    98     -1.167916   4 C  s               105     -1.112652   4 C  px        
 
 Vector   31  Occ=0.000000D+00  E= 2.683474D-01
              MO Center=  3.0D-01, -1.2D-01,  2.6D-01, r^2= 5.6D+00
   Bfn.  Coefficient  Atom+Function         Bfn.  Coefficient  Atom+Function  
  ----- ------------  ---------------      ----- ------------  ---------------
    36      4.391729   2 C  s                 5     -2.186138   1 O  s         
    67      2.072932   3 C  s                43     -1.586484   2 C  px        
   105      1.461674   4 C  px               66     -1.165837   3 C  s         
    98     -1.125449   4 C  s               139     -0.940602   7 H  s         
   133     -0.901224   6 H  s               127     -0.855918   5 H  s         
 
 Vector   32  Occ=0.000000D+00  E= 2.776539D-01
              MO Center=  3.9D-01,  3.2D-01,  3.0D-01, r^2= 4.2D+00
   Bfn.  Coefficient  Atom+Function         Bfn.  Coefficient  Atom+Function  
  ----- ------------  ---------------      ----- ------------  ---------------
    36      2.482668   2 C  s                 5     -1.757344   1 O  s         
    67     -1.494465   3 C  s                43     -1.239042   2 C  px        
    74     -0.723485   3 C  px               98     -0.723973   4 C  s         
    45     -0.632888   2 C  pz              145      0.554848   8 H  s         
     4      0.498713   1 O  s               157     -0.387630  10 H  s         
 
 Vector   33  Occ=0.000000D+00  E= 3.005286D-01
              MO Center=  4.3D-01,  3.7D-01, -3.7D-01, r^2= 5.0D+00
   Bfn.  Coefficient  Atom+Function         Bfn.  Coefficient  Atom+Function  
  ----- ------------  ---------------      ----- ------------  ---------------
    98     -2.063818   4 C  s                43      1.904512   2 C  px        
   106      1.744102   4 C  py              151      1.750687   9 H  s         
    76      1.454990   3 C  pz               44     -1.217150   2 C  py        
    36     -1.090667   2 C  s                66      1.050486   3 C  s         
   107     -1.051159   4 C  pz              139      1.055114   7 H  s         
 
 Vector   34  Occ=0.000000D+00  E= 3.371180D-01
              MO Center=  1.3D-01,  4.1D-01, -4.2D-01, r^2= 5.8D+00
   Bfn.  Coefficient  Atom+Function         Bfn.  Coefficient  Atom+Function  
  ----- ------------  ---------------      ----- ------------  ---------------
    67      4.522049   3 C  s                76     -3.906896   3 C  pz        
   139     -3.106857   7 H  s                36     -2.388103   2 C  s         
   133      1.988172   6 H  s               157     -1.829751  10 H  s         
   107     -1.797469   4 C  pz               98      1.629221   4 C  s         
    43      1.405265   2 C  px               44     -1.172786   2 C  py        
 
 Vector   35  Occ=0.000000D+00  E= 3.621129D-01
              MO Center=  7.7D-01,  5.0D-04, -3.5D-01, r^2= 6.8D+00
   Bfn.  Coefficient  Atom+Function         Bfn.  Coefficient  Atom+Function  
  ----- ------------  ---------------      ----- ------------  ---------------
    98      7.760020   4 C  s                76      3.295199   3 C  pz        
   145     -3.286445   8 H  s                97     -3.152049   4 C  s         
   133     -2.303452   6 H  s               151     -1.876215   9 H  s         
   139      1.681222   7 H  s                67     -1.593231   3 C  s         
    36      1.515540   2 C  s                44      1.503377   2 C  py        
 
 Vector   36  Occ=0.000000D+00  E= 3.720055D-01
              MO Center=  5.5D-01,  2.6D-01, -7.0D-02, r^2= 6.4D+00
   Bfn.  Coefficient  Atom+Function         Bfn.  Coefficient  Atom+Function  
  ----- ------------  ---------------      ----- ------------  ---------------
    36     12.817445   2 C  s                98     -8.841141   4 C  s         
    67     -8.443344   3 C  s               127     -3.120409   5 H  s         
    97      2.472265   4 C  s               157      2.318333  10 H  s         
    44      2.011103   2 C  py               35     -1.891470   2 C  s         
   151      1.647968   9 H  s                74     -1.612308   3 C  px        
 
 Vector   37  Occ=0.000000D+00  E= 3.848205D-01
              MO Center=  8.9D-01, -3.3D-01, -1.2D-01, r^2= 6.0D+00
   Bfn.  Coefficient  Atom+Function         Bfn.  Coefficient  Atom+Function  
  ----- ------------  ---------------      ----- ------------  ---------------
    36      6.129358   2 C  s               127     -4.084250   5 H  s         
    98      3.414288   4 C  s                45      2.655288   2 C  pz        
    35     -2.211326   2 C  s                67     -2.120871   3 C  s         
   151     -2.106341   9 H  s               145     -1.945161   8 H  s         
    76     -1.906981   3 C  pz               43      1.701661   2 C  px        
 
 Vector   38  Occ=0.000000D+00  E= 3.943793D-01
              MO Center=  2.2D-01,  1.6D-01, -1.2D-01, r^2= 6.6D+00
   Bfn.  Coefficient  Atom+Function         Bfn.  Coefficient  Atom+Function  
  ----- ------------  ---------------      ----- ------------  ---------------
    98     12.552350   4 C  s                67     -6.236367   3 C  s         
    45      5.496339   2 C  pz               76     -3.089908   3 C  pz        
   157     -2.766754  10 H  s               133      2.613834   6 H  s         
    44      2.370394   2 C  py               43     -1.915935   2 C  px        
    75      1.874806   3 C  py               97     -1.849334   4 C  s         
 
 Vector   39  Occ=0.000000D+00  E= 4.015711D-01
              MO Center= -2.2D-01,  2.0D-01,  2.2D-01, r^2= 6.5D+00
   Bfn.  Coefficient  Atom+Function         Bfn.  Coefficient  Atom+Function  
  ----- ------------  ---------------      ----- ------------  ---------------
    67    -12.298297   3 C  s                36     12.179480   2 C  s         
    98     -5.285255   4 C  s                45     -5.232093   2 C  pz        
    44      3.921655   2 C  py              127      2.955325   5 H  s         
    66      2.690765   3 C  s                43     -2.485140   2 C  px        
   139      2.390230   7 H  s               105      2.367858   4 C  px        
 
 Vector   40  Occ=0.000000D+00  E= 4.142799D-01
              MO Center=  7.3D-01, -2.4D-01, -7.6D-01, r^2= 6.0D+00
   Bfn.  Coefficient  Atom+Function         Bfn.  Coefficient  Atom+Function  
  ----- ------------  ---------------      ----- ------------  ---------------
    98      6.087071   4 C  s                45      2.634028   2 C  pz        
    36     -2.424414   2 C  s               105     -2.411348   4 C  px        
   151     -2.123111   9 H  s               157     -2.047786  10 H  s         
   145      1.803943   8 H  s                97     -1.064343   4 C  s         
   127     -0.951238   5 H  s               144     -0.954307   8 H  s         
 
 Vector   41  Occ=0.000000D+00  E= 4.278905D-01
              MO Center=  5.2D-01,  1.1D-01, -2.1D-01, r^2= 6.9D+00
   Bfn.  Coefficient  Atom+Function         Bfn.  Coefficient  Atom+Function  
  ----- ------------  ---------------      ----- ------------  ---------------
    36      9.073248   2 C  s                98     -4.389837   4 C  s         
    67     -4.320071   3 C  s               151      2.593991   9 H  s         
    75      2.540193   3 C  py               44      2.517822   2 C  py        
    43     -1.731927   2 C  px               45     -1.556530   2 C  pz        
    74     -1.423708   3 C  px              105      1.365536   4 C  px        
 
 Vector   42  Occ=0.000000D+00  E= 4.475920D-01
              MO Center=  1.4D-01, -1.4D-01, -1.5D-01, r^2= 6.1D+00
   Bfn.  Coefficient  Atom+Function         Bfn.  Coefficient  Atom+Function  
  ----- ------------  ---------------      ----- ------------  ---------------
    36      9.654731   2 C  s                98     -9.198450   4 C  s         
    45     -5.714287   2 C  pz              127      2.934207   5 H  s         
    67     -2.918179   3 C  s                76      2.668357   3 C  pz        
    44      2.156574   2 C  py              106     -2.126310   4 C  py        
   133     -2.047338   6 H  s               157      2.023592  10 H  s         
 
 Vector   43  Occ=0.000000D+00  E= 4.596661D-01
              MO Center=  7.2D-02,  8.1D-01, -5.6D-01, r^2= 5.1D+00
   Bfn.  Coefficient  Atom+Function         Bfn.  Coefficient  Atom+Function  
  ----- ------------  ---------------      ----- ------------  ---------------
   139      3.150508   7 H  s               157     -2.498894  10 H  s         
    75     -2.262801   3 C  py              107     -2.102721   4 C  pz        
    44     -1.763748   2 C  py               43      1.672241   2 C  px        
   138     -1.462565   7 H  s                45     -1.245020   2 C  pz        
    36     -0.912551   2 C  s                76      0.911058   3 C  pz        
 
 Vector   44  Occ=0.000000D+00  E= 4.683638D-01
              MO Center=  4.7D-01,  1.5D-01, -6.5D-03, r^2= 5.7D+00
   Bfn.  Coefficient  Atom+Function         Bfn.  Coefficient  Atom+Function  
  ----- ------------  ---------------      ----- ------------  ---------------
    98     -4.900297   4 C  s                36      4.597117   2 C  s         
    45     -2.164000   2 C  pz              145      1.639515   8 H  s         
   107     -1.566483   4 C  pz              133      1.485727   6 H  s         
    67     -1.449784   3 C  s                35     -1.262917   2 C  s         
   132     -1.124563   6 H  s               126      1.059576   5 H  s         
 
 Vector   45  Occ=0.000000D+00  E= 5.096365D-01
              MO Center=  1.0D+00, -3.6D-01, -1.0D+00, r^2= 4.6D+00
   Bfn.  Coefficient  Atom+Function         Bfn.  Coefficient  Atom+Function  
  ----- ------------  ---------------      ----- ------------  ---------------
    98     12.405837   4 C  s                36     -8.628591   2 C  s         
    45      5.119276   2 C  pz              107      3.258490   4 C  pz        
   106      1.449021   4 C  py              156     -1.396081  10 H  s         
   144     -1.336897   8 H  s               127     -1.262511   5 H  s         
   105     -1.191862   4 C  px              150     -1.102513   9 H  s         
 
 Vector   46  Occ=0.000000D+00  E= 5.332135D-01
              MO Center= -4.3D-02, -3.7D-01, -4.0D-01, r^2= 4.3D+00
   Bfn.  Coefficient  Atom+Function         Bfn.  Coefficient  Atom+Function  
  ----- ------------  ---------------      ----- ------------  ---------------
    36      5.586764   2 C  s                98     -5.228238   4 C  s         
    76      3.153861   3 C  pz               45     -2.914888   2 C  pz        
   133     -1.811201   6 H  s               139      1.407172   7 H  s         
   105      1.320093   4 C  px               14     -1.290740   1 O  pz        
   107     -1.064753   4 C  pz                5     -0.981650   1 O  s         
 
 Vector   47  Occ=0.000000D+00  E= 6.589099D-01
              MO Center= -4.2D-01,  4.2D-02, -1.7D-02, r^2= 4.4D+00
   Bfn.  Coefficient  Atom+Function         Bfn.  Coefficient  Atom+Function  
  ----- ------------  ---------------      ----- ------------  ---------------
    36     12.230048   2 C  s                67     -9.469617   3 C  s         
    98     -4.340032   4 C  s                43     -2.696375   2 C  px        
    75      2.588816   3 C  py               13      2.334368   1 O  py        
    76      2.074051   3 C  pz               44      1.588193   2 C  py        
   105      1.591742   4 C  px              139      1.528720   7 H  s         
 
 Vector   48  Occ=0.000000D+00  E= 6.746790D-01
              MO Center= -2.4D-01,  3.4D-01,  1.2D-01, r^2= 3.9D+00
   Bfn.  Coefficient  Atom+Function         Bfn.  Coefficient  Atom+Function  
  ----- ------------  ---------------      ----- ------------  ---------------
    36      7.515840   2 C  s                67     -7.398348   3 C  s         
     5      2.996762   1 O  s                75      2.442606   3 C  py        
    13      1.997889   1 O  py               98     -1.933925   4 C  s         
    45     -1.198501   2 C  pz               43     -1.113275   2 C  px        
     4     -1.100947   1 O  s                44      0.875214   2 C  py        
 
 Vector   49  Occ=0.000000D+00  E= 7.097568D-01
              MO Center=  1.8D-01, -3.2D-01, -2.7D-01, r^2= 4.5D+00
   Bfn.  Coefficient  Atom+Function         Bfn.  Coefficient  Atom+Function  
  ----- ------------  ---------------      ----- ------------  ---------------
    67      9.266714   3 C  s                36     -6.920529   2 C  s         
    43      3.636126   2 C  px               44     -3.436173   2 C  py        
    98     -2.783732   4 C  s                75     -2.698511   3 C  py        
     5      2.206251   1 O  s                12      1.650958   1 O  px        
   106      1.630978   4 C  py               13     -1.288244   1 O  py        
 
 Vector   50  Occ=0.000000D+00  E= 7.615499D-01
              MO Center=  6.3D-01, -8.7D-03, -3.4D-01, r^2= 4.0D+00
   Bfn.  Coefficient  Atom+Function         Bfn.  Coefficient  Atom+Function  
  ----- ------------  ---------------      ----- ------------  ---------------
    45      2.417401   2 C  pz              127     -1.681321   5 H  s         
    36      1.611483   2 C  s               105     -1.574840   4 C  px        
     5     -1.491448   1 O  s                43      1.350118   2 C  px        
   126     -1.319080   5 H  s               144      1.244944   8 H  s         
    76     -1.025579   3 C  pz               66      0.959723   3 C  s         
 
 Vector   51  Occ=0.000000D+00  E= 7.923865D-01
              MO Center=  2.7D-01,  4.6D-02, -1.8D-01, r^2= 4.4D+00
   Bfn.  Coefficient  Atom+Function         Bfn.  Coefficient  Atom+Function  
  ----- ------------  ---------------      ----- ------------  ---------------
     5      4.174579   1 O  s                36     -2.872586   2 C  s         
    76     -2.495903   3 C  pz                4     -1.621787   1 O  s         
    45      1.555668   2 C  pz               12      1.366316   1 O  px        
   133      1.318134   6 H  s                43      1.230533   2 C  px        
    66     -1.045699   3 C  s                35     -1.008796   2 C  s         
 
 Vector   52  Occ=0.000000D+00  E= 8.325491D-01
              MO Center=  3.3D-01,  1.6D-01, -1.3D-02, r^2= 4.4D+00
   Bfn.  Coefficient  Atom+Function         Bfn.  Coefficient  Atom+Function  
  ----- ------------  ---------------      ----- ------------  ---------------
    36      6.433792   2 C  s                98     -3.947479   4 C  s         
     5     -3.868151   1 O  s                43     -2.552520   2 C  px        
   105      1.902000   4 C  px               35     -1.831172   2 C  s         
    45     -1.643956   2 C  pz               44      1.430781   2 C  py        
    66     -1.183773   3 C  s                97      1.080283   4 C  s         
 
 Vector   53  Occ=0.000000D+00  E= 8.545484D-01
              MO Center=  6.1D-01,  1.2D-01, -4.0D-01, r^2= 4.2D+00
   Bfn.  Coefficient  Atom+Function         Bfn.  Coefficient  Atom+Function  
  ----- ------------  ---------------      ----- ------------  ---------------
    36      4.932958   2 C  s                98     -4.937026   4 C  s         
    45     -4.642250   2 C  pz               76      2.078009   3 C  pz        
   127      1.823508   5 H  s               106     -1.662188   4 C  py        
    44      1.585280   2 C  py              105      1.401240   4 C  px        
   150     -1.254040   9 H  s                 5     -1.063397   1 O  s         
 
 Vector   54  Occ=0.000000D+00  E= 8.711488D-01
              MO Center=  1.7D-01, -3.4D-02, -1.2D-01, r^2= 4.3D+00
   Bfn.  Coefficient  Atom+Function         Bfn.  Coefficient  Atom+Function  
  ----- ------------  ---------------      ----- ------------  ---------------
     5      4.634378   1 O  s                36     -1.806505   2 C  s         
     4     -1.583970   1 O  s               138      1.437637   7 H  s         
    76      1.260752   3 C  pz               67     -1.231437   3 C  s         
    12      1.197551   1 O  px               66     -1.136230   3 C  s         
    98     -0.927514   4 C  s                97      0.875922   4 C  s         
 
 Vector   55  Occ=0.000000D+00  E= 9.205316D-01
              MO Center=  5.0D-01,  3.1D-01, -4.7D-01, r^2= 4.6D+00
   Bfn.  Coefficient  Atom+Function         Bfn.  Coefficient  Atom+Function  
  ----- ------------  ---------------      ----- ------------  ---------------
    35      4.993705   2 C  s                36     -1.757442   2 C  s         
    67      1.444917   3 C  s               132     -1.312506   6 H  s         
    72      1.293796   3 C  py               66     -1.277116   3 C  s         
    84      1.164673   3 C  d  0            156     -1.166771  10 H  s         
    41      1.151463   2 C  py              116     -1.079308   4 C  d  1      
 
 Vector   56  Occ=0.000000D+00  E= 9.619836D-01
              MO Center=  4.6D-01,  2.9D-01, -5.4D-01, r^2= 4.7D+00
   Bfn.  Coefficient  Atom+Function         Bfn.  Coefficient  Atom+Function  
  ----- ------------  ---------------      ----- ------------  ---------------
    35      4.128864   2 C  s                67      2.589688   3 C  s         
   138     -2.345801   7 H  s                76     -1.816810   3 C  pz        
    42     -1.754688   2 C  pz               83     -1.645513   3 C  d -1      
    36     -1.550969   2 C  s               115     -1.475569   4 C  d  0      
   132      1.388976   6 H  s                98     -1.351272   4 C  s         
 
 Vector   57  Occ=0.000000D+00  E= 9.915750D-01
              MO Center=  3.3D-01,  5.1D-01, -1.1D-01, r^2= 4.0D+00
   Bfn.  Coefficient  Atom+Function         Bfn.  Coefficient  Atom+Function  
  ----- ------------  ---------------      ----- ------------  ---------------
    36      7.360455   2 C  s                98     -4.868304   4 C  s         
    67     -3.804445   3 C  s                45     -3.778909   2 C  pz        
    43     -2.259734   2 C  px               44      2.112230   2 C  py        
    66     -1.630158   3 C  s               127      1.578974   5 H  s         
    75      1.413307   3 C  py              126      1.342802   5 H  s         
 
 Vector   58  Occ=0.000000D+00  E= 1.012358D+00
              MO Center=  3.8D-01,  5.3D-01, -6.3D-02, r^2= 4.3D+00
   Bfn.  Coefficient  Atom+Function         Bfn.  Coefficient  Atom+Function  
  ----- ------------  ---------------      ----- ------------  ---------------
    36      5.766567   2 C  s                67     -4.664676   3 C  s         
    45     -2.286641   2 C  pz               44      1.957554   2 C  py        
    98     -1.855707   4 C  s               156     -1.520137  10 H  s         
    43     -1.418672   2 C  px               74     -1.358602   3 C  px        
    82      1.353554   3 C  d -2             76      1.344083   3 C  pz        
 
 Vector   59  Occ=0.000000D+00  E= 1.040908D+00
              MO Center=  7.1D-01, -1.9D-01, -4.7D-01, r^2= 4.2D+00
   Bfn.  Coefficient  Atom+Function         Bfn.  Coefficient  Atom+Function  
  ----- ------------  ---------------      ----- ------------  ---------------
    35      2.736968   2 C  s                36      2.266191   2 C  s         
    66     -2.165701   3 C  s               144     -1.964866   8 H  s         
   150      1.914296   9 H  s                 5     -1.812320   1 O  s         
   117      1.717881   4 C  d  2             41      1.411843   2 C  py        
    44      1.223578   2 C  py               72      1.123804   3 C  py        
 
 Vector   60  Occ=0.000000D+00  E= 1.078802D+00
              MO Center=  6.7D-01,  2.1D-02, -6.7D-02, r^2= 4.1D+00
   Bfn.  Coefficient  Atom+Function         Bfn.  Coefficient  Atom+Function  
  ----- ------------  ---------------      ----- ------------  ---------------
    66      4.053834   3 C  s                98     -3.922301   4 C  s         
    97     -3.671475   4 C  s                45     -3.643311   2 C  pz        
    36      2.977917   2 C  s                41     -2.569442   2 C  py        
   104     -2.496628   4 C  pz               42     -2.339909   2 C  pz        
    72     -2.340035   3 C  py               53      2.237373   2 C  d  0      
 
 Vector   61  Occ=0.000000D+00  E= 1.105088D+00
              MO Center=  3.7D-01,  5.4D-02,  6.2D-02, r^2= 3.8D+00
   Bfn.  Coefficient  Atom+Function         Bfn.  Coefficient  Atom+Function  
  ----- ------------  ---------------      ----- ------------  ---------------
    36      7.671081   2 C  s                67     -5.275980   3 C  s         
    98     -3.075072   4 C  s                66      2.178231   3 C  s         
    45     -2.007630   2 C  pz              126     -1.980528   5 H  s         
   132      1.662542   6 H  s                72     -1.623357   3 C  py        
    41     -1.502214   2 C  py               53      1.474091   2 C  d  0      
 
 Vector   62  Occ=0.000000D+00  E= 1.147378D+00
              MO Center=  6.2D-01,  1.2D-02, -3.1D-02, r^2= 3.6D+00
   Bfn.  Coefficient  Atom+Function         Bfn.  Coefficient  Atom+Function  
  ----- ------------  ---------------      ----- ------------  ---------------
    67      5.097235   3 C  s                36     -3.829478   2 C  s         
    44     -2.383049   2 C  py              126      1.852005   5 H  s         
    97     -1.804115   4 C  s                54      1.600596   2 C  d  1      
    43      1.545517   2 C  px               55      1.465518   2 C  d  2      
    42     -1.458127   2 C  pz               75     -1.425844   3 C  py        
 
 Vector   63  Occ=0.000000D+00  E= 1.215224D+00
              MO Center=  5.6D-01,  2.1D-01, -1.4D-01, r^2= 3.8D+00
   Bfn.  Coefficient  Atom+Function         Bfn.  Coefficient  Atom+Function  
  ----- ------------  ---------------      ----- ------------  ---------------
    36      6.850542   2 C  s                66     -5.011771   3 C  s         
    97     -3.420728   4 C  s                67     -3.308330   3 C  s         
    35      3.112831   2 C  s                72      1.910232   3 C  py        
    51     -1.762377   2 C  d -2             52      1.681929   2 C  d -1      
   138      1.677045   7 H  s                41      1.489205   2 C  py        
 
 Vector   64  Occ=0.000000D+00  E= 1.348703D+00
              MO Center=  3.4D-01,  5.4D-01,  2.2D-01, r^2= 3.6D+00
   Bfn.  Coefficient  Atom+Function         Bfn.  Coefficient  Atom+Function  
  ----- ------------  ---------------      ----- ------------  ---------------
    66      4.712213   3 C  s                35      3.884016   2 C  s         
    67     -3.149997   3 C  s                36     -2.649194   2 C  s         
    65     -2.419799   3 C  s               132     -2.055712   6 H  s         
   133      1.439525   6 H  s                34     -1.428433   2 C  s         
    72      1.374474   3 C  py              139      1.086081   7 H  s         
 
 Vector   65  Occ=0.000000D+00  E= 1.415933D+00
              MO Center=  1.5D-01,  5.3D-01, -2.5D-02, r^2= 3.4D+00
   Bfn.  Coefficient  Atom+Function         Bfn.  Coefficient  Atom+Function  
  ----- ------------  ---------------      ----- ------------  ---------------
    36      4.257079   2 C  s                35     -3.757681   2 C  s         
    66      3.772460   3 C  s                67     -3.694892   3 C  s         
    73     -2.343627   3 C  pz              138     -2.264614   7 H  s         
   139      2.194512   7 H  s               126      1.796222   5 H  s         
    76      1.657228   3 C  pz               34      1.544005   2 C  s         
 
 Vector   66  Occ=0.000000D+00  E= 1.432126D+00
              MO Center=  1.1D+00, -4.6D-01, -1.1D+00, r^2= 3.6D+00
   Bfn.  Coefficient  Atom+Function         Bfn.  Coefficient  Atom+Function  
  ----- ------------  ---------------      ----- ------------  ---------------
    98      9.998732   4 C  s                97     -7.567737   4 C  s         
    96      3.056866   4 C  s               145     -2.415376   8 H  s         
    36     -2.352195   2 C  s               151     -2.268527   9 H  s         
   157     -2.100146  10 H  s               144      1.688917   8 H  s         
   150      1.681404   9 H  s               104      1.445896   4 C  pz        
 
 Vector   67  Occ=0.000000D+00  E= 1.442975D+00
              MO Center=  4.0D-01,  4.7D-02, -2.5D-01, r^2= 4.2D+00
   Bfn.  Coefficient  Atom+Function         Bfn.  Coefficient  Atom+Function  
  ----- ------------  ---------------      ----- ------------  ---------------
    66      4.338227   3 C  s                35     -2.812630   2 C  s         
    67     -2.709566   3 C  s                98      2.644552   4 C  s         
   133      1.918246   6 H  s                76     -1.768285   3 C  pz        
    45      1.697606   2 C  pz               36      1.587338   2 C  s         
    65     -1.544226   3 C  s               132     -1.429685   6 H  s         
 
 Vector   68  Occ=0.000000D+00  E= 1.446297D+00
              MO Center=  3.8D-01, -6.8D-02, -8.8D-02, r^2= 3.1D+00
   Bfn.  Coefficient  Atom+Function         Bfn.  Coefficient  Atom+Function  
  ----- ------------  ---------------      ----- ------------  ---------------
    98      5.349116   4 C  s                97     -2.988727   4 C  s         
    36     -2.243902   2 C  s                45      2.167641   2 C  pz        
     5      1.915603   1 O  s                35     -1.762048   2 C  s         
   127     -1.555544   5 H  s                96      1.244593   4 C  s         
   126      1.230634   5 H  s                42     -1.159260   2 C  pz        
 
 Vector   69  Occ=0.000000D+00  E= 1.472340D+00
              MO Center=  8.8D-01, -1.9D-01, -8.6D-01, r^2= 3.5D+00
   Bfn.  Coefficient  Atom+Function         Bfn.  Coefficient  Atom+Function  
  ----- ------------  ---------------      ----- ------------  ---------------
    36      2.985873   2 C  s                67     -1.723545   3 C  s         
   156     -1.652027  10 H  s                66      1.631671   3 C  s         
   103      1.621441   4 C  py              157      1.274481  10 H  s         
   126      1.250501   5 H  s                 5     -1.238454   1 O  s         
    35     -1.220360   2 C  s                98     -1.204067   4 C  s         
 
 Vector   70  Occ=0.000000D+00  E= 1.480711D+00
              MO Center=  9.2D-01, -4.1D-01, -1.0D+00, r^2= 3.5D+00
   Bfn.  Coefficient  Atom+Function         Bfn.  Coefficient  Atom+Function  
  ----- ------------  ---------------      ----- ------------  ---------------
   156     -2.179790  10 H  s                66     -2.151410   3 C  s         
    36      2.041748   2 C  s               102     -1.778372   4 C  px        
   157      1.678305  10 H  s               104     -1.510074   4 C  pz        
   126      1.322656   5 H  s               144      1.294900   8 H  s         
    35     -1.239837   2 C  s               103      1.103976   4 C  py        
 
 Vector   71  Occ=0.000000D+00  E= 1.512386D+00
              MO Center=  3.4D-01,  1.5D-01, -3.3D-01, r^2= 4.0D+00
   Bfn.  Coefficient  Atom+Function         Bfn.  Coefficient  Atom+Function  
  ----- ------------  ---------------      ----- ------------  ---------------
    98      2.980088   4 C  s               144      1.806670   8 H  s         
   102     -1.462258   4 C  px              103     -1.465346   4 C  py        
   145     -1.410594   8 H  s                45      1.350299   2 C  pz        
    97     -1.352850   4 C  s                36     -1.284527   2 C  s         
   150     -1.024565   9 H  s               106      0.863363   4 C  py        
 
 Vector   72  Occ=0.000000D+00  E= 1.541079D+00
              MO Center=  3.8D-01,  4.3D-01, -2.2D-01, r^2= 4.7D+00
   Bfn.  Coefficient  Atom+Function         Bfn.  Coefficient  Atom+Function  
  ----- ------------  ---------------      ----- ------------  ---------------
    36      4.117667   2 C  s                35     -3.608637   2 C  s         
    98     -3.422208   4 C  s                97      3.084881   4 C  s         
    67     -2.327731   3 C  s                73      2.136715   3 C  pz        
   132     -1.720652   6 H  s               133      1.444447   6 H  s         
   102     -1.378017   4 C  px              138      1.375455   7 H  s         
 
 Vector   73  Occ=0.000000D+00  E= 1.578643D+00
              MO Center=  4.9D-01, -3.0D-02, -8.1D-02, r^2= 3.2D+00
   Bfn.  Coefficient  Atom+Function         Bfn.  Coefficient  Atom+Function  
  ----- ------------  ---------------      ----- ------------  ---------------
    35      3.575977   2 C  s                36     -2.761790   2 C  s         
    97     -2.079017   4 C  s                40     -2.064864   2 C  px        
    67      1.804120   3 C  s               126      1.790300   5 H  s         
    72      1.579987   3 C  py               42     -1.510849   2 C  pz        
    34     -1.490611   2 C  s                98      1.345337   4 C  s         
 
 Vector   74  Occ=0.000000D+00  E= 1.597018D+00
              MO Center=  3.9D-01,  3.1D-01, -2.0D-01, r^2= 3.4D+00
   Bfn.  Coefficient  Atom+Function         Bfn.  Coefficient  Atom+Function  
  ----- ------------  ---------------      ----- ------------  ---------------
    66     -5.515382   3 C  s                36     -5.435042   2 C  s         
    35      5.086275   2 C  s                67      4.137131   3 C  s         
    41      3.778007   2 C  py               71     -2.523103   3 C  px        
    72      2.462462   3 C  py               40     -2.060083   2 C  px        
    98      1.850023   4 C  s                82      1.641300   3 C  d -2      
 
 Vector   75  Occ=0.000000D+00  E= 1.639898D+00
              MO Center=  4.3D-01,  2.3D-01,  3.7D-03, r^2= 3.7D+00
   Bfn.  Coefficient  Atom+Function         Bfn.  Coefficient  Atom+Function  
  ----- ------------  ---------------      ----- ------------  ---------------
    35      2.414486   2 C  s                66      2.405459   3 C  s         
    98      1.940634   4 C  s                 5     -1.787945   1 O  s         
    97     -1.536846   4 C  s                67     -1.194256   3 C  s         
   144      1.129681   8 H  s               103     -1.041677   4 C  py        
   150     -1.002655   9 H  s               104     -0.993658   4 C  pz        
 
 Vector   76  Occ=0.000000D+00  E= 1.696746D+00
              MO Center=  5.8D-01,  1.0D-01, -4.2D-01, r^2= 3.6D+00
   Bfn.  Coefficient  Atom+Function         Bfn.  Coefficient  Atom+Function  
  ----- ------------  ---------------      ----- ------------  ---------------
    97     -5.409537   4 C  s                35      5.046336   2 C  s         
   104     -2.787398   4 C  pz               42     -2.734230   2 C  pz        
   102      1.869900   4 C  px               40      1.675938   2 C  px        
    66     -1.597325   3 C  s                96      1.487348   4 C  s         
    34     -1.454121   2 C  s                54      1.091613   2 C  d  1      
 
 Vector   77  Occ=0.000000D+00  E= 1.701652D+00
              MO Center= -7.4D-02,  3.3D-01, -6.4D-02, r^2= 3.7D+00
   Bfn.  Coefficient  Atom+Function         Bfn.  Coefficient  Atom+Function  
  ----- ------------  ---------------      ----- ------------  ---------------
     5      3.970576   1 O  s                72      3.322829   3 C  py        
    36     -2.495135   2 C  s                97      2.145387   4 C  s         
   138     -1.961771   7 H  s                66     -1.859587   3 C  s         
    42      1.663901   2 C  pz               12      1.523432   1 O  px        
   104      1.462509   4 C  pz               41      1.438877   2 C  py        
 
 Vector   78  Occ=0.000000D+00  E= 1.789814D+00
              MO Center=  4.0D-01,  2.7D-01,  9.9D-03, r^2= 3.5D+00
   Bfn.  Coefficient  Atom+Function         Bfn.  Coefficient  Atom+Function  
  ----- ------------  ---------------      ----- ------------  ---------------
    35      3.012631   2 C  s                97     -2.711686   4 C  s         
    36      1.784688   2 C  s                45     -1.323127   2 C  pz        
   104     -1.101083   4 C  pz               67     -1.074648   3 C  s         
    42     -1.017876   2 C  pz               72      0.996467   3 C  py        
   102      0.953920   4 C  px              103     -0.893785   4 C  py        
 
 Vector   79  Occ=0.000000D+00  E= 1.816286D+00
              MO Center= -6.3D-01,  1.7D-01,  1.9D-01, r^2= 2.6D+00
   Bfn.  Coefficient  Atom+Function         Bfn.  Coefficient  Atom+Function  
  ----- ------------  ---------------      ----- ------------  ---------------
    35      3.959450   2 C  s                 5     -3.275779   1 O  s         
    40     -2.421405   2 C  px               41      2.103293   2 C  py        
    72      1.938606   3 C  py               66     -1.725631   3 C  s         
    71     -1.647158   3 C  px               12     -1.372938   1 O  px        
   132     -1.044250   6 H  s               138     -1.026447   7 H  s         
 
 Vector   80  Occ=0.000000D+00  E= 1.842931D+00
              MO Center=  5.6D-02,  2.9D-01, -5.4D-02, r^2= 3.7D+00
   Bfn.  Coefficient  Atom+Function         Bfn.  Coefficient  Atom+Function  
  ----- ------------  ---------------      ----- ------------  ---------------
    35      1.525972   2 C  s                36     -1.201620   2 C  s         
   156     -0.951074  10 H  s                66      0.860305   3 C  s         
   104     -0.822921   4 C  pz               41     -0.812199   2 C  py        
    97     -0.647204   4 C  s                 5     -0.643629   1 O  s         
    71     -0.641359   3 C  px              157      0.643834  10 H  s         
 
 Vector   81  Occ=0.000000D+00  E= 1.868936D+00
              MO Center=  5.5D-01,  1.7D-01, -4.6D-01, r^2= 4.0D+00
   Bfn.  Coefficient  Atom+Function         Bfn.  Coefficient  Atom+Function  
  ----- ------------  ---------------      ----- ------------  ---------------
    35      6.938492   2 C  s                66     -4.413273   3 C  s         
    72      3.523442   3 C  py               97     -3.511731   4 C  s         
    36      2.045302   2 C  s               104     -2.039669   4 C  pz        
    34     -1.706487   2 C  s                41      1.559928   2 C  py        
    67     -1.501392   3 C  s                45     -1.393092   2 C  pz        
 
 Vector   82  Occ=0.000000D+00  E= 1.918205D+00
              MO Center=  3.3D-01, -1.5D-01, -3.2D-01, r^2= 3.2D+00
   Bfn.  Coefficient  Atom+Function         Bfn.  Coefficient  Atom+Function  
  ----- ------------  ---------------      ----- ------------  ---------------
    98     -1.708782   4 C  s                36      1.616299   2 C  s         
    45     -1.310654   2 C  pz              103     -1.196370   4 C  py        
    97     -0.853702   4 C  s                41      0.716671   2 C  py        
   150     -0.712087   9 H  s                66     -0.668913   3 C  s         
    42     -0.625112   2 C  pz              144      0.616480   8 H  s         
 
 Vector   83  Occ=0.000000D+00  E= 1.990458D+00
              MO Center=  9.4D-01, -2.8D-01, -5.2D-01, r^2= 3.4D+00
   Bfn.  Coefficient  Atom+Function         Bfn.  Coefficient  Atom+Function  
  ----- ------------  ---------------      ----- ------------  ---------------
    98      4.210582   4 C  s                35      3.649718   2 C  s         
    66     -2.675122   3 C  s                36     -2.413713   2 C  s         
    40     -2.097503   2 C  px               72      1.904089   3 C  py        
    41      1.723378   2 C  py               43     -1.412834   2 C  px        
   107      1.325809   4 C  pz               71     -1.231393   3 C  px        
 
 Vector   84  Occ=0.000000D+00  E= 1.995262D+00
              MO Center=  5.2D-01, -2.3D-02, -5.8D-01, r^2= 3.4D+00
   Bfn.  Coefficient  Atom+Function         Bfn.  Coefficient  Atom+Function  
  ----- ------------  ---------------      ----- ------------  ---------------
    36      3.965135   2 C  s                98     -3.093320   4 C  s         
    45     -1.977437   2 C  pz               67     -1.785199   3 C  s         
    35     -1.120372   2 C  s                 5     -1.025702   1 O  s         
   156      0.980138  10 H  s                40     -0.942971   2 C  px        
   104      0.913059   4 C  pz               44      0.756574   2 C  py        
 
 Vector   85  Occ=0.000000D+00  E= 2.087272D+00
              MO Center= -3.3D-02,  1.6D-01, -2.2D-02, r^2= 3.5D+00
   Bfn.  Coefficient  Atom+Function         Bfn.  Coefficient  Atom+Function  
  ----- ------------  ---------------      ----- ------------  ---------------
    98      2.000332   4 C  s                36     -1.617715   2 C  s         
   138      0.735367   7 H  s               156     -0.736675  10 H  s         
    14      0.679885   1 O  pz               41     -0.656319   2 C  py        
    40      0.545836   2 C  px              150     -0.536152   9 H  s         
    83      0.521607   3 C  d -1            144     -0.513876   8 H  s         
 
 Vector   86  Occ=0.000000D+00  E= 2.096861D+00
              MO Center= -3.7D-01,  6.1D-02,  7.3D-02, r^2= 2.9D+00
   Bfn.  Coefficient  Atom+Function         Bfn.  Coefficient  Atom+Function  
  ----- ------------  ---------------      ----- ------------  ---------------
    36      6.083467   2 C  s                67     -5.668611   3 C  s         
    35     -3.359335   2 C  s                66      3.262632   3 C  s         
    41     -3.023579   2 C  py               71      2.736668   3 C  px        
    13      1.893020   1 O  py               82     -1.467183   3 C  d -2      
    43     -1.351360   2 C  px               75      1.339321   3 C  py        
 
 Vector   87  Occ=0.000000D+00  E= 2.165252D+00
              MO Center=  5.1D-01, -9.6D-02, -5.1D-01, r^2= 3.2D+00
   Bfn.  Coefficient  Atom+Function         Bfn.  Coefficient  Atom+Function  
  ----- ------------  ---------------      ----- ------------  ---------------
    98      2.293431   4 C  s                67     -1.602096   3 C  s         
    35     -1.362105   2 C  s                73      1.000805   3 C  pz        
   156     -0.864827  10 H  s                40      0.834824   2 C  px        
    45      0.790298   2 C  pz               44      0.770954   2 C  py        
    43     -0.742102   2 C  px              144     -0.683642   8 H  s         
 
 Vector   88  Occ=0.000000D+00  E= 2.200130D+00
              MO Center=  3.5D-01,  2.4D-01, -1.9D-01, r^2= 3.6D+00
   Bfn.  Coefficient  Atom+Function         Bfn.  Coefficient  Atom+Function  
  ----- ------------  ---------------      ----- ------------  ---------------
    98      2.122629   4 C  s                36     -1.321185   2 C  s         
    45      1.018337   2 C  pz               76     -0.914108   3 C  pz        
    42     -0.896585   2 C  pz              132      0.850481   6 H  s         
    97     -0.842819   4 C  s               117     -0.734944   4 C  d  2      
   103     -0.676677   4 C  py              138     -0.636454   7 H  s         
 
 Vector   89  Occ=0.000000D+00  E= 2.228771D+00
              MO Center=  5.8D-01,  1.7D-02, -4.1D-02, r^2= 3.6D+00
   Bfn.  Coefficient  Atom+Function         Bfn.  Coefficient  Atom+Function  
  ----- ------------  ---------------      ----- ------------  ---------------
    36      2.675129   2 C  s                67     -1.311697   3 C  s         
     5     -1.138639   1 O  s                42     -1.082895   2 C  pz        
    98     -1.047650   4 C  s                72     -0.850348   3 C  py        
   102      0.738936   4 C  px               45     -0.669004   2 C  pz        
    51      0.643874   2 C  d -2             43     -0.633405   2 C  px        
 
 Vector   90  Occ=0.000000D+00  E= 2.248408D+00
              MO Center=  9.8D-01, -4.1D-01, -1.1D+00, r^2= 3.0D+00
   Bfn.  Coefficient  Atom+Function         Bfn.  Coefficient  Atom+Function  
  ----- ------------  ---------------      ----- ------------  ---------------
    36      2.459990   2 C  s                67     -1.823788   3 C  s         
   150      1.133047   9 H  s               144     -1.126000   8 H  s         
    98     -0.972017   4 C  s                35     -0.714529   2 C  s         
    66      0.705551   3 C  s                41     -0.701218   2 C  py        
    43     -0.631632   2 C  px              143      0.622953   8 H  s         
 
 Vector   91  Occ=0.000000D+00  E= 2.256046D+00
              MO Center=  9.0D-01, -2.1D-01, -9.4D-01, r^2= 3.3D+00
   Bfn.  Coefficient  Atom+Function         Bfn.  Coefficient  Atom+Function  
  ----- ------------  ---------------      ----- ------------  ---------------
    66      2.577158   3 C  s                41     -1.494125   2 C  py        
    72     -1.348940   3 C  py               35     -1.207379   2 C  s         
   156      1.072582  10 H  s               126     -1.036094   5 H  s         
    36      0.918432   2 C  s                67     -0.805892   3 C  s         
   150     -0.743623   9 H  s                71      0.730556   3 C  px        
 
 Vector   92  Occ=0.000000D+00  E= 2.281710D+00
              MO Center=  4.2D-01,  2.3D-01, -1.7D-01, r^2= 3.5D+00
   Bfn.  Coefficient  Atom+Function         Bfn.  Coefficient  Atom+Function  
  ----- ------------  ---------------      ----- ------------  ---------------
    98      3.723485   4 C  s                36     -2.553609   2 C  s         
[...]
    21     -0.872394   1 O  d -1             42     -0.801810   2 C  pz        
    97     -0.714568   4 C  s                45     -0.702741   2 C  pz        
    98     -0.530144   4 C  s                 5     -0.514652   1 O  s         
    67     -0.506762   3 C  s                83     -0.495233   3 C  d -1      
 
 Vector  154  Occ=0.000000D+00  E= 6.676177D+00
              MO Center= -8.7D-01, -1.8D-01,  2.0D-01, r^2= 5.7D-01
   Bfn.  Coefficient  Atom+Function         Bfn.  Coefficient  Atom+Function  
  ----- ------------  ---------------      ----- ------------  ---------------
    18      1.063111   1 O  d  1             23     -1.036962   1 O  d  1      
    97     -0.851187   4 C  s                42     -0.777749   2 C  pz        
    35      0.760014   2 C  s               102      0.643130   4 C  px        
    54     -0.547238   2 C  d  1             14      0.404988   1 O  pz        
    16     -0.390481   1 O  d -1             11      0.388514   1 O  pz        
 
 Vector  155  Occ=0.000000D+00  E= 6.841998D+00
              MO Center= -8.8D-01, -1.9D-01,  2.0D-01, r^2= 5.9D-01
   Bfn.  Coefficient  Atom+Function         Bfn.  Coefficient  Atom+Function  
  ----- ------------  ---------------      ----- ------------  ---------------
     5      2.108989   1 O  s                40      1.766347   2 C  px        
     9      1.360077   1 O  px               97     -1.284171   4 C  s         
     4      1.202148   1 O  s                20      1.047860   1 O  d -2      
    42     -0.975888   2 C  pz               12      0.846518   1 O  px        
    35     -0.841644   2 C  s                15     -0.833328   1 O  d -2      
 
 Vector  156  Occ=0.000000D+00  E= 7.055683D+00
              MO Center= -8.9D-01, -1.9D-01,  2.0D-01, r^2= 6.4D-01
   Bfn.  Coefficient  Atom+Function         Bfn.  Coefficient  Atom+Function  
  ----- ------------  ---------------      ----- ------------  ---------------
    66     -3.185894   3 C  s                35      3.026020   2 C  s         
    40     -2.729146   2 C  px               72      2.700793   3 C  py        
    24     -1.578539   1 O  d  2             36      1.452969   2 C  s         
    10      1.285747   1 O  py               67     -1.290107   3 C  s         
    19      1.016430   1 O  d  2             13      0.867276   1 O  py        
 
 Vector  157  Occ=0.000000D+00  E= 2.194040D+01
              MO Center=  8.3D-02,  7.7D-01,  4.3D-02, r^2= 1.3D+00
   Bfn.  Coefficient  Atom+Function         Bfn.  Coefficient  Atom+Function  
  ----- ------------  ---------------      ----- ------------  ---------------
    64      1.579305   3 C  s                65     -1.347073   3 C  s         
    67     -1.271013   3 C  s                63     -1.244759   3 C  s         
    98      1.071874   4 C  s                95     -0.768368   4 C  s         
    96      0.629678   4 C  s                94      0.607790   4 C  s         
    40     -0.473956   2 C  px               35      0.442824   2 C  s         
 
 Vector  158  Occ=0.000000D+00  E= 2.198046D+01
              MO Center=  8.8D-01, -2.5D-01, -7.1D-01, r^2= 1.2D+00
   Bfn.  Coefficient  Atom+Function         Bfn.  Coefficient  Atom+Function  
  ----- ------------  ---------------      ----- ------------  ---------------
    95      1.421013   4 C  s                96     -1.311450   4 C  s         
    94     -1.118032   4 C  s                98     -1.121864   4 C  s         
    34     -0.960879   2 C  s                36     -0.905540   2 C  s         
    33      0.875183   2 C  s                32     -0.683825   2 C  s         
    65     -0.652490   3 C  s                64      0.604685   3 C  s         
 
 Vector  159  Occ=0.000000D+00  E= 2.210023D+01
              MO Center=  6.1D-01, -1.2D-01, -7.6D-02, r^2= 7.0D-01
   Bfn.  Coefficient  Atom+Function         Bfn.  Coefficient  Atom+Function  
  ----- ------------  ---------------      ----- ------------  ---------------
    36      2.190882   2 C  s                33     -1.541880   2 C  s         
    34      1.529224   2 C  s                35     -1.353937   2 C  s         
    98     -1.301149   4 C  s                32      1.207544   2 C  s         
    67     -1.153014   3 C  s                95      0.719656   4 C  s         
    97      0.696261   4 C  s                96     -0.649363   4 C  s         
 
 Vector  160  Occ=0.000000D+00  E= 4.341323D+01
              MO Center= -8.8D-01, -1.8D-01,  2.0D-01, r^2= 1.2D-01
   Bfn.  Coefficient  Atom+Function         Bfn.  Coefficient  Atom+Function  
  ----- ------------  ---------------      ----- ------------  ---------------
     4      2.504629   1 O  s                 3     -1.873830   1 O  s         
     2      1.731471   1 O  s                 1     -1.395831   1 O  s         
     5     -0.876624   1 O  s                36      0.823661   2 C  s         
     9      0.560894   1 O  px               66     -0.511772   3 C  s         
    40      0.464234   2 C  px               72      0.456235   3 C  py        
 

 center of mass
 --------------
 x =   0.30619355 y =   0.09486536 z =  -0.27792465

 moments of inertia (a.u.)
 ------------------
         200.170476666654          45.594172569197          83.874934987656
          45.594172569197         247.884028815650         -52.510219573310
          83.874934987656         -52.510219573310         238.990978301378
 
     Multipole analysis of the density
     ---------------------------------
 
     L   x y z        total         alpha         beta         nuclear
     -   - - -        -----         -----         ----         -------
     0   0 0 0     -0.000000    -16.000000    -16.000000     32.000000
 
     1   1 0 0      0.692405     -6.226251     -6.226251     13.144908
     1   0 1 0      0.329442     -1.633917     -1.633917      3.597275
     1   0 0 1     -0.058553      5.320542      5.320542    -10.699638
 
     2   2 0 0    -20.048026    -54.331559    -54.331559     88.615093
     2   1 1 0     -1.083871     13.855516     13.855516    -28.794903
     2   1 0 1      0.121285     26.524299     26.524299    -52.927314
     2   0 2 0    -17.809325    -40.525554    -40.525554     63.241783
     2   0 1 1      0.212711    -15.339756    -15.339756     30.892223
     2   0 0 2    -18.203745    -45.740312    -45.740312     73.276878
 
 *** CALLING NEW AORESP DRIVER FOR CLOSED AND OPEN SHELLS ***
 Entering AOResponse driver routine


--------------------------------------------------------------------------------

          ****************
          *** RESPONSE ***
          ****************

 Response module for NWChem and dynamic CPKS solver
 developed by J. Autschbach and coworkers, SUNY Buffalo
 The methodology used in this program is described in 
 ChemPhysChem 12 (2011), 3224-3235 (main reference)
 J. Chem. Phys. 123 (2005), 114103
 J. Chem. Phys. 122 (2005), 224115
 J. Chem. Phys. 122 (2005), 074105
 Comp. Lett. 3 (2007), 131-150 (contact JA for a copy)
 Please cite this work in publications based on results
 obtained with this code. Thank you!

 For extension of response module to open shell
 calculations please acknowledge:
 F. Aquino, Northwestern University, Schatz Rsrch Group
 The update to the methodology is described in
 J. Phys. Chem. A 118 (2014) 517-525



          -----------------------------------------------
          Solving response equations for perturbing field
          -----------------------------------------------

 number of frequencies:     1
 frequency in a.u.:  0.9319600E-01
 Perturbing field: electric
 Using GIAO formalism for OptRot
 Adding quadrupole terms to OptRot
 to create an origin in dependent tensor.
 Using El. Dipole Length Gauge
 
 Applying DAMPING constant of  0.003700 a.u.
 
 Setting up CPKS
 with frequency omega =      0.09319600 a.u.
 and a damping of            0.00370000 a.u.

 
                            NWChem Dynamic CPHF Module
                            --------------------------
 
 
    scftype = RHF 
    nclosed =   16
      nopen =    0
  variables =     9216
  num. vecs =        3
  tolerance =   1.0D-07
  max. iter =  100

 SCF residual:   5.020418229095254E-006


Iterative solution of linear equations
  No. of variables     4608
  No. of equations        3
  Maximum subspace       99
       Convergence  1.0D-07
        Start time     61.5


   iter   nsub   residual    time 
   ----  ------  --------  --------- 
 dft_CPHF2_read: failed to open
 ./methyloxirane_blyp-def2-tzvp_488.9_16.inp.aoresp_fiao_f1
     1      3    3.84D+00      90.6
     2      6    2.87D+00     119.9
     3      9    2.48D-01     149.3
     4     12    5.79D-02     179.0
     5     15    1.02D-02     208.6
     6     18    1.34D-03     238.3
     7     21    1.45D-04     267.8
     8     24    1.54D-05     297.3
     9     27    1.24D-06     326.6
    10     30    5.21D-07     356.0
    11     33    1.18D-08     385.4

 Calculating some arrays needed for GIAO optical rotation

    0 giaofock schwarz done =      92.02%
    0 giaofock schwarz done =      92.23%
 aor_r1_tensor_giao: roadata output requested
 dip-quad polarizability Re:

              1        2        3        4        5        6      
    1   77.1832  -5.9427 -27.7470  -4.6634   1.0911   9.5014
    2  -11.6633  25.4982   3.0462  23.9354 -21.4191   4.6085
    3   -6.9551   0.8808  39.5594   0.1526  14.5384 -40.9783
 traceless dip-quad polarizability:

              1        2        3      
    1   74.7643  -8.9141 -41.6204
    2   -8.9141 -48.0057   1.6366
    3  -41.6204   1.6366 -26.7585

              1        2        3      
    1  -25.9353  38.2474   4.5692
    2   38.2474  27.4628 -32.1287
    3    4.5692 -32.1287  -1.5276

              1        2        3      
    1   13.4578   1.3213  59.3390
    2    1.3213  24.1192  21.8076
    3   59.3390  21.8076 -37.5770

 roa begin

 alpha real:
 XX       0.4096915220671E+02
 XY      -0.5148277312745E+01
 XZ      -0.3093070007688E+01
 YX      -0.5148277321762E+01
 YY       0.4407800525408E+02
 YZ       0.3079695769543E+01
 ZX      -0.3093070011133E+01
 ZY       0.3079695774270E+01
 ZZ       0.4149171671837E+02

 alpha im:
 XX       0.1109472227050E+00
 XY      -0.2979192828247E-01
 XZ      -0.1136833224909E-01
 YX      -0.2979192363354E-01
 YY       0.1289817157623E+00
 YZ       0.1792898833940E-01
 ZX      -0.1136832945484E-01
 ZY       0.1792898759101E-01
 ZZ       0.1228051682391E+00

 beta real:
 XX      -0.1512948341619E+00
 XY       0.9307180815795E+00
 XZ       0.1959371201438E+00
 YX      -0.8890357154499E+00
 YY       0.1385378472416E+00
 YZ      -0.1546291039579E+01
 ZX      -0.4707827430989E+00
 ZY       0.1868828622760E+01
 ZZ       0.1121494491258E-01

 G-prime = -omega beta(real):
 XX      -0.1512948341619E+00
 XY       0.9307180815795E+00
 XZ       0.1959371201438E+00
 YX      -0.8890357154499E+00
 YY       0.1385378472416E+00
 YZ      -0.1546291039579E+01
 ZX      -0.4707827430989E+00
 ZY       0.1868828622760E+01
 ZZ       0.1121494491258E-01

 beta im:
 XX      -0.6409931518756E-02
 XY       0.1304637676560E-01
 XZ       0.2456825572823E-02
 YX      -0.7647667512441E-02
 YY       0.4603973681599E-02
 YZ      -0.2347785500113E-01
 ZX      -0.1306625423252E-01
 ZY       0.4013146264851E-01
 ZZ       0.1096628691013E-02

 G-prime = -omega beta(imag):
 XX      -0.6409931518756E-02
 XY       0.1304637676560E-01
 XZ       0.2456825572823E-02
 YX      -0.7647667512441E-02
 YY       0.4603973681599E-02
 YZ      -0.2347785500113E-01
 ZX      -0.1306625423252E-01
 ZY       0.4013146264851E-01
 ZZ       0.1096628691013E-02

 dipole-quadrupole real (Cartesian):
 XXX      0.7718322930540E+02
 XXY     -0.5942738628245E+01
 XXZ     -0.2774695151019E+02
 XYY     -0.4663426583276E+01
 XYZ      0.1091080809325E+01
 XZZ      0.9501352773255E+01
 YXX     -0.1166328580020E+02
 YXY      0.2549823867214E+02
 YXZ      0.3046155672655E+01
 YYY      0.2393543929468E+02
 YYZ     -0.2141911029849E+02
 YZZ      0.4608512784394E+01
 ZXX     -0.6955087425884E+01
 ZXY      0.8808471046927E+00
 ZXZ      0.3955936473014E+02
 ZYY      0.1525508719008E+00
 ZYZ      0.1453838269341E+02
 ZZZ     -0.4097830061792E+02

 dipole-quadrupole imag (Cartesian):
 XXX      0.2704814466566E+00
 XXY     -0.3354104101617E-01
 XXZ     -0.7807902098145E-01
 XYY     -0.2968600814625E-01
 XYZ      0.1833968633212E-02
 XZZ      0.6179806136098E-01
 YXX     -0.5673102271608E-01
 YXY      0.6076026622346E-01
 YXZ      0.1823914937160E-01
 YYY      0.9608941877715E-01
 YYZ     -0.5888997267761E-01
 YZZ      0.1142553135565E-01
 ZXX     -0.3479403982732E-01
 ZXY     -0.1091701546619E-02
 ZXZ      0.1464588977351E+00
 ZYY      0.6464058210035E-02
 ZYZ      0.6974790395509E-01
 ZZZ     -0.9465125806612E-01

 dipole-quadrupole (traceless):
 XXX      0.7476426621041E+02
 XXY     -0.8914107942368E+01
 XXZ     -0.4162042726528E+02
 XYY     -0.4800571762260E+02
 XYZ      0.1636621213988E+01
 XZZ     -0.2675854858781E+02
 YXX     -0.2593526183973E+02
 YXY      0.3824735800821E+02
 YXZ      0.4569233508982E+01
 YYY      0.2746282580258E+02
 YYZ     -0.3212866544774E+02
 YZZ     -0.1527563962847E+01
 ZXX      0.1345778744713E+02
 ZXY      0.1321270657039E+01
 ZXZ      0.5933904709521E+02
 ZYY      0.2411924489380E+02
 ZYZ      0.2180757404011E+02
 ZZZ     -0.3757703234093E+02

 roa end


 Electric Dipole Response Matrix (nonzero elements):

              1        2        3      
    1   40.9692  -5.1483  -3.0931
    2   -5.1483  44.0780   3.0797
    3   -3.0931   3.0797  41.4917
 
 Imaginary part:

              1        2        3      
    1    0.1109  -0.0298  -0.0114
    2   -0.0298   0.1290   0.0179
    3   -0.0114   0.0179   0.1228

 ------------------------------------------
 average:        42.17962 + I       0.12091


 DFT Linear Response polarizability / au 
 Frequency  =       0.0931960 / au
 Wavelength =     488.8981609 / nm
              X              Y              Z
 -----------------------------------------------
 X      40.9691522     -5.1482773     -3.0930700
 Y      -5.1482773     44.0780053      3.0796958
 Z      -3.0930700      3.0796958     41.4917167
 -----------------------------------------------
 Eigenvalues =      36.9955825     50.0793574     39.4639343
 Isotropic   =      42.1796247
 Anisotropic =       9.8313297
 -----------------------------------------------
 *************************

 DFT Linear Response IMAG polarizability / au 
 Frequency  =       0.0931960 / au
 Wavelength =     488.8981609 / nm
              X              Y              Z
 -----------------------------------------------
 X       0.1109472     -0.0297919     -0.0113683
 Y      -0.0297919      0.1289817      0.0179290
 Z      -0.0113683      0.0179290      0.1228052
 -----------------------------------------------
 Eigenvalues =       0.0887477      0.1624170      0.1115693
 Isotropic   =       0.1209114
 Anisotropic =       0.0533338
 -----------------------------------------------
 *************************

 Magnetic Dipole Response Matrix (nonzero elements):
 Optical rotation tensor Beta
 (Buckingham-Dunn version including dipole-quadrupole terms)

              1        2        3      
    1    2.7061  -0.4186   0.4222
    2   -0.4186  -1.5916  -1.7563
    3    0.4222  -1.7563  -1.0979
 
 Imaginary part:

              1        2        3      
    1    0.0688  -0.1400  -0.0264
    2    0.0821  -0.0494   0.2519
    3    0.1402  -0.4306  -0.0118

 ------------------------------------------
 average:         0.00552 + I       0.00254

 Principal components and PAS (Real part)
                 -3.11863
                  2.85159
                  0.28358
 ------------------------
 average:         0.00552

              1        2        3      
    1    0.0068   0.9713  -0.2378
    2    0.7554  -0.1608  -0.6352
    3    0.6552   0.1754   0.7348

 Chiral response tensor (Real part):

              1        2        3      
    1   -1.3448   0.2093  -0.2111
    2    0.2093   0.8041   0.8782
    3   -0.2111   0.8782   0.5572
 
 Principal components and PAS (Real part)
                  1.56759
                 -1.41752
                 -0.13352
 ------------------------
 average:         0.00552

              1        2        3      
    1    0.0068   0.9713  -0.2378
    2    0.7554  -0.1608  -0.6352
    3    0.6552   0.1754   0.7348
 Exiting AOResponse driver routine

 Task  times  cpu:      380.4s     wall:      386.1s
 
 
                                NWChem Input Module
                                -------------------
 
 
 Summary of allocated global arrays
-----------------------------------
  No active global arrays



                         GA Statistics for process    0
                         ------------------------------

       create   destroy   get      put      acc     scatter   gather  read&inc
calls: 3294     3294     6.45e+06 3.14e+06 7.22e+05 2694        0      996     
number of processes/call 1.01e+00 1.03e+00 1.42e+00 0.00e+00 0.00e+00
bytes total:             1.51e+09 1.26e+08 1.70e+09 1.84e+02 0.00e+00 7.97e+03
bytes remote:            6.16e+08 3.29e+07 9.57e+08 0.00e+00 0.00e+00 0.00e+00
Max memory consumed for GA by this process: 11242192 bytes
 
MA_summarize_allocated_blocks: starting scan ...
MA_summarize_allocated_blocks: scan completed: 0 heap blocks, 0 stack blocks
MA usage statistics:

	allocation statistics:
					      heap	     stack
					      ----	     -----
	current number of blocks	         0	         0
	maximum number of blocks	        24	        52
	current total bytes		         0	         0
	maximum total bytes		   7519856	  48207656
	maximum total K-bytes		      7520	     48208
	maximum total M-bytes		         8	        49
 
 
                                     CITATION
                                     --------
                Please cite the following reference when publishing
                           results obtained with NWChem:
 
                 M. Valiev, E.J. Bylaska, N. Govind, K. Kowalski,
              T.P. Straatsma, H.J.J. van Dam, D. Wang, J. Nieplocha,
                        E. Apra, T.L. Windus, W.A. de Jong
                 "NWChem: a comprehensive and scalable open-source
                  solution for large scale molecular simulations"
                      Comput. Phys. Commun. 181, 1477 (2010)
                           doi:10.1016/j.cpc.2010.04.018
 
                                      AUTHORS
                                      -------
          E. Apra, E. J. Bylaska, W. A. de Jong, N. Govind, K. Kowalski,
       T. P. Straatsma, M. Valiev, H. J. J. van Dam, D. Wang, T. L. Windus,
        J. Hammond, J. Autschbach, K. Bhaskaran-Nair, J. Brabec, K. Lopata,
    S. A. Fischer, S. Krishnamoorthy, M. Jacquelin, W. Ma, M. Klemm, O. Villa,
      Y. Chen, V. Anisimov, F. Aquino, S. Hirata, M. T. Hackler, V. Konjkov,
            D. Mejia-Rodriguez, T. Risthaus, M. Malagoli, A. Marenich,
   A. Otero-de-la-Roza, J. Mullin, P. Nichols, R. Peverati, J. Pittner, Y. Zhao,
        P.-D. Fan, A. Fonari, M. J. Williamson, R. J. Harrison, J. R. Rehr,
      M. Dupuis, D. Silverstein, D. M. A. Smith, J. Nieplocha, V. Tipparaju,
    M. Krishnan, B. E. Van Kuiken, A. Vazquez-Mayagoitia, L. Jensen, M. Swart,
      Q. Wu, T. Van Voorhis, A. A. Auer, M. Nooijen, L. D. Crosby, E. Brown,
      G. Cisneros, G. I. Fann, H. Fruchtl, J. Garza, K. Hirao, R. A. Kendall,
      J. A. Nichols, K. Tsemekhman, K. Wolinski, J. Anchell, D. E. Bernholdt,
      P. Borowski, T. Clark, D. Clerc, H. Dachsel, M. J. O. Deegan, K. Dyall,
    D. Elwood, E. Glendening, M. Gutowski, A. C. Hess, J. Jaffe, B. G. Johnson,
     J. Ju, R. Kobayashi, R. Kutteh, Z. Lin, R. Littlefield, X. Long, B. Meng,
      T. Nakajima, S. Niu, L. Pollack, M. Rosing, K. Glaesemann, G. Sandrone,
      M. Stave, H. Taylor, G. Thomas, J. H. van Lenthe, A. T. Wong, Z. Zhang.

 Total times  cpu:      428.8s     wall:      435.0s
