 argument  1 = methyloxirane_blyp-def2-tzvp_488.9_27.inp
 


============================== echo of input deck ==============================
echo
start methyloxirane_blyp-def2-tzvp_488.9_27.inp
title "methyloxirane roa calculations at 488.9 nm, input generated in va  with delta_type=2"
charge 0



geometry units angstrom nocenter noautoz noautosym nucleus point;symmetry c1
 O -0.882112 -0.178801  0.209775
 C  0.571300 -0.156574  0.116108
 C -0.187182  1.089053  0.342793
 C  1.191446 -0.523318 -1.214030
 H  1.058171 -0.601961  0.990850
 H -0.219053  1.535029  1.340520
 H -0.336346  1.786502 -0.486062
 H  2.247910 -0.218254 -1.236390
 H  1.152675 -1.609955 -1.371999
 H  0.667956 -0.034368 -2.045009
end

basis spherical
* library def2-TZVP
end

 set prop:newaoresp 1
 set aor:roadata T
 set cphf:maxsub 100
 set cphf:acc 1.0d-10
 set cphf:maxiter 100

property
    response 1   0.093196
    bdtensor
    convergence 1e-7
    damping 0.0037
    giao
end

dft
 direct
 mult 1
 xc becke88 lyp
 iterations 250
 tolerances tight
 grid xfine
 convergence nolevelshifting
 convergence energy 1e-8
 convergence gradient 1e-7


end

task dft gradient
task dft property
================================================================================


                                         
                                         
 
 
              Northwest Computational Chemistry Package (NWChem) 6.8
              ------------------------------------------------------
 
 
                    Environmental Molecular Sciences Laboratory
                       Pacific Northwest National Laboratory
                                Richland, WA 99352
 
                              Copyright (c) 1994-2017
                       Pacific Northwest National Laboratory
                            Battelle Memorial Institute
 
             NWChem is an open-source computational chemistry package
                        distributed under the terms of the
                      Educational Community License (ECL) 2.0
             A copy of the license is included with this distribution
                              in the LICENSE.TXT file
 
                                  ACKNOWLEDGMENT
                                  --------------

            This software and its documentation were developed at the
            EMSL at Pacific Northwest National Laboratory, a multiprogram
            national laboratory, operated for the U.S. Department of Energy
            by Battelle under Contract Number DE-AC05-76RL01830. Support
            for this work was provided by the Department of Energy Office
            of Biological and Environmental Research, Office of Basic
            Energy Sciences, and the Office of Advanced Scientific Computing.


           Job information
           ---------------

    hostname        = cpn-f15-35.cbls.ccr.buffalo.edu
    program         = /util/academic/nwchem/nwchem-6.8/bin/LINUX64/nwchem
    date            = Fri Mar  1 10:25:26 2019

    compiled        = Tue_Nov_06_14:59:08_2018
    source          = /util/academic/nwchem/nwchem-6.8
    nwchem branch   = 6.8
    nwchem revision = v6.8-47-gdf6c956
    ga revision     = ga-5.6.3
    use scalapack   = F
    input           = methyloxirane_blyp-def2-tzvp_488.9_27.inp
    prefix          = methyloxirane_blyp-def2-tzvp_488.9_27.inp.
    data base       = ./methyloxirane_blyp-def2-tzvp_488.9_27.inp.db
    status          = startup
    nproc           =        7
    time left       =     -1s



           Memory information
           ------------------

    heap     =   13107196 doubles =    100.0 Mbytes
    stack    =   13107201 doubles =    100.0 Mbytes
    global   =   26214400 doubles =    200.0 Mbytes (distinct from heap & stack)
    total    =   52428797 doubles =    400.0 Mbytes
    verify   = yes
    hardfail = no 


           Directory information
           ---------------------
 
  0 permanent = .
  0 scratch   = .
 
 
 
 
                                NWChem Input Module
                                -------------------
 
 
                    methyloxirane roa calculations at 488.9 nm, input generated in va  with delta_type=2
                    ------------------------------------------

 Scaling coordinates for geometry "geometry" by  1.889725989
 (inverse scale =  0.529177249)

 
 
                             Geometry "geometry" -> ""
                             -------------------------
 
 Output coordinates in angstroms (scale by  1.889725989 to convert to a.u.)
 
  No.       Tag          Charge          X              Y              Z
 ---- ---------------- ---------- -------------- -------------- --------------
    1 O                    8.0000    -0.88211200    -0.17880100     0.20977500
    2 C                    6.0000     0.57130000    -0.15657400     0.11610800
    3 C                    6.0000    -0.18718200     1.08905300     0.34279300
    4 C                    6.0000     1.19144600    -0.52331800    -1.21403000
    5 H                    1.0000     1.05817100    -0.60196100     0.99085000
    6 H                    1.0000    -0.21905300     1.53502900     1.34052000
    7 H                    1.0000    -0.33634600     1.78650200    -0.48606200
    8 H                    1.0000     2.24791000    -0.21825400    -1.23639000
    9 H                    1.0000     1.15267500    -1.60995500    -1.37199900
   10 H                    1.0000     0.66795600    -0.03436800    -2.04500900
 
      Atomic Mass 
      ----------- 
 
      O                 15.994910
      C                 12.000000
      H                  1.007825
 

 Effective nuclear repulsion energy (a.u.)     123.3990258190

            Nuclear Dipole moment (a.u.) 
            ----------------------------
        X                 Y               Z
 ---------------- ---------------- ----------------
    13.1672346330     3.5556158235   -10.6971038734
 
 
            XYZ format geometry
            -------------------
    10
 geometry
 O                    -0.88211200    -0.17880100     0.20977500
 C                     0.57130000    -0.15657400     0.11610800
 C                    -0.18718200     1.08905300     0.34279300
 C                     1.19144600    -0.52331800    -1.21403000
 H                     1.05817100    -0.60196100     0.99085000
 H                    -0.21905300     1.53502900     1.34052000
 H                    -0.33634600     1.78650200    -0.48606200
 H                     2.24791000    -0.21825400    -1.23639000
 H                     1.15267500    -1.60995500    -1.37199900
 H                     0.66795600    -0.03436800    -2.04500900
 
 ==============================================================================
                                internuclear distances
 ------------------------------------------------------------------------------
       center one      |      center two      | atomic units |  angstroms
 ------------------------------------------------------------------------------
    2 C                |   1 O                |     2.75257  |     1.45660
    3 C                |   1 O                |     2.74373  |     1.45192
    3 C                |   2 C                |     2.78904  |     1.47590
    4 C                |   2 C                |     2.85864  |     1.51273
    5 H                |   2 C                |     2.07060  |     1.09571
    6 H                |   3 C                |     2.06609  |     1.09333
    7 H                |   3 C                |     2.06637  |     1.09347
    8 H                |   4 C                |     2.07842  |     1.09985
    9 H                |   4 C                |     2.07632  |     1.09874
   10 H                |   4 C                |     2.07323  |     1.09711
 ------------------------------------------------------------------------------
                         number of included internuclear distances:         10
 ==============================================================================



 ==============================================================================
                                 internuclear angles
 ------------------------------------------------------------------------------
        center 1       |       center 2       |       center 3       |  degrees
 ------------------------------------------------------------------------------
    2 C                |   1 O                |   3 C                |    60.99
    2 C                |   1 O                |   3 C                |    60.99
    1 O                |   2 C                |   4 C                |   117.51
    1 O                |   2 C                |   5 H                |   112.70
    3 C                |   2 C                |   4 C                |   123.39
    3 C                |   2 C                |   5 H                |   116.67
    4 C                |   2 C                |   5 H                |   114.91
    3 C                |   1 O                |   2 C                |    60.99
    1 O                |   3 C                |   6 H                |   115.20
    1 O                |   3 C                |   7 H                |   114.98
    2 C                |   3 C                |   6 H                |   119.96
    2 C                |   3 C                |   7 H                |   119.47
    6 H                |   3 C                |   7 H                |   115.31
    2 C                |   4 C                |   8 H                |   110.15
    2 C                |   4 C                |   9 H                |   110.59
    2 C                |   4 C                |  10 H                |   111.24
    8 H                |   4 C                |   9 H                |   107.78
    8 H                |   4 C                |  10 H                |   108.62
    9 H                |   4 C                |  10 H                |   108.36
 ------------------------------------------------------------------------------
                            number of included internuclear angles:         19
 ==============================================================================



  warning:::::::::::::: from_environment
  NWCHEM_BASIS_LIBRARY set to: <
 /util/academic/nwchem/nwchem-6.8/src/basis/libraries>
  but file does not exist !
  using .nwchemrc or compiled library


 Summary of "ao basis" -> "" (spherical)
 ------------------------------------------------------------------------------
       Tag                 Description            Shells   Functions and Types
 ---------------- ------------------------------  ------  ---------------------
 *                         def2-TZVP                  on all atoms 


 
                                 NWChem DFT Module
                                 -----------------
 
 
                    methyloxirane roa calculations at 488.9 nm, input generated in va  with delta_type=2
 
 
                      Basis "ao basis" -> "ao basis" (spherical)
                      -----
  O (Oxygen)
  ----------
            Exponent  Coefficients 
       -------------- ---------------------------------------------------------
  1 S  2.70323826E+04  0.000217
  1 S  4.05238714E+03  0.001684
  1 S  9.22327227E+02  0.008740
  1 S  2.61240710E+02  0.035240
  1 S  8.53546414E+01  0.111535
  1 S  3.10350352E+01  0.255890
 
  2 S  1.22608607E+01  0.397687
  2 S  4.99870760E+00  0.246278
 
  3 S  1.17031082E+00  1.000000
 
  4 S  4.64747410E-01  1.000000
 
  5 S  1.85045364E-01  1.000000
 
  6 P  6.32749548E+01  0.006069
  6 P  1.46270494E+01  0.041913
  6 P  4.45012235E+00  0.161538
  6 P  1.52757996E+00  0.357070
 
  7 P  5.29351179E-01  1.000000
 
  8 P  1.74784213E-01  1.000000
 
  9 D  2.31400000E+00  1.000000
 
 10 D  6.45000000E-01  1.000000
 
 11 F  1.42800000E+00  1.000000
 
  C (Carbon)
  ----------
            Exponent  Coefficients 
       -------------- ---------------------------------------------------------
  1 S  1.35753497E+04  0.000222
  1 S  2.03523337E+03  0.001723
  1 S  4.63225624E+02  0.008926
  1 S  1.31200196E+02  0.035728
  1 S  4.28530159E+01  0.110763
  1 S  1.55841858E+01  0.242956
 
  2 S  6.20671385E+00  0.414403
  2 S  2.57648965E+00  0.237450
 
  3 S  5.76963394E-01  1.000000
 
  4 S  2.29728314E-01  1.000000
 
  5 S  9.51644400E-02  1.000000
 
  6 P  3.46972322E+01  0.005333
  6 P  7.95826228E+00  0.035864
  6 P  2.37808269E+00  0.142159
  6 P  8.14332082E-01  0.342705
 
  7 P  2.88875473E-01  1.000000
 
  8 P  1.00568237E-01  1.000000
 
  9 D  1.09700000E+00  1.000000
 
 10 D  3.18000000E-01  1.000000
 
 11 F  7.61000000E-01  1.000000
 
  H (Hydrogen)
  ------------
            Exponent  Coefficients 
       -------------- ---------------------------------------------------------
  1 S  3.40613410E+01  0.006025
  1 S  5.12357460E+00  0.045021
  1 S  1.16466260E+00  0.201897
 
  2 S  3.27230410E-01  1.000000
 
  3 S  1.03072410E-01  1.000000
 
  4 P  8.00000000E-01  1.000000
 


 Summary of "ao basis" -> "ao basis" (spherical)
 ------------------------------------------------------------------------------
       Tag                 Description            Shells   Functions and Types
 ---------------- ------------------------------  ------  ---------------------
 O                         def2-TZVP                11       31   5s3p2d1f
 C                         def2-TZVP                11       31   5s3p2d1f
 H                         def2-TZVP                 4        6   3s1p




 Summary of "ao basis" -> "ao basis" (spherical)
 ------------------------------------------------------------------------------
       Tag                 Description            Shells   Functions and Types
 ---------------- ------------------------------  ------  ---------------------
 O                         def2-TZVP                11       31   5s3p2d1f
 C                         def2-TZVP                11       31   5s3p2d1f
 H                         def2-TZVP                 4        6   3s1p


  Caching 1-el integrals 
  itol2e modified to match energy
  convergence criterion.
  tol_rho modified to match energy
  convergence criterion.
 
            General Information
            -------------------
          SCF calculation type: DFT
          Wavefunction type:  closed shell.
          No. of atoms     :    10
          No. of electrons :    32
           Alpha electrons :    16
            Beta electrons :    16
          Charge           :     0
          Spin multiplicity:     1
          Use of symmetry is: off; symmetry adaption is: off
          Maximum number of iterations: 250
          This is a Direct SCF calculation.
          AO basis - number of functions:   160
                     number of shells:    68
          Convergence on energy requested:  1.00D-08
          Convergence on density requested:  1.00D-05
          Convergence on gradient requested:  1.00D-07
 
              XC Information
              --------------
                    Becke 1988 Exchange Functional  1.000          
              Lee-Yang-Parr Correlation Functional  1.000          
 
             Grid Information
             ----------------
          Grid used for XC integration:  xfine     
          Radial quadrature: Mura-Knowles        
          Angular quadrature: Lebedev. 
          Tag              B.-S. Rad. Rad. Pts. Rad. Cut. Ang. Pts.
          ---              ---------- --------- --------- ---------
          O                   0.60      100          11.0      1454
          C                   0.70      100          11.0      1454
          H                   0.35      100          12.0      1202
          Grid pruning is: on 
          Number of quadrature shells:  1000
          Spatial weights used:  Erf1
 
          Convergence Information
          -----------------------
          Convergence aids based upon iterative change in 
          total energy or number of iterations. 
          Levelshifting, if invoked, occurs when the 
          HOMO/LUMO gap drops below (HL_TOL):  1.00D-02
          DIIS, if invoked, will attempt to extrapolate 
          using up to (NFOCK): 10 stored Fock matrices.

                    Damping( 0%)  Levelshifting(0.0)       DIIS
                  --------------- ------------------- ---------------
          dE  on:    start             N/A                start   
          dE off:    2 iters           N/A              250 iters 

 
      Screening Tolerance Information
      -------------------------------
          Density screening/tol_rho:  1.00D-11
          AO Gaussian exp screening on grid/accAOfunc:  18
          CD Gaussian exp screening on grid/accCDfunc:  20
          XC Gaussian exp screening on grid/accXCfunc:  20
          Schwarz screening/accCoul:  1.00D-09

 
      Superposition of Atomic Density Guess
      -------------------------------------
 
 Sum of atomic energies:        -190.79714706
 
      Non-variational initial energy
      ------------------------------

 Total energy =    -193.156281
 1-e energy   =    -501.762670
 2-e energy   =     185.207363
 HOMO         =      -0.351238
 LUMO         =       0.090388
 
   Time after variat. SCF:      0.5
   Time prior to 1st pass:      0.5

 Grid_pts file          = ./methyloxirane_blyp-def2-tzvp_488.9_27.inp.gridpts.0
 Record size in doubles =  12289        No. of grid_pts per rec  =   3070
 Max. records in memory =     76        Max. recs in file   =   1219782


           Memory utilization after 1st SCF pass: 
           Heap Space remaining (MW):       12.17            12167540
          Stack Space remaining (MW):       13.11            13106124

   convergence    iter        energy       DeltaE   RMS-Dens  Diis-err    time
 ---------------- ----- ----------------- --------- --------- ---------  ------
 d= 0,ls=0.0,diis     1   -193.0201779326 -3.16D+02  9.14D-03  1.06D+00     4.9
 d= 0,ls=0.0,diis     2   -192.8581549747  1.62D-01  7.57D-03  2.56D+00     9.1
 d= 0,ls=0.0,diis     3   -193.0770621310 -2.19D-01  1.81D-03  3.87D-01    13.3
 d= 0,ls=0.0,diis     4   -193.1072631185 -3.02D-02  6.83D-04  1.83D-02    17.5
 d= 0,ls=0.0,diis     5   -193.1089425967 -1.68D-03  2.93D-04  2.71D-03    21.7
 d= 0,ls=0.0,diis     6   -193.1092807410 -3.38D-04  3.03D-05  3.60D-05    25.9
 d= 0,ls=0.0,diis     7   -193.1092849950 -4.25D-06  8.65D-06  4.34D-06    30.1
 d= 0,ls=0.0,diis     8   -193.1092854798 -4.85D-07  2.04D-06  2.92D-07    34.3
 d= 0,ls=0.0,diis     9   -193.1092855119 -3.21D-08  6.48D-07  1.48D-08    38.5
 d= 0,ls=0.0,diis    10   -193.1092855136 -1.69D-09  1.81D-07  1.90D-09    42.7


         Total DFT energy =     -193.109285513615
      One electron energy =     -505.415868923094
           Coulomb energy =      215.927024795976
    Exchange-Corr. energy =      -27.019467205454
 Nuclear repulsion energy =      123.399025818958

 Numeric. integr. density =       32.000000082291

     Total iterative time =     42.2s


 
                       DFT Final Molecular Orbital Analysis
                       ------------------------------------
 
 Vector    1  Occ=2.000000D+00  E=-1.877978D+01
              MO Center= -8.8D-01, -1.8D-01,  2.1D-01, r^2= 1.5D-02
   Bfn.  Coefficient  Atom+Function         Bfn.  Coefficient  Atom+Function  
  ----- ------------  ---------------      ----- ------------  ---------------
     2      0.638478   1 O  s                 1      0.435422   1 O  s         
     3      0.039877   1 O  s                 4     -0.033212   1 O  s         
 
 Vector    2  Occ=2.000000D+00  E=-9.963355D+00
              MO Center=  5.7D-01, -1.6D-01,  1.2D-01, r^2= 2.8D-02
   Bfn.  Coefficient  Atom+Function         Bfn.  Coefficient  Atom+Function  
  ----- ------------  ---------------      ----- ------------  ---------------
    33      0.606914   2 C  s                32      0.467266   2 C  s         
    34      0.042631   2 C  s                36      0.037265   2 C  s         
    35     -0.027864   2 C  s         
 
 Vector    3  Occ=2.000000D+00  E=-9.955597D+00
              MO Center= -1.9D-01,  1.1D+00,  3.4D-01, r^2= 2.8D-02
   Bfn.  Coefficient  Atom+Function         Bfn.  Coefficient  Atom+Function  
  ----- ------------  ---------------      ----- ------------  ---------------
    64      0.607030   3 C  s                63      0.467225   3 C  s         
    65      0.039691   3 C  s         
 
 Vector    4  Occ=2.000000D+00  E=-9.908417D+00
              MO Center=  1.2D+00, -5.2D-01, -1.2D+00, r^2= 2.8D-02
   Bfn.  Coefficient  Atom+Function         Bfn.  Coefficient  Atom+Function  
  ----- ------------  ---------------      ----- ------------  ---------------
    95      0.606963   4 C  s                94      0.467216   4 C  s         
    96      0.040581   4 C  s                98      0.035866   4 C  s         
 
 Vector    5  Occ=2.000000D+00  E=-9.621523D-01
              MO Center= -4.8D-01,  5.8D-02,  2.1D-01, r^2= 6.5D-01
   Bfn.  Coefficient  Atom+Function         Bfn.  Coefficient  Atom+Function  
  ----- ------------  ---------------      ----- ------------  ---------------
     4      0.375426   1 O  s                 3      0.277606   1 O  s         
     2     -0.192888   1 O  s                34      0.139507   2 C  s         
    65      0.139246   3 C  s                 5      0.122852   1 O  s         
    35      0.105249   2 C  s                 6      0.093239   1 O  px        
    66      0.093525   3 C  s                69     -0.091385   3 C  py        
 
 Vector    6  Occ=2.000000D+00  E=-6.699396D-01
              MO Center=  9.5D-01, -3.9D-01, -7.7D-01, r^2= 1.5D+00
   Bfn.  Coefficient  Atom+Function         Bfn.  Coefficient  Atom+Function  
  ----- ------------  ---------------      ----- ------------  ---------------
    97      0.285260   4 C  s                96      0.276431   4 C  s         
    35      0.185425   2 C  s                34      0.174589   2 C  s         
    95     -0.174047   4 C  s                 4     -0.146368   1 O  s         
    33     -0.109088   2 C  s                 3     -0.102279   1 O  s         
    94     -0.083395   4 C  s                 5     -0.072466   1 O  s         
 
 Vector    7  Occ=2.000000D+00  E=-5.896807D-01
              MO Center= -1.3D-01,  7.2D-01,  2.2D-01, r^2= 2.0D+00
   Bfn.  Coefficient  Atom+Function         Bfn.  Coefficient  Atom+Function  
  ----- ------------  ---------------      ----- ------------  ---------------
    66      0.325868   3 C  s                65      0.277993   3 C  s         
     4     -0.238834   1 O  s                64     -0.171812   3 C  s         
     3     -0.168763   1 O  s                 5     -0.148270   1 O  s         
     2      0.111405   1 O  s                38      0.104590   2 C  py        
   132      0.102833   6 H  s                97     -0.099244   4 C  s         
 
 Vector    8  Occ=2.000000D+00  E=-5.297849D-01
              MO Center=  4.1D-01,  1.7D-02, -1.0D-01, r^2= 2.7D+00
   Bfn.  Coefficient  Atom+Function         Bfn.  Coefficient  Atom+Function  
  ----- ------------  ---------------      ----- ------------  ---------------
    35      0.302950   2 C  s                34      0.224768   2 C  s         
    97     -0.155179   4 C  s                66     -0.153638   3 C  s         
    33     -0.138259   2 C  s               126      0.132272   5 H  s         
    96     -0.128922   4 C  s                 6      0.107142   1 O  px        
   125      0.105808   5 H  s                65     -0.099815   3 C  s         
 
 Vector    9  Occ=2.000000D+00  E=-4.473411D-01
              MO Center=  1.1D-01,  2.9D-01,  2.5D-01, r^2= 2.5D+00
   Bfn.  Coefficient  Atom+Function         Bfn.  Coefficient  Atom+Function  
  ----- ------------  ---------------      ----- ------------  ---------------
    70      0.211002   3 C  pz               39      0.155062   2 C  pz        
   132      0.144992   6 H  s                73      0.132817   3 C  pz        
     8      0.128237   1 O  pz              126      0.115828   5 H  s         
     6     -0.109914   1 O  px              131      0.107591   6 H  s         
    38     -0.106932   2 C  py               37      0.105214   2 C  px        
 
 Vector   10  Occ=2.000000D+00  E=-4.136710D-01
              MO Center=  4.8D-02,  2.8D-01, -2.4D-01, r^2= 2.6D+00
   Bfn.  Coefficient  Atom+Function         Bfn.  Coefficient  Atom+Function  
  ----- ------------  ---------------      ----- ------------  ---------------
    69      0.215031   3 C  py              101      0.156007   4 C  pz        
   138      0.153879   7 H  s                 6     -0.144228   1 O  px        
    38     -0.139271   2 C  py               37      0.128783   2 C  px        
     7     -0.120840   1 O  py               72      0.121298   3 C  py        
    70     -0.116049   3 C  pz                9     -0.115273   1 O  px        
 
 Vector   11  Occ=2.000000D+00  E=-3.768770D-01
              MO Center=  9.2D-01, -3.2D-01, -7.5D-01, r^2= 2.7D+00
   Bfn.  Coefficient  Atom+Function         Bfn.  Coefficient  Atom+Function  
  ----- ------------  ---------------      ----- ------------  ---------------
    99      0.209580   4 C  px              144      0.186285   8 H  s         
   100      0.166196   4 C  py              150     -0.140895   9 H  s         
   102      0.134469   4 C  px              143      0.130371   8 H  s         
    37      0.126762   2 C  px                6     -0.116169   1 O  px        
     7      0.115775   1 O  py              103      0.109764   4 C  py        
 
 Vector   12  Occ=2.000000D+00  E=-3.564874D-01
              MO Center=  6.1D-01, -3.5D-01, -8.8D-01, r^2= 2.9D+00
   Bfn.  Coefficient  Atom+Function         Bfn.  Coefficient  Atom+Function  
  ----- ------------  ---------------      ----- ------------  ---------------
   100      0.255806   4 C  py              150     -0.186519   9 H  s         
   156      0.176186  10 H  s                 7     -0.166504   1 O  py        
   103      0.165826   4 C  py               10     -0.133274   1 O  py        
   149     -0.130039   9 H  s               155      0.124576  10 H  s         
    70      0.116341   3 C  pz              106      0.103035   4 C  py        
 
 Vector   13  Occ=2.000000D+00  E=-3.290123D-01
              MO Center=  3.1D-01,  2.4D-01, -2.3D-01, r^2= 2.8D+00
   Bfn.  Coefficient  Atom+Function         Bfn.  Coefficient  Atom+Function  
  ----- ------------  ---------------      ----- ------------  ---------------
    39      0.209233   2 C  pz              101     -0.185521   4 C  pz        
     7     -0.181379   1 O  py               70     -0.165627   3 C  pz        
   138      0.160497   7 H  s                10     -0.146422   1 O  py        
    42      0.141843   2 C  pz               99      0.141045   4 C  px        
   104     -0.130550   4 C  pz              137      0.107960   7 H  s         
 
 Vector   14  Occ=2.000000D+00  E=-3.209581D-01
              MO Center=  4.2D-01, -4.2D-02, -2.2D-01, r^2= 3.0D+00
   Bfn.  Coefficient  Atom+Function         Bfn.  Coefficient  Atom+Function  
  ----- ------------  ---------------      ----- ------------  ---------------
     7      0.194250   1 O  py              126      0.167792   5 H  s         
    10      0.159415   1 O  py              156      0.154423  10 H  s         
    99     -0.148537   4 C  px                6     -0.142228   1 O  px        
    39      0.142432   2 C  pz              101     -0.131378   4 C  pz        
    37      0.128704   2 C  px              144     -0.126562   8 H  s         
 
 Vector   15  Occ=2.000000D+00  E=-2.633618D-01
              MO Center=  1.2D-02,  1.5D-01,  3.6D-02, r^2= 2.3D+00
   Bfn.  Coefficient  Atom+Function         Bfn.  Coefficient  Atom+Function  
  ----- ------------  ---------------      ----- ------------  ---------------
    68      0.263992   3 C  px               38      0.256352   2 C  py        
     6     -0.238135   1 O  px               41      0.200109   2 C  py        
    71      0.196029   3 C  px                9     -0.186260   1 O  px        
    12     -0.157541   1 O  px              150      0.114619   9 H  s         
   100     -0.110798   4 C  py               67      0.107110   3 C  s         
 
 Vector   16  Occ=2.000000D+00  E=-2.196028D-01
              MO Center= -5.8D-01, -2.4D-02,  2.1D-01, r^2= 1.6D+00
   Bfn.  Coefficient  Atom+Function         Bfn.  Coefficient  Atom+Function  
  ----- ------------  ---------------      ----- ------------  ---------------
     8      0.448329   1 O  pz               11      0.356977   1 O  pz        
    14      0.295952   1 O  pz              133     -0.131585   6 H  s         
   139      0.115192   7 H  s               132     -0.104200   6 H  s         
   138      0.103620   7 H  s               145     -0.100577   8 H  s         
   126     -0.098111   5 H  s                98      0.090697   4 C  s         
 
 Vector   17  Occ=0.000000D+00  E= 2.538290D-02
              MO Center=  1.2D+00, -1.2D-01, -6.0D-01, r^2= 7.2D+00
   Bfn.  Coefficient  Atom+Function         Bfn.  Coefficient  Atom+Function  
  ----- ------------  ---------------      ----- ------------  ---------------
    98      4.484790   4 C  s               145     -1.540991   8 H  s         
   151     -1.505496   9 H  s               157     -1.336684  10 H  s         
   127     -1.253546   5 H  s                45      1.135506   2 C  pz        
   139     -0.859032   7 H  s                67      0.669679   3 C  s         
   133     -0.608025   6 H  s                75      0.333475   3 C  py        
 
 Vector   18  Occ=0.000000D+00  E= 4.285944D-02
              MO Center= -1.3D-01,  6.7D-01,  1.1D-01, r^2= 4.5D+00
   Bfn.  Coefficient  Atom+Function         Bfn.  Coefficient  Atom+Function  
  ----- ------------  ---------------      ----- ------------  ---------------
    98     -2.074546   4 C  s                36      1.925281   2 C  s         
     5     -1.278061   1 O  s                74     -0.938136   3 C  px        
   151      0.800156   9 H  s                45     -0.482969   2 C  pz        
    13     -0.437936   1 O  py               44      0.401069   2 C  py        
   157      0.395478  10 H  s                67     -0.382153   3 C  s         
 
 Vector   19  Occ=0.000000D+00  E= 5.012314D-02
              MO Center=  2.8D-01,  7.6D-01, -1.2D-01, r^2= 6.4D+00
   Bfn.  Coefficient  Atom+Function         Bfn.  Coefficient  Atom+Function  
  ----- ------------  ---------------      ----- ------------  ---------------
    67      3.424096   3 C  s                36     -2.340317   2 C  s         
   139     -1.666589   7 H  s               127      1.311454   5 H  s         
   145      0.783145   8 H  s               133     -0.770365   6 H  s         
    44     -0.760236   2 C  py               45     -0.603229   2 C  pz        
   157     -0.508940  10 H  s                74      0.506001   3 C  px        
 
 Vector   20  Occ=0.000000D+00  E= 5.087470D-02
              MO Center=  6.8D-01,  3.0D-01,  3.9D-01, r^2= 7.7D+00
   Bfn.  Coefficient  Atom+Function         Bfn.  Coefficient  Atom+Function  
  ----- ------------  ---------------      ----- ------------  ---------------
    98      3.417877   4 C  s                67     -1.708981   3 C  s         
    36     -1.696012   2 C  s               133      1.695103   6 H  s         
   127      1.652237   5 H  s               157     -1.313494  10 H  s         
   145     -0.979601   8 H  s                44      0.884834   2 C  py        
    43     -0.748153   2 C  px              151     -0.670321   9 H  s         
 
 Vector   21  Occ=0.000000D+00  E= 6.472667D-02
              MO Center=  2.7D-01,  1.1D-01, -1.8D-01, r^2= 4.8D+00
   Bfn.  Coefficient  Atom+Function         Bfn.  Coefficient  Atom+Function  
  ----- ------------  ---------------      ----- ------------  ---------------
   139      1.250786   7 H  s                98      1.209274   4 C  s         
   151     -0.969643   9 H  s                67     -0.962894   3 C  s         
     5     -0.872820   1 O  s                43     -0.814125   2 C  px        
    75     -0.572247   3 C  py              133      0.573655   6 H  s         
    12     -0.483269   1 O  px              127     -0.430043   5 H  s         
 
 Vector   22  Occ=0.000000D+00  E= 8.608695D-02
              MO Center=  1.3D+00,  1.8D-01, -5.2D-01, r^2= 7.1D+00
   Bfn.  Coefficient  Atom+Function         Bfn.  Coefficient  Atom+Function  
  ----- ------------  ---------------      ----- ------------  ---------------
    36      2.897626   2 C  s               145      2.043710   8 H  s         
    67     -1.411665   3 C  s               157     -1.318461  10 H  s         
   127     -1.292564   5 H  s               107     -1.132242   4 C  pz        
   133      1.137676   6 H  s               105     -1.021623   4 C  px        
    98     -0.978459   4 C  s                75      0.783015   3 C  py        
 
 Vector   23  Occ=0.000000D+00  E= 9.126567D-02
              MO Center=  1.1D+00, -6.1D-01, -5.2D-01, r^2= 6.7D+00
   Bfn.  Coefficient  Atom+Function         Bfn.  Coefficient  Atom+Function  
  ----- ------------  ---------------      ----- ------------  ---------------
    36      2.602285   2 C  s               151      2.040817   9 H  s         
   145     -1.515270   8 H  s                98     -1.322823   4 C  s         
   106      1.121830   4 C  py              105      1.093880   4 C  px        
   133      0.980058   6 H  s                67     -0.952730   3 C  s         
   127     -0.849831   5 H  s               107     -0.722042   4 C  pz        
 
 Vector   24  Occ=0.000000D+00  E= 1.020122D-01
              MO Center=  4.4D-01,  4.1D-01, -1.1D+00, r^2= 6.8D+00
   Bfn.  Coefficient  Atom+Function         Bfn.  Coefficient  Atom+Function  
  ----- ------------  ---------------      ----- ------------  ---------------
   157      2.038134  10 H  s               133      1.588614   6 H  s         
   106     -1.479200   4 C  py              139     -1.485178   7 H  s         
    98     -1.447261   4 C  s               151     -1.425714   9 H  s         
    36      1.325895   2 C  s                76     -1.143012   3 C  pz        
   105      0.986534   4 C  px               45     -0.530538   2 C  pz        
 
 Vector   25  Occ=0.000000D+00  E= 1.388571D-01
              MO Center=  8.0D-01,  1.9D-01, -4.3D-01, r^2= 7.9D+00
   Bfn.  Coefficient  Atom+Function         Bfn.  Coefficient  Atom+Function  
  ----- ------------  ---------------      ----- ------------  ---------------
    36      4.546696   2 C  s                98     -3.472453   4 C  s         
    45     -3.371077   2 C  pz               67     -2.731940   3 C  s         
   127      2.724175   5 H  s                76      2.172483   3 C  pz        
   105      2.093105   4 C  px              133     -1.801279   6 H  s         
   139      1.691879   7 H  s               107     -1.514969   4 C  pz        
 
 Vector   26  Occ=0.000000D+00  E= 1.702649D-01
              MO Center=  4.4D-01,  5.5D-01, -1.3D-01, r^2= 7.3D+00
   Bfn.  Coefficient  Atom+Function         Bfn.  Coefficient  Atom+Function  
  ----- ------------  ---------------      ----- ------------  ---------------
    75      2.349646   3 C  py              107      1.638539   4 C  pz        
    67     -1.608087   3 C  s                36      1.552862   2 C  s         
   139     -1.190100   7 H  s               157      1.078662  10 H  s         
    74     -0.995714   3 C  px               44      0.761313   2 C  py        
    43     -0.634302   2 C  px              106     -0.568597   4 C  py        
 
 Vector   27  Occ=0.000000D+00  E= 1.969846D-01
              MO Center=  8.4D-01, -7.3D-02, -1.0D+00, r^2= 5.1D+00
   Bfn.  Coefficient  Atom+Function         Bfn.  Coefficient  Atom+Function  
  ----- ------------  ---------------      ----- ------------  ---------------
    67      3.172354   3 C  s                44     -2.565887   2 C  py        
   106      2.013196   4 C  py               36     -1.791919   2 C  s         
    43      0.949519   2 C  px               74      0.722050   3 C  px        
   105      0.725604   4 C  px              150      0.650172   9 H  s         
    45     -0.643193   2 C  pz              157     -0.634592  10 H  s         
 
 Vector   28  Occ=0.000000D+00  E= 2.023778D-01
              MO Center=  9.7D-01, -4.6D-01, -6.9D-01, r^2= 6.6D+00
   Bfn.  Coefficient  Atom+Function         Bfn.  Coefficient  Atom+Function  
  ----- ------------  ---------------      ----- ------------  ---------------
    36      2.552605   2 C  s                75      1.647761   3 C  py        
   105     -1.426937   4 C  px              133     -1.245463   6 H  s         
   107     -0.952109   4 C  pz              106      0.812418   4 C  py        
    45      0.773895   2 C  pz              139     -0.733097   7 H  s         
   156     -0.717638  10 H  s                76      0.681462   3 C  pz        
 
 Vector   29  Occ=0.000000D+00  E= 2.359433D-01
              MO Center= -3.0D-01,  3.8D-01, -3.2D-02, r^2= 5.4D+00
   Bfn.  Coefficient  Atom+Function         Bfn.  Coefficient  Atom+Function  
  ----- ------------  ---------------      ----- ------------  ---------------
    67      4.369095   3 C  s                36     -3.093145   2 C  s         
   139     -1.514086   7 H  s                66     -1.445942   3 C  s         
    98      1.334637   4 C  s               133     -1.224468   6 H  s         
   107      1.038081   4 C  pz               74     -0.814674   3 C  px        
     5     -0.756319   1 O  s                44      0.733368   2 C  py        
 
 Vector   30  Occ=0.000000D+00  E= 2.477526D-01
              MO Center=  5.5D-01,  1.2D-02, -8.8D-02, r^2= 5.8D+00
   Bfn.  Coefficient  Atom+Function         Bfn.  Coefficient  Atom+Function  
  ----- ------------  ---------------      ----- ------------  ---------------
    67      6.096692   3 C  s                43      4.236846   2 C  px        
    75     -3.007597   3 C  py               44     -2.678934   2 C  py        
    36     -2.160552   2 C  s               107     -2.074745   4 C  pz        
   157     -1.822456  10 H  s                45     -1.529412   2 C  pz        
    98     -1.414754   4 C  s               105     -1.158599   4 C  px        
 
 Vector   31  Occ=0.000000D+00  E= 2.688841D-01
              MO Center=  2.2D-01, -2.0D-01,  2.4D-01, r^2= 5.6D+00
   Bfn.  Coefficient  Atom+Function         Bfn.  Coefficient  Atom+Function  
  ----- ------------  ---------------      ----- ------------  ---------------
    36      4.422226   2 C  s                 5     -2.347901   1 O  s         
    67      2.132335   3 C  s                43     -1.595080   2 C  px        
   105      1.498650   4 C  px               98     -1.227901   4 C  s         
    66     -1.139525   3 C  s               133     -0.897800   6 H  s         
   139     -0.898643   7 H  s               127     -0.838133   5 H  s         
 
 Vector   32  Occ=0.000000D+00  E= 2.782764D-01
              MO Center=  4.6D-01,  3.9D-01,  3.0D-01, r^2= 4.1D+00
   Bfn.  Coefficient  Atom+Function         Bfn.  Coefficient  Atom+Function  
  ----- ------------  ---------------      ----- ------------  ---------------
    36      2.083705   2 C  s                67     -1.671245   3 C  s         
     5     -1.540507   1 O  s                43     -1.093923   2 C  px        
    74     -0.725567   3 C  px               45     -0.591536   2 C  pz        
   145      0.577782   8 H  s                98     -0.523787   4 C  s         
    66      0.480672   3 C  s                 4      0.477735   1 O  s         
 
 Vector   33  Occ=0.000000D+00  E= 2.986734D-01
              MO Center=  4.7D-01,  3.4D-01, -4.0D-01, r^2= 5.0D+00
   Bfn.  Coefficient  Atom+Function         Bfn.  Coefficient  Atom+Function  
  ----- ------------  ---------------      ----- ------------  ---------------
    43      2.014754   2 C  px               98     -1.840286   4 C  s         
   106      1.770463   4 C  py              151      1.713776   9 H  s         
    36     -1.423291   2 C  s                44     -1.319808   2 C  py        
    76      1.290189   3 C  pz              107     -1.091290   4 C  pz        
    66      1.039869   3 C  s               139      0.957823   7 H  s         
 
 Vector   34  Occ=0.000000D+00  E= 3.368883D-01
              MO Center=  1.1D-01,  4.2D-01, -4.0D-01, r^2= 5.8D+00
   Bfn.  Coefficient  Atom+Function         Bfn.  Coefficient  Atom+Function  
  ----- ------------  ---------------      ----- ------------  ---------------
    67      4.343265   3 C  s                76     -3.915957   3 C  pz        
   139     -3.142748   7 H  s                36     -2.110542   2 C  s         
   133      1.986241   6 H  s               107     -1.767326   4 C  pz        
   157     -1.711840  10 H  s                98      1.547904   4 C  s         
    43      1.320965   2 C  px               44     -1.018676   2 C  py        
 
 Vector   35  Occ=0.000000D+00  E= 3.621891D-01
              MO Center=  7.7D-01, -3.2D-03, -3.5D-01, r^2= 6.8D+00
   Bfn.  Coefficient  Atom+Function         Bfn.  Coefficient  Atom+Function  
  ----- ------------  ---------------      ----- ------------  ---------------
    98      7.711124   4 C  s                76      3.344121   3 C  pz        
   145     -3.282542   8 H  s                97     -3.136780   4 C  s         
   133     -2.351468   6 H  s               151     -1.876491   9 H  s         
   139      1.689438   7 H  s                45     -1.554963   2 C  pz        
    44      1.499597   2 C  py              157     -1.365032  10 H  s         
 
 Vector   36  Occ=0.000000D+00  E= 3.723278D-01
              MO Center=  5.5D-01,  2.5D-01, -8.1D-02, r^2= 6.4D+00
   Bfn.  Coefficient  Atom+Function         Bfn.  Coefficient  Atom+Function  
  ----- ------------  ---------------      ----- ------------  ---------------
    36     12.918503   2 C  s                98     -8.898642   4 C  s         
    67     -8.447807   3 C  s               127     -3.086316   5 H  s         
    97      2.434069   4 C  s               157      2.337069  10 H  s         
    44      1.997840   2 C  py               35     -1.858309   2 C  s         
   151      1.671725   9 H  s                74     -1.607700   3 C  px        
 
 Vector   37  Occ=0.000000D+00  E= 3.848422D-01
              MO Center=  9.0D-01, -3.5D-01, -1.2D-01, r^2= 6.1D+00
   Bfn.  Coefficient  Atom+Function         Bfn.  Coefficient  Atom+Function  
  ----- ------------  ---------------      ----- ------------  ---------------
    36      6.059449   2 C  s                98      4.190475   4 C  s         
   127     -4.128593   5 H  s                45      2.971597   2 C  pz        
    67     -2.541979   3 C  s               151     -2.250584   9 H  s         
    35     -2.215837   2 C  s                76     -2.056436   3 C  pz        
   145     -2.042215   8 H  s               133      1.696921   6 H  s         
 
 Vector   38  Occ=0.000000D+00  E= 3.948337D-01
              MO Center=  2.0D-01,  1.8D-01, -1.0D-01, r^2= 6.5D+00
   Bfn.  Coefficient  Atom+Function         Bfn.  Coefficient  Atom+Function  
  ----- ------------  ---------------      ----- ------------  ---------------
    98     12.149239   4 C  s                67     -6.271928   3 C  s         
    45      5.315970   2 C  pz               76     -3.019653   3 C  pz        
   157     -2.679518  10 H  s               133      2.618656   6 H  s         
    44      2.500598   2 C  py               43     -2.011941   2 C  px        
    75      1.894069   3 C  py               97     -1.743205   4 C  s         
 
 Vector   39  Occ=0.000000D+00  E= 4.018884D-01
              MO Center= -2.4D-01,  2.4D-01,  2.2D-01, r^2= 6.5D+00
   Bfn.  Coefficient  Atom+Function         Bfn.  Coefficient  Atom+Function  
  ----- ------------  ---------------      ----- ------------  ---------------
    67    -12.033979   3 C  s                36     11.595854   2 C  s         
    45     -5.102401   2 C  pz               98     -4.962830   4 C  s         
    44      3.745264   2 C  py              127      2.871661   5 H  s         
    66      2.741204   3 C  s               139      2.489696   7 H  s         
    43     -2.355291   2 C  px              105      2.359688   4 C  px        
 
 Vector   40  Occ=0.000000D+00  E= 4.150576D-01
              MO Center=  7.5D-01, -3.7D-01, -8.1D-01, r^2= 5.9D+00
   Bfn.  Coefficient  Atom+Function         Bfn.  Coefficient  Atom+Function  
  ----- ------------  ---------------      ----- ------------  ---------------
    98      6.601147   4 C  s                45      2.687731   2 C  pz        
    36     -2.660784   2 C  s               105     -2.391979   4 C  px        
   151     -2.358641   9 H  s               157     -1.987834  10 H  s         
   145      1.717222   8 H  s                97     -1.182557   4 C  s         
   144     -0.941776   8 H  s                35      0.848662   2 C  s         
 
 Vector   41  Occ=0.000000D+00  E= 4.272708D-01
              MO Center=  5.0D-01,  1.3D-01, -2.0D-01, r^2= 6.9D+00
   Bfn.  Coefficient  Atom+Function         Bfn.  Coefficient  Atom+Function  
  ----- ------------  ---------------      ----- ------------  ---------------
    36      9.284961   2 C  s                67     -4.867473   3 C  s         
    98     -4.001006   4 C  s                44      2.614304   2 C  py        
    75      2.545530   3 C  py              151      2.453797   9 H  s         
    43     -1.762918   2 C  px               74     -1.451032   3 C  px        
    45     -1.427043   2 C  pz              105      1.309552   4 C  px        
 
 Vector   42  Occ=0.000000D+00  E= 4.471672D-01
              MO Center=  8.7D-02, -4.9D-02, -1.8D-01, r^2= 6.1D+00
   Bfn.  Coefficient  Atom+Function         Bfn.  Coefficient  Atom+Function  
  ----- ------------  ---------------      ----- ------------  ---------------
    36      9.867933   2 C  s                98     -8.947475   4 C  s         
    45     -5.451644   2 C  pz               67     -3.163813   3 C  s         
   127      2.806378   5 H  s                76      2.623132   3 C  pz        
    44      2.333255   2 C  py              157      2.162383  10 H  s         
   133     -2.041939   6 H  s               106     -1.983312   4 C  py        
 
 Vector   43  Occ=0.000000D+00  E= 4.594348D-01
              MO Center=  7.5D-02,  7.9D-01, -4.9D-01, r^2= 5.1D+00
   Bfn.  Coefficient  Atom+Function         Bfn.  Coefficient  Atom+Function  
  ----- ------------  ---------------      ----- ------------  ---------------
   139      3.153905   7 H  s               157     -2.291369  10 H  s         
   107     -2.237781   4 C  pz               75     -2.080844   3 C  py        
    45     -1.741413   2 C  pz               43      1.552118   2 C  px        
    44     -1.535642   2 C  py              138     -1.426681   7 H  s         
    76      1.126798   3 C  pz               98     -0.830943   4 C  s         
 
 Vector   44  Occ=0.000000D+00  E= 4.684870D-01
              MO Center=  5.2D-01,  1.3D-01, -3.0D-02, r^2= 5.7D+00
   Bfn.  Coefficient  Atom+Function         Bfn.  Coefficient  Atom+Function  
  ----- ------------  ---------------      ----- ------------  ---------------
    98     -4.912196   4 C  s                36      4.594961   2 C  s         
    45     -2.097455   2 C  pz              145      1.691483   8 H  s         
   107     -1.662645   4 C  pz              133      1.491833   6 H  s         
    67     -1.356404   3 C  s                35     -1.223922   2 C  s         
   132     -1.109460   6 H  s               157     -1.108003  10 H  s         
 
 Vector   45  Occ=0.000000D+00  E= 5.082563D-01
              MO Center=  8.4D-01, -3.6D-01, -8.8D-01, r^2= 4.9D+00
   Bfn.  Coefficient  Atom+Function         Bfn.  Coefficient  Atom+Function  
  ----- ------------  ---------------      ----- ------------  ---------------
    98     11.390572   4 C  s                36     -7.402594   2 C  s         
    45      4.622897   2 C  pz              107      3.054193   4 C  pz        
   106      1.369612   4 C  py              144     -1.325711   8 H  s         
   127     -1.229644   5 H  s               156     -1.188433  10 H  s         
    14     -1.144236   1 O  pz              105     -1.023025   4 C  px        
 
 Vector   46  Occ=0.000000D+00  E= 5.350630D-01
              MO Center=  1.5D-01, -4.1D-01, -5.3D-01, r^2= 4.4D+00
   Bfn.  Coefficient  Atom+Function         Bfn.  Coefficient  Atom+Function  
  ----- ------------  ---------------      ----- ------------  ---------------
    98      7.769546   4 C  s                36     -7.013719   2 C  s         
    45      3.826116   2 C  pz               76     -3.202782   3 C  pz        
   133      1.760088   6 H  s               107      1.605826   4 C  pz        
   105     -1.547137   4 C  px              139     -1.467813   7 H  s         
     5      1.145397   1 O  s                14      1.095738   1 O  pz        
 
 Vector   47  Occ=0.000000D+00  E= 6.585277D-01
              MO Center= -3.7D-01,  4.5D-02, -2.1D-02, r^2= 4.3D+00
   Bfn.  Coefficient  Atom+Function         Bfn.  Coefficient  Atom+Function  
  ----- ------------  ---------------      ----- ------------  ---------------
    36     11.371926   2 C  s                67     -8.828788   3 C  s         
    98     -3.963538   4 C  s                43     -2.529887   2 C  px        
    75      2.389058   3 C  py               13      2.200105   1 O  py        
    76      2.037961   3 C  pz              105      1.552702   4 C  px        
   139      1.500154   7 H  s                44      1.433165   2 C  py        
 
 Vector   48  Occ=0.000000D+00  E= 6.741432D-01
              MO Center= -3.1D-01,  3.5D-01,  1.4D-01, r^2= 3.9D+00
   Bfn.  Coefficient  Atom+Function         Bfn.  Coefficient  Atom+Function  
  ----- ------------  ---------------      ----- ------------  ---------------
    36      8.295113   2 C  s                67     -8.073388   3 C  s         
     5      2.924205   1 O  s                75      2.618056   3 C  py        
    13      2.146407   1 O  py               98     -2.143786   4 C  s         
    43     -1.326961   2 C  px               45     -1.224415   2 C  pz        
     4     -1.083255   1 O  s                44      1.019216   2 C  py        
 
 Vector   49  Occ=0.000000D+00  E= 7.078422D-01
              MO Center=  1.7D-01, -3.1D-01, -2.7D-01, r^2= 4.5D+00
   Bfn.  Coefficient  Atom+Function         Bfn.  Coefficient  Atom+Function  
  ----- ------------  ---------------      ----- ------------  ---------------
    67      9.433964   3 C  s                36     -7.342649   2 C  s         
    43      3.677517   2 C  px               44     -3.486517   2 C  py        
    75     -2.736168   3 C  py               98     -2.502168   4 C  s         
     5      2.353633   1 O  s                12      1.703469   1 O  px        
   106      1.643768   4 C  py               13     -1.283618   1 O  py        
 
 Vector   50  Occ=0.000000D+00  E= 7.616428D-01
              MO Center=  6.3D-01, -2.4D-02, -3.4D-01, r^2= 4.1D+00
   Bfn.  Coefficient  Atom+Function         Bfn.  Coefficient  Atom+Function  
  ----- ------------  ---------------      ----- ------------  ---------------
    45      2.325980   2 C  pz               36      1.693070   2 C  s         
   127     -1.663357   5 H  s               105     -1.590197   4 C  px        
     5     -1.524060   1 O  s                43      1.409807   2 C  px        
   126     -1.352260   5 H  s               144      1.265876   8 H  s         
    66      0.985143   3 C  s                76     -0.961052   3 C  pz        
 
 Vector   51  Occ=0.000000D+00  E= 7.936770D-01
              MO Center=  3.0D-01,  4.2D-02, -2.1D-01, r^2= 4.4D+00
   Bfn.  Coefficient  Atom+Function         Bfn.  Coefficient  Atom+Function  
  ----- ------------  ---------------      ----- ------------  ---------------
     5      4.031258   1 O  s                36     -2.605982   2 C  s         
    76     -2.497696   3 C  pz                4     -1.575360   1 O  s         
    45      1.493594   2 C  pz               12      1.337193   1 O  px        
   133      1.323406   6 H  s                43      1.172857   2 C  px        
    35     -1.048063   2 C  s                66     -1.024164   3 C  s         
 
 Vector   52  Occ=0.000000D+00  E= 8.314655D-01
              MO Center=  3.2D-01,  1.5D-01, -1.3D-02, r^2= 4.5D+00
   Bfn.  Coefficient  Atom+Function         Bfn.  Coefficient  Atom+Function  
  ----- ------------  ---------------      ----- ------------  ---------------
    36      6.645458   2 C  s                 5     -4.036114   1 O  s         
    98     -4.022278   4 C  s                43     -2.637506   2 C  px        
   105      1.969384   4 C  px               35     -1.846966   2 C  s         
    45     -1.753201   2 C  pz               44      1.495165   2 C  py        
    66     -1.129301   3 C  s                97      1.043988   4 C  s         
 
 Vector   53  Occ=0.000000D+00  E= 8.538769D-01
              MO Center=  6.1D-01,  1.3D-01, -3.9D-01, r^2= 4.2D+00
   Bfn.  Coefficient  Atom+Function         Bfn.  Coefficient  Atom+Function  
  ----- ------------  ---------------      ----- ------------  ---------------
    98     -4.614282   4 C  s                45     -4.517732   2 C  pz        
    36      4.342730   2 C  s                76      2.128989   3 C  pz        
   127      1.796664   5 H  s               106     -1.531757   4 C  py        
    44      1.439588   2 C  py              105      1.332591   4 C  px        
   150     -1.253972   9 H  s               132     -1.104541   6 H  s         
 
 Vector   54  Occ=0.000000D+00  E= 8.706955D-01
              MO Center=  1.7D-01, -3.6D-02, -1.3D-01, r^2= 4.3D+00
   Bfn.  Coefficient  Atom+Function         Bfn.  Coefficient  Atom+Function  
  ----- ------------  ---------------      ----- ------------  ---------------
     5      4.624114   1 O  s                36     -1.823624   2 C  s         
     4     -1.585260   1 O  s               138      1.452588   7 H  s         
    76      1.248723   3 C  pz               67     -1.214560   3 C  s         
    12      1.194894   1 O  px               66     -1.144569   3 C  s         
    98     -0.868072   4 C  s               156     -0.865634  10 H  s         
 
 Vector   55  Occ=0.000000D+00  E= 9.178353D-01
              MO Center=  4.9D-01,  3.2D-01, -4.6D-01, r^2= 4.5D+00
   Bfn.  Coefficient  Atom+Function         Bfn.  Coefficient  Atom+Function  
  ----- ------------  ---------------      ----- ------------  ---------------
    35      4.898633   2 C  s                36     -1.826902   2 C  s         
    67      1.400661   3 C  s               132     -1.338776   6 H  s         
    72      1.204623   3 C  py              156     -1.189370  10 H  s         
    84      1.152836   3 C  d  0             66     -1.129435   3 C  s         
    41      1.088175   2 C  py              116     -1.079157   4 C  d  1      
 
 Vector   56  Occ=0.000000D+00  E= 9.614190D-01
              MO Center=  4.7D-01,  2.8D-01, -5.5D-01, r^2= 4.7D+00
   Bfn.  Coefficient  Atom+Function         Bfn.  Coefficient  Atom+Function  
  ----- ------------  ---------------      ----- ------------  ---------------
    35      4.242437   2 C  s                67      2.608015   3 C  s         
   138     -2.329680   7 H  s                76     -1.799104   3 C  pz        
    42     -1.723197   2 C  pz               83     -1.628808   3 C  d -1      
    98     -1.531782   4 C  s               115     -1.462363   4 C  d  0      
    36     -1.433605   2 C  s               107     -1.334997   4 C  pz        
 
 Vector   57  Occ=0.000000D+00  E= 9.922825D-01
              MO Center=  3.1D-01,  5.3D-01, -8.8D-02, r^2= 4.0D+00
   Bfn.  Coefficient  Atom+Function         Bfn.  Coefficient  Atom+Function  
  ----- ------------  ---------------      ----- ------------  ---------------
    36      7.055849   2 C  s                98     -4.748237   4 C  s         
    67     -3.628997   3 C  s                45     -3.565824   2 C  pz        
    43     -2.195301   2 C  px               44      2.004555   2 C  py        
    66     -1.587632   3 C  s               127      1.485903   5 H  s         
    75      1.390054   3 C  py              126      1.333816   5 H  s         
 
 Vector   58  Occ=0.000000D+00  E= 1.012936D+00
              MO Center=  4.1D-01,  4.9D-01, -9.7D-02, r^2= 4.3D+00
   Bfn.  Coefficient  Atom+Function         Bfn.  Coefficient  Atom+Function  
  ----- ------------  ---------------      ----- ------------  ---------------
    36      5.538584   2 C  s                67     -4.569861   3 C  s         
    45     -2.134066   2 C  pz               44      1.869204   2 C  py        
    98     -1.744172   4 C  s               156     -1.502179  10 H  s         
   144      1.464506   8 H  s                43     -1.383103   2 C  px        
    82      1.302724   3 C  d -2             74     -1.288877   3 C  px        
 
 Vector   59  Occ=0.000000D+00  E= 1.040604D+00
              MO Center=  6.9D-01, -1.5D-01, -4.5D-01, r^2= 4.2D+00
   Bfn.  Coefficient  Atom+Function         Bfn.  Coefficient  Atom+Function  
  ----- ------------  ---------------      ----- ------------  ---------------
    36      3.043684   2 C  s                35      2.706963   2 C  s         
    66     -2.415275   3 C  s               150      1.994130   9 H  s         
     5     -1.876976   1 O  s               144     -1.841021   8 H  s         
   117      1.716630   4 C  d  2             41      1.587258   2 C  py        
    67     -1.560551   3 C  s                44      1.466532   2 C  py        
 
 Vector   60  Occ=0.000000D+00  E= 1.079483D+00
              MO Center=  6.7D-01,  1.7D-02, -7.0D-02, r^2= 4.1D+00
   Bfn.  Coefficient  Atom+Function         Bfn.  Coefficient  Atom+Function  
  ----- ------------  ---------------      ----- ------------  ---------------
    66     -4.045282   3 C  s                98      4.043543   4 C  s         
    45      3.748694   2 C  pz               97      3.653898   4 C  s         
    36     -3.233187   2 C  s                41      2.538154   2 C  py        
   104      2.477020   4 C  pz               42      2.334536   2 C  pz        
    72      2.325226   3 C  py               53     -2.192683   2 C  d  0      
 
 Vector   61  Occ=0.000000D+00  E= 1.104833D+00
              MO Center=  3.6D-01,  8.2D-02,  7.1D-02, r^2= 3.8D+00
   Bfn.  Coefficient  Atom+Function         Bfn.  Coefficient  Atom+Function  
  ----- ------------  ---------------      ----- ------------  ---------------
    36      7.636162   2 C  s                67     -5.365906   3 C  s         
    98     -2.996219   4 C  s                66      2.194894   3 C  s         
   126     -2.040059   5 H  s                45     -1.924695   2 C  pz        
   132      1.723151   6 H  s                72     -1.619941   3 C  py        
    41     -1.490572   2 C  py               53      1.458312   2 C  d  0      
 
 Vector   62  Occ=0.000000D+00  E= 1.147469D+00
              MO Center=  6.3D-01, -1.1D-02, -6.1D-02, r^2= 3.5D+00
   Bfn.  Coefficient  Atom+Function         Bfn.  Coefficient  Atom+Function  
  ----- ------------  ---------------      ----- ------------  ---------------
    67      4.879005   3 C  s                36     -3.447727   2 C  s         
    44     -2.313305   2 C  py               97     -1.907522   4 C  s         
   126      1.769868   5 H  s                54      1.598865   2 C  d  1      
    43      1.497621   2 C  px               55      1.493626   2 C  d  2      
    42     -1.466977   2 C  pz               75     -1.363535   3 C  py        
 
 Vector   63  Occ=0.000000D+00  E= 1.215557D+00
              MO Center=  5.6D-01,  2.0D-01, -1.4D-01, r^2= 3.8D+00
   Bfn.  Coefficient  Atom+Function         Bfn.  Coefficient  Atom+Function  
  ----- ------------  ---------------      ----- ------------  ---------------
    36      6.989498   2 C  s                66     -5.046364   3 C  s         
    67     -3.463520   3 C  s                97     -3.357141   4 C  s         
    35      3.110841   2 C  s                72      1.918653   3 C  py        
    51     -1.776775   2 C  d -2             52      1.685595   2 C  d -1      
   138      1.649309   7 H  s                41      1.496191   2 C  py        
 
 Vector   64  Occ=0.000000D+00  E= 1.350445D+00
              MO Center=  3.3D-01,  5.6D-01,  2.3D-01, r^2= 3.6D+00
   Bfn.  Coefficient  Atom+Function         Bfn.  Coefficient  Atom+Function  
  ----- ------------  ---------------      ----- ------------  ---------------
    66      4.748188   3 C  s                35      3.801925   2 C  s         
    67     -3.215172   3 C  s                36     -2.512175   2 C  s         
    65     -2.436408   3 C  s               132     -2.071142   6 H  s         
   133      1.438408   6 H  s                34     -1.389083   2 C  s         
    72      1.362965   3 C  py              139      1.113551   7 H  s         
 
 Vector   65  Occ=0.000000D+00  E= 1.416060D+00
              MO Center=  1.5D-01,  5.2D-01, -4.8D-02, r^2= 3.4D+00
   Bfn.  Coefficient  Atom+Function         Bfn.  Coefficient  Atom+Function  
  ----- ------------  ---------------      ----- ------------  ---------------
    36      4.243203   2 C  s                67     -3.732514   3 C  s         
    35     -3.712286   2 C  s                66      3.698166   3 C  s         
    73     -2.343710   3 C  pz              138     -2.235106   7 H  s         
   139      2.196571   7 H  s               126      1.761448   5 H  s         
    76      1.701865   3 C  pz               34      1.517717   2 C  s         
 
 Vector   66  Occ=0.000000D+00  E= 1.432880D+00
              MO Center=  1.1D+00, -4.7D-01, -1.1D+00, r^2= 3.5D+00
   Bfn.  Coefficient  Atom+Function         Bfn.  Coefficient  Atom+Function  
  ----- ------------  ---------------      ----- ------------  ---------------
    98     10.058066   4 C  s                97     -7.548212   4 C  s         
    96      3.053665   4 C  s               145     -2.407031   8 H  s         
    36     -2.355074   2 C  s               151     -2.325538   9 H  s         
   157     -2.084654  10 H  s               144      1.705651   8 H  s         
   150      1.673790   9 H  s               104      1.458118   4 C  pz        
 
 Vector   67  Occ=0.000000D+00  E= 1.444388D+00
              MO Center=  3.8D-01,  2.2D-02, -1.2D-01, r^2= 4.2D+00
   Bfn.  Coefficient  Atom+Function         Bfn.  Coefficient  Atom+Function  
  ----- ------------  ---------------      ----- ------------  ---------------
    66      4.375467   3 C  s                35     -3.111818   2 C  s         
    67     -2.943252   3 C  s                98      2.949198   4 C  s         
   133      1.974337   6 H  s                45      1.960514   2 C  pz        
    36      1.906045   2 C  s                76     -1.795709   3 C  pz        
   127     -1.650808   5 H  s                65     -1.580035   3 C  s         
 
 Vector   68  Occ=0.000000D+00  E= 1.446540D+00
              MO Center=  3.1D-01, -5.6D-03, -1.6D-01, r^2= 3.1D+00
   Bfn.  Coefficient  Atom+Function         Bfn.  Coefficient  Atom+Function  
  ----- ------------  ---------------      ----- ------------  ---------------
    98      5.194862   4 C  s                97     -2.933432   4 C  s         
    36     -2.852855   2 C  s                 5      2.028576   1 O  s         
    45      1.920117   2 C  pz               35     -1.293531   2 C  s         
    96      1.233889   4 C  s               127     -1.166235   5 H  s         
    44     -1.019487   2 C  py               40      0.999287   2 C  px        
 
 Vector   69  Occ=0.000000D+00  E= 1.472925D+00
              MO Center=  9.7D-01, -2.7D-01, -9.8D-01, r^2= 3.5D+00
   Bfn.  Coefficient  Atom+Function         Bfn.  Coefficient  Atom+Function  
  ----- ------------  ---------------      ----- ------------  ---------------
    66      2.044016   3 C  s                36      1.715108   2 C  s         
    67     -1.397625   3 C  s                 5     -1.157429   1 O  s         
   103      1.151643   4 C  py               98     -1.027281   4 C  s         
    97      0.991804   4 C  s                65     -0.871387   3 C  s         
    71     -0.875449   3 C  px              133      0.862264   6 H  s         
 
 Vector   70  Occ=0.000000D+00  E= 1.477478D+00
              MO Center=  9.8D-01, -4.1D-01, -1.0D+00, r^2= 3.4D+00
   Bfn.  Coefficient  Atom+Function         Bfn.  Coefficient  Atom+Function  
  ----- ------------  ---------------      ----- ------------  ---------------
   156     -2.699558  10 H  s                36      2.626927   2 C  s         
   102     -2.054423   4 C  px              157      2.048915  10 H  s         
   104     -1.836185   4 C  pz               66     -1.799488   3 C  s         
   126      1.752178   5 H  s               103      1.590578   4 C  py        
    35     -1.449422   2 C  s               127     -1.424728   5 H  s         
 
 Vector   71  Occ=0.000000D+00  E= 1.512413D+00
              MO Center=  3.3D-01,  1.4D-01, -3.2D-01, r^2= 4.0D+00
   Bfn.  Coefficient  Atom+Function         Bfn.  Coefficient  Atom+Function  
  ----- ------------  ---------------      ----- ------------  ---------------
    98      2.758540   4 C  s               144      1.846925   8 H  s         
   102     -1.549003   4 C  px              145     -1.396712   8 H  s         
   103     -1.337963   4 C  py               45      1.325300   2 C  pz        
    97     -1.253629   4 C  s                36     -1.051248   2 C  s         
   150     -0.929751   9 H  s               106      0.768882   4 C  py        
 
 Vector   72  Occ=0.000000D+00  E= 1.541789D+00
              MO Center=  3.5D-01,  4.5D-01, -2.1D-01, r^2= 4.6D+00
   Bfn.  Coefficient  Atom+Function         Bfn.  Coefficient  Atom+Function  
  ----- ------------  ---------------      ----- ------------  ---------------
    36      4.282381   2 C  s                35     -3.680823   2 C  s         
    98     -3.550487   4 C  s                97      3.155196   4 C  s         
    67     -2.434243   3 C  s                73      2.147892   3 C  pz        
   132     -1.737967   6 H  s               133      1.436055   6 H  s         
   102     -1.374147   4 C  px              138      1.371411   7 H  s         
 
 Vector   73  Occ=0.000000D+00  E= 1.577776D+00
              MO Center=  4.7D-01,  5.0D-03, -4.4D-02, r^2= 3.3D+00
   Bfn.  Coefficient  Atom+Function         Bfn.  Coefficient  Atom+Function  
  ----- ------------  ---------------      ----- ------------  ---------------
    35      3.284334   2 C  s                36     -2.450171   2 C  s         
    40     -2.004454   2 C  px               97     -1.972387   4 C  s         
   126      1.818117   5 H  s                67      1.563983   3 C  s         
    42     -1.534455   2 C  pz               72      1.501627   3 C  py        
    34     -1.390207   2 C  s               127     -1.289802   5 H  s         
 
 Vector   74  Occ=0.000000D+00  E= 1.596322D+00
              MO Center=  3.8D-01,  3.4D-01, -1.8D-01, r^2= 3.4D+00
   Bfn.  Coefficient  Atom+Function         Bfn.  Coefficient  Atom+Function  
  ----- ------------  ---------------      ----- ------------  ---------------
    36     -5.373237   2 C  s                66     -5.371577   3 C  s         
    35      5.213556   2 C  s                67      4.048784   3 C  s         
    41      3.783860   2 C  py               71     -2.540689   3 C  px        
    72      2.500073   3 C  py               40     -2.199168   2 C  px        
    98      1.765736   4 C  s                82      1.650383   3 C  d -2      
 
 Vector   75  Occ=0.000000D+00  E= 1.641558D+00
              MO Center=  4.6D-01,  2.0D-01, -2.0D-02, r^2= 3.7D+00
   Bfn.  Coefficient  Atom+Function         Bfn.  Coefficient  Atom+Function  
  ----- ------------  ---------------      ----- ------------  ---------------
    66      2.689773   3 C  s                35      2.105587   2 C  s         
    98      1.936160   4 C  s                 5     -1.758593   1 O  s         
    97     -1.504807   4 C  s                67     -1.356927   3 C  s         
   144      1.136565   8 H  s               104     -1.081743   4 C  pz        
   103     -1.031774   4 C  py              150     -1.035982   9 H  s         
 
 Vector   76  Occ=0.000000D+00  E= 1.693664D+00
              MO Center=  5.9D-01,  6.1D-02, -4.1D-01, r^2= 3.6D+00
   Bfn.  Coefficient  Atom+Function         Bfn.  Coefficient  Atom+Function  
  ----- ------------  ---------------      ----- ------------  ---------------
    97     -5.302086   4 C  s                35      5.271357   2 C  s         
   104     -2.669106   4 C  pz               42     -2.606995   2 C  pz        
   102      1.873277   4 C  px               66     -1.782898   3 C  s         
    34     -1.541204   2 C  s                40      1.518352   2 C  px        
    96      1.456808   4 C  s                54      1.098589   2 C  d  1      
 
 Vector   77  Occ=0.000000D+00  E= 1.701393D+00
              MO Center= -7.5D-02,  3.5D-01, -6.9D-02, r^2= 3.7D+00
   Bfn.  Coefficient  Atom+Function         Bfn.  Coefficient  Atom+Function  
  ----- ------------  ---------------      ----- ------------  ---------------
     5      3.919328   1 O  s                72      3.434728   3 C  py        
    36     -2.566545   2 C  s                97      2.399762   4 C  s         
   138     -2.002534   7 H  s                66     -1.959963   3 C  s         
    42      1.781556   2 C  pz              104      1.568240   4 C  pz        
    41      1.554943   2 C  py               12      1.502899   1 O  px        
 
 Vector   78  Occ=0.000000D+00  E= 1.789685D+00
              MO Center=  3.9D-01,  2.8D-01,  2.5D-02, r^2= 3.5D+00
   Bfn.  Coefficient  Atom+Function         Bfn.  Coefficient  Atom+Function  
  ----- ------------  ---------------      ----- ------------  ---------------
    35      2.947572   2 C  s                97     -2.586884   4 C  s         
    36      1.614170   2 C  s                45     -1.253479   2 C  pz        
   104     -1.071879   4 C  pz               67     -1.009958   3 C  s         
    72      0.987311   3 C  py               42     -0.955069   2 C  pz        
   102      0.938948   4 C  px              103     -0.868354   4 C  py        
 
 Vector   79  Occ=0.000000D+00  E= 1.815562D+00
              MO Center= -6.4D-01,  1.6D-01,  1.9D-01, r^2= 2.5D+00
   Bfn.  Coefficient  Atom+Function         Bfn.  Coefficient  Atom+Function  
  ----- ------------  ---------------      ----- ------------  ---------------
    35      3.979923   2 C  s                 5     -3.343973   1 O  s         
    40     -2.437675   2 C  px               41      2.054948   2 C  py        
    72      1.891494   3 C  py               66     -1.668034   3 C  s         
    71     -1.624135   3 C  px               12     -1.398406   1 O  px        
   132     -1.021403   6 H  s               138     -1.012302   7 H  s         
 
 Vector   80  Occ=0.000000D+00  E= 1.841299D+00
              MO Center=  5.2D-02,  3.0D-01, -4.3D-02, r^2= 3.7D+00
   Bfn.  Coefficient  Atom+Function         Bfn.  Coefficient  Atom+Function  
  ----- ------------  ---------------      ----- ------------  ---------------
    35      1.310802   2 C  s                36     -1.230336   2 C  s         
    66      0.940491   3 C  s               156     -0.932321  10 H  s         
    41     -0.801569   2 C  py               67      0.741977   3 C  s         
   104     -0.729325   4 C  pz                5     -0.671712   1 O  s         
   157      0.641799  10 H  s               126     -0.632790   5 H  s         
 
 Vector   81  Occ=0.000000D+00  E= 1.866192D+00
              MO Center=  5.7D-01,  1.5D-01, -5.0D-01, r^2= 4.0D+00
   Bfn.  Coefficient  Atom+Function         Bfn.  Coefficient  Atom+Function  
  ----- ------------  ---------------      ----- ------------  ---------------
    35      6.863729   2 C  s                66     -4.268649   3 C  s         
    72      3.478992   3 C  py               97     -3.472833   4 C  s         
    36      2.070292   2 C  s               104     -1.969966   4 C  pz        
    34     -1.683849   2 C  s                67     -1.546091   3 C  s         
    41      1.471816   2 C  py               45     -1.375058   2 C  pz        
 
 Vector   82  Occ=0.000000D+00  E= 1.917867D+00
              MO Center=  3.3D-01, -1.5D-01, -3.1D-01, r^2= 3.2D+00
   Bfn.  Coefficient  Atom+Function         Bfn.  Coefficient  Atom+Function  
  ----- ------------  ---------------      ----- ------------  ---------------
    98     -1.281340   4 C  s                36      1.250365   2 C  s         
   103     -1.230253   4 C  py               45     -1.177359   2 C  pz        
    97     -1.158320   4 C  s                35      1.016429   2 C  s         
    66     -0.833893   3 C  s               150     -0.782992   9 H  s         
    41      0.767916   2 C  py               42     -0.753482   2 C  pz        
 
 Vector   83  Occ=0.000000D+00  E= 1.991573D+00
              MO Center=  7.9D-01, -2.0D-01, -3.1D-01, r^2= 3.4D+00
   Bfn.  Coefficient  Atom+Function         Bfn.  Coefficient  Atom+Function  
  ----- ------------  ---------------      ----- ------------  ---------------
    98      3.465877   4 C  s                35      3.212015   2 C  s         
    66     -2.588987   3 C  s                40     -2.281223   2 C  px        
    72      1.869688   3 C  py               41      1.697675   2 C  py        
    43     -1.525255   2 C  px               36     -1.429869   2 C  s         
    71     -1.383572   3 C  px               67     -1.319302   3 C  s         
 
 Vector   84  Occ=0.000000D+00  E= 1.995842D+00
              MO Center=  6.6D-01, -1.3D-01, -7.7D-01, r^2= 3.5D+00
   Bfn.  Coefficient  Atom+Function         Bfn.  Coefficient  Atom+Function  
  ----- ------------  ---------------      ----- ------------  ---------------
    36      4.399314   2 C  s                98     -4.050905   4 C  s         
    35     -2.299457   2 C  s                45     -2.056166   2 C  pz        
    67     -1.449251   3 C  s               156      1.157808  10 H  s         
   104      1.057809   4 C  pz              107     -1.055995   4 C  pz        
    34      0.894313   2 C  s                 5     -0.771929   1 O  s         
 
 Vector   85  Occ=0.000000D+00  E= 2.088381D+00
              MO Center= -3.2D-02,  1.6D-01, -2.2D-02, r^2= 3.5D+00
   Bfn.  Coefficient  Atom+Function         Bfn.  Coefficient  Atom+Function  
  ----- ------------  ---------------      ----- ------------  ---------------
    98     -2.178494   4 C  s                36      2.124806   2 C  s         
   156      0.753163  10 H  s               138     -0.744079   7 H  s         
    14     -0.635739   1 O  pz               40     -0.559021   2 C  px        
   144      0.541994   8 H  s               150      0.524469   9 H  s         
    45     -0.503316   2 C  pz              105      0.501508   4 C  px        
 
 Vector   86  Occ=0.000000D+00  E= 2.098009D+00
              MO Center= -3.7D-01,  5.8D-02,  5.8D-02, r^2= 3.0D+00
   Bfn.  Coefficient  Atom+Function         Bfn.  Coefficient  Atom+Function  
  ----- ------------  ---------------      ----- ------------  ---------------
    36      5.900357   2 C  s                67     -5.628743   3 C  s         
    35     -3.302196   2 C  s                66      3.281094   3 C  s         
    41     -3.036325   2 C  py               71      2.734828   3 C  px        
    13      1.869291   1 O  py               82     -1.460543   3 C  d -2      
    43     -1.334064   2 C  px               75      1.337703   3 C  py        
 
 Vector   87  Occ=0.000000D+00  E= 2.163004D+00
              MO Center=  4.9D-01, -2.0D-02, -4.8D-01, r^2= 3.2D+00
   Bfn.  Coefficient  Atom+Function         Bfn.  Coefficient  Atom+Function  
  ----- ------------  ---------------      ----- ------------  ---------------
    98      2.133518   4 C  s                67     -1.871088   3 C  s         
    35     -1.454899   2 C  s                73      0.975212   3 C  pz        
    40      0.921175   2 C  px               36      0.884669   2 C  s         
   156     -0.886458  10 H  s                44      0.822533   2 C  py        
    43     -0.813328   2 C  px               42     -0.776979   2 C  pz        
 
 Vector   88  Occ=0.000000D+00  E= 2.199614D+00
              MO Center=  4.0D-01,  2.1D-01, -2.9D-01, r^2= 3.7D+00
   Bfn.  Coefficient  Atom+Function         Bfn.  Coefficient  Atom+Function  
  ----- ------------  ---------------      ----- ------------  ---------------
    98      2.165997   4 C  s                36     -1.232014   2 C  s         
    45      1.049192   2 C  pz               76     -0.940434   3 C  pz        
   132      0.798424   6 H  s                42     -0.750640   2 C  pz        
   103     -0.686336   4 C  py              117     -0.645869   4 C  d  2      
    97     -0.642066   4 C  s               138     -0.598666   7 H  s         
 
 Vector   89  Occ=0.000000D+00  E= 2.231836D+00
              MO Center=  6.7D-01, -1.4D-02, -1.2D-01, r^2= 3.6D+00
   Bfn.  Coefficient  Atom+Function         Bfn.  Coefficient  Atom+Function  
  ----- ------------  ---------------      ----- ------------  ---------------
    36      3.419264   2 C  s                67     -1.783615   3 C  s         
    98     -1.568989   4 C  s                 5     -1.123957   1 O  s         
    42     -0.987556   2 C  pz               72     -0.880169   3 C  py        
    35     -0.865478   2 C  s                45     -0.811430   2 C  pz        
   150      0.771663   9 H  s                43     -0.753492   2 C  px        
 
 Vector   90  Occ=0.000000D+00  E= 2.243121D+00
              MO Center=  7.2D-01, -2.4D-01, -7.4D-01, r^2= 3.7D+00
   Bfn.  Coefficient  Atom+Function         Bfn.  Coefficient  Atom+Function  
  ----- ------------  ---------------      ----- ------------  ---------------
   150      1.241089   9 H  s               144     -0.880937   8 H  s         
    66     -0.875225   3 C  s                72      0.809194   3 C  py        
    36      0.765723   2 C  s               117      0.744298   4 C  d  2      
    67     -0.606677   3 C  s                83      0.577323   3 C  d -1      
    98     -0.567321   4 C  s               149     -0.499689   9 H  s         
 
 Vector   91  Occ=0.000000D+00  E= 2.264521D+00
              MO Center=  9.3D-01, -2.4D-01, -1.1D+00, r^2= 3.1D+00
   Bfn.  Coefficient  Atom+Function         Bfn.  Coefficient  Atom+Function  
  ----- ------------  ---------------      ----- ------------  ---------------
    36      2.132546   2 C  s                66      1.973024   3 C  s         
    67     -1.451274   3 C  s                98     -1.391580   4 C  s         
    41     -1.375763   2 C  py               35     -1.050859   2 C  s         
   156      0.934197  10 H  s                71      0.835683   3 C  px        
    72     -0.819228   3 C  py               76      0.765547   3 C  pz        
 
 Vector   92  Occ=0.000000D+00  E= 2.283686D+00
              MO Center=  5.8D-01,  6.5D-02, -2.4D-01, r^2= 3.7D+00
   Bfn.  Coefficient  Atom+Function         Bfn.  Coefficient  Atom+Function  
  ----- ------------  ---------------      ----- ------------  ---------------
    98      3.501739   4 C  s                66      2.500789   3 C  s         
[...]
    21     -0.868004   1 O  d -1             42     -0.812173   2 C  pz        
    97     -0.717303   4 C  s                45     -0.689994   2 C  pz        
    98     -0.523585   4 C  s                 5     -0.511908   1 O  s         
    67     -0.495127   3 C  s               102      0.489655   4 C  px        
 
 Vector  154  Occ=0.000000D+00  E= 6.674246D+00
              MO Center= -8.7D-01, -1.8D-01,  2.1D-01, r^2= 5.7D-01
   Bfn.  Coefficient  Atom+Function         Bfn.  Coefficient  Atom+Function  
  ----- ------------  ---------------      ----- ------------  ---------------
    18      1.060259   1 O  d  1             23     -1.031762   1 O  d  1      
    97     -0.808365   4 C  s                42     -0.754109   2 C  pz        
    35      0.686608   2 C  s               102      0.618889   4 C  px        
    54     -0.536098   2 C  d  1             14      0.401516   1 O  pz        
    16     -0.399843   1 O  d -1             21      0.389503   1 O  d -1      
 
 Vector  155  Occ=0.000000D+00  E= 6.841879D+00
              MO Center= -8.8D-01, -1.9D-01,  2.1D-01, r^2= 5.9D-01
   Bfn.  Coefficient  Atom+Function         Bfn.  Coefficient  Atom+Function  
  ----- ------------  ---------------      ----- ------------  ---------------
     5      2.114881   1 O  s                40      1.775545   2 C  px        
     9      1.364679   1 O  px               97     -1.274431   4 C  s         
     4      1.211624   1 O  s                20      1.051055   1 O  d -2      
    42     -0.977241   2 C  pz               35     -0.866802   2 C  s         
    12      0.845628   1 O  px               15     -0.835702   1 O  d -2      
 
 Vector  156  Occ=0.000000D+00  E= 7.054725D+00
              MO Center= -8.9D-01, -1.8D-01,  2.1D-01, r^2= 6.4D-01
   Bfn.  Coefficient  Atom+Function         Bfn.  Coefficient  Atom+Function  
  ----- ------------  ---------------      ----- ------------  ---------------
    66     -3.158627   3 C  s                35      3.015861   2 C  s         
    40     -2.723496   2 C  px               72      2.682007   3 C  py        
    24     -1.577717   1 O  d  2             36      1.419160   2 C  s         
    10      1.279672   1 O  py               67     -1.266383   3 C  s         
    19      1.016913   1 O  d  2             13      0.861629   1 O  py        
 
 Vector  157  Occ=0.000000D+00  E= 2.193940D+01
              MO Center=  1.2D-01,  7.3D-01,  3.1D-03, r^2= 1.4D+00
   Bfn.  Coefficient  Atom+Function         Bfn.  Coefficient  Atom+Function  
  ----- ------------  ---------------      ----- ------------  ---------------
    64      1.554384   3 C  s                65     -1.317213   3 C  s         
    67     -1.295040   3 C  s                63     -1.225270   3 C  s         
    98      1.113718   4 C  s                95     -0.820911   4 C  s         
    96      0.679768   4 C  s                94      0.649241   4 C  s         
    40     -0.484981   2 C  px               35      0.469483   2 C  s         
 
 Vector  158  Occ=0.000000D+00  E= 2.198365D+01
              MO Center=  8.6D-01, -2.1D-01, -7.0D-01, r^2= 1.3D+00
   Bfn.  Coefficient  Atom+Function         Bfn.  Coefficient  Atom+Function  
  ----- ------------  ---------------      ----- ------------  ---------------
    95      1.412014   4 C  s                96     -1.303414   4 C  s         
    98     -1.143677   4 C  s                94     -1.110815   4 C  s         
    34     -0.942955   2 C  s                33      0.840821   2 C  s         
    36     -0.825316   2 C  s                65     -0.705899   3 C  s         
    64      0.672036   3 C  s                32     -0.656498   2 C  s         
 
 Vector  159  Occ=0.000000D+00  E= 2.209931D+01
              MO Center=  6.0D-01, -1.1D-01, -5.6D-02, r^2= 6.6D-01
   Bfn.  Coefficient  Atom+Function         Bfn.  Coefficient  Atom+Function  
  ----- ------------  ---------------      ----- ------------  ---------------
    36      2.218719   2 C  s                33     -1.563513   2 C  s         
    34      1.561931   2 C  s                35     -1.401240   2 C  s         
    98     -1.264191   4 C  s                32      1.224350   2 C  s         
    67     -1.180209   3 C  s                97      0.703151   4 C  s         
    95      0.677750   4 C  s                96     -0.613701   4 C  s         
 
 Vector  160  Occ=0.000000D+00  E= 4.341244D+01
              MO Center= -8.8D-01, -1.8D-01,  2.1D-01, r^2= 1.2D-01
   Bfn.  Coefficient  Atom+Function         Bfn.  Coefficient  Atom+Function  
  ----- ------------  ---------------      ----- ------------  ---------------
     4      2.503996   1 O  s                 3     -1.873564   1 O  s         
     2      1.731426   1 O  s                 1     -1.395824   1 O  s         
     5     -0.874424   1 O  s                36      0.823053   2 C  s         
     9      0.561246   1 O  px               66     -0.521273   3 C  s         
    40      0.464059   2 C  px               72      0.457682   3 C  py        
 

 center of mass
 --------------
 x =   0.30619318 y =   0.09486502 z =  -0.27792404

 moments of inertia (a.u.)
 ------------------
         200.671832555919          46.157205531307          84.827338040710
          46.157205531307         249.488129207073         -53.139798692776
          84.827338040710         -53.139798692776         240.196705351773
 
     Multipole analysis of the density
     ---------------------------------
 
     L   x y z        total         alpha         beta         nuclear
     -   - - -        -----         -----         ----         -------
     0   0 0 0     -0.000000    -16.000000    -16.000000     32.000000
 
     1   1 0 0      0.693807     -6.236714     -6.236714     13.167235
     1   0 1 0      0.325026     -1.615295     -1.615295      3.555616
     1   0 0 1     -0.062667      5.317218      5.317218    -10.697104
 
     2   2 0 0    -20.018716    -54.682519    -54.682519     89.346321
     2   1 1 0     -1.114489     14.052875     14.052875    -29.220239
     2   1 0 1      0.149829     26.776602     26.776602    -53.403375
     2   0 2 0    -17.836723    -40.545977    -40.545977     63.255231
     2   0 1 1      0.261814    -15.554350    -15.554350     31.370515
     2   0 0 2    -18.197943    -45.861870    -45.861870     73.525798
 
 *** CALLING NEW AORESP DRIVER FOR CLOSED AND OPEN SHELLS ***
 Entering AOResponse driver routine


--------------------------------------------------------------------------------

          ****************
          *** RESPONSE ***
          ****************

 Response module for NWChem and dynamic CPKS solver
 developed by J. Autschbach and coworkers, SUNY Buffalo
 The methodology used in this program is described in 
 ChemPhysChem 12 (2011), 3224-3235 (main reference)
 J. Chem. Phys. 123 (2005), 114103
 J. Chem. Phys. 122 (2005), 224115
 J. Chem. Phys. 122 (2005), 074105
 Comp. Lett. 3 (2007), 131-150 (contact JA for a copy)
 Please cite this work in publications based on results
 obtained with this code. Thank you!

 For extension of response module to open shell
 calculations please acknowledge:
 F. Aquino, Northwestern University, Schatz Rsrch Group
 The update to the methodology is described in
 J. Phys. Chem. A 118 (2014) 517-525



          -----------------------------------------------
          Solving response equations for perturbing field
          -----------------------------------------------

 number of frequencies:     1
 frequency in a.u.:  0.9319600E-01
 Perturbing field: electric
 Using GIAO formalism for OptRot
 Adding quadrupole terms to OptRot
 to create an origin in dependent tensor.
 Using El. Dipole Length Gauge
 
 Applying DAMPING constant of  0.003700 a.u.
 
 Setting up CPKS
 with frequency omega =      0.09319600 a.u.
 and a damping of            0.00370000 a.u.

 
                            NWChem Dynamic CPHF Module
                            --------------------------
 
 
    scftype = RHF 
    nclosed =   16
      nopen =    0
  variables =     9216
  num. vecs =        3
  tolerance =   1.0D-07
  max. iter =  100

 SCF residual:   4.131735504853904E-006


Iterative solution of linear equations
  No. of variables     4608
  No. of equations        3
  Maximum subspace       99
       Convergence  1.0D-07
        Start time     65.9


   iter   nsub   residual    time 
   ----  ------  --------  --------- 
 dft_CPHF2_read: failed to open
 ./methyloxirane_blyp-def2-tzvp_488.9_27.inp.aoresp_fiao_f1
     1      3    3.72D+00      97.8
     2      6    2.64D+00     129.8
     3      9    2.46D-01     161.9
     4     12    5.71D-02     194.2
     5     15    1.02D-02     226.2
     6     18    1.29D-03     258.3
     7     21    1.43D-04     290.4
     8     24    1.36D-05     322.5
     9     27    1.25D-06     354.5
    10     30    4.83D-07     386.7
    11     33    1.45D-08     418.8

 Calculating some arrays needed for GIAO optical rotation

    0 giaofock schwarz done =      92.48%
    0 giaofock schwarz done =      92.48%
 aor_r1_tensor_giao: roadata output requested
 dip-quad polarizability Re:

              1        2        3        4        5        6      
    1   77.5933  -6.3632 -27.5152  -4.4476   1.4441   9.0867
    2  -11.9054  25.7614   3.5814  23.4826 -21.5855   4.1839
    3   -6.5619   1.3793  39.5147  -0.1199  14.0415 -41.3583
 traceless dip-quad polarizability:

              1        2        3      
    1   75.2737  -9.5448 -41.2728
    2   -9.5448 -47.7876   2.1662
    3  -41.2728   2.1662 -27.4861

              1        2        3      
    1  -25.7386  38.6421   5.3721
    2   38.6421  27.3434 -32.3782
    3    5.3721 -32.3782  -1.6047

              1        2        3      
    1   14.1772   2.0690  59.2721
    2    2.0690  23.8402  21.0623
    3   59.2721  21.0623 -38.0174

 roa begin

 alpha real:
 XX       0.4106827129856E+02
 XY      -0.5227296337575E+01
 XZ      -0.3041488999303E+01
 YX      -0.5227296346189E+01
 YY       0.4406496858326E+02
 YZ       0.3225948739014E+01
 ZX      -0.3041489008727E+01
 ZY       0.3225948736678E+01
 ZZ       0.4153460141594E+02

 alpha im:
 XX       0.1113481114755E+00
 XY      -0.3017949138719E-01
 XZ      -0.1111516660858E-01
 YX      -0.3017948882835E-01
 YY       0.1293303106490E+00
 YZ       0.1868234116488E-01
 ZX      -0.1111516412414E-01
 ZY       0.1868233901427E-01
 ZZ       0.1231519612383E+00

 beta real:
 XX      -0.1476900391330E+00
 XY       0.9436099228725E+00
 XZ       0.2017495066508E+00
 YX      -0.8885610735747E+00
 YY       0.1452155258801E+00
 YZ      -0.1550631984167E+01
 ZX      -0.4802565598101E+00
 ZY       0.1882625118778E+01
 ZZ      -0.2071174833093E-02

 G-prime = -omega beta(real):
 XX      -0.1476900391330E+00
 XY       0.9436099228725E+00
 XZ       0.2017495066508E+00
 YX      -0.8885610735747E+00
 YY       0.1452155258801E+00
 YZ      -0.1550631984167E+01
 ZX      -0.4802565598101E+00
 ZY       0.1882625118778E+01
 ZZ      -0.2071174833093E-02

 beta im:
 XX      -0.6285031431289E-02
 XY       0.1354179632675E-01
 XZ       0.2904513616307E-02
 YX      -0.7644257956574E-02
 YY       0.4765111774357E-02
 YZ      -0.2357052920670E-01
 ZX      -0.1364172126800E-01
 ZY       0.4040115131746E-01
 ZZ       0.7279408847629E-03

 G-prime = -omega beta(imag):
 XX      -0.6285031431289E-02
 XY       0.1354179632675E-01
 XZ       0.2904513616307E-02
 YX      -0.7644257956574E-02
 YY       0.4765111774357E-02
 YZ      -0.2357052920670E-01
 ZX      -0.1364172126800E-01
 ZY       0.4040115131746E-01
 ZZ       0.7279408847629E-03

 dipole-quadrupole real (Cartesian):
 XXX      0.7759327033713E+02
 XXY     -0.6363214196354E+01
 XXZ     -0.2751520651467E+02
 XYY     -0.4447603058670E+01
 XYZ      0.1444147597335E+01
 XZZ      0.9086712330622E+01
 YXX     -0.1190537734339E+02
 YXY      0.2576137563984E+02
 YXZ      0.3581377211504E+01
 YYY      0.2348264053230E+02
 YYZ     -0.2158546434720E+02
 YZZ      0.4183892174201E+01
 ZXX     -0.6561872470987E+01
 ZXY      0.1379324386555E+01
 ZXZ      0.3951471987303E+02
 ZYY     -0.1198990602229E+00
 ZYZ      0.1404150767480E+02
 ZZZ     -0.4135833176072E+02

 dipole-quadrupole imag (Cartesian):
 XXX      0.2712021212764E+00
 XXY     -0.3540951141636E-01
 XXZ     -0.7584003033477E-01
 XYY     -0.2873939502185E-01
 XYZ      0.3357624136400E-02
 XZZ      0.6082914605046E-01
 YXX     -0.5749326581022E-01
 YXY      0.6274477628332E-01
 YXZ      0.2039896408191E-01
 YYY      0.9343513164275E-01
 YYZ     -0.6053539379890E-01
 YZZ      0.1013377010157E-01
 ZXX     -0.3363107050807E-01
 ZXY      0.1339383887565E-02
 ZXZ      0.1467471607238E+00
 ZYY      0.5328475965390E-02
 ZYZ      0.6728881103464E-01
 ZZZ     -0.9621186817291E-01

 dipole-quadrupole (traceless):
 XXX      0.7527371570115E+02
 XXY     -0.9544821294531E+01
 XXZ     -0.4127280977200E+02
 XYY     -0.4778759439254E+02
 XYZ      0.2166221396002E+01
 XZZ     -0.2748612130861E+02
 YXX     -0.2573864369664E+02
 YXY      0.3864206345976E+02
 YXZ      0.5372065817256E+01
 YYY      0.2734338311690E+02
 YYZ     -0.3237819652080E+02
 YZZ     -0.1604739420256E+01
 ZXX      0.1417724293949E+02
 ZXY      0.2068986579832E+01
 ZXZ      0.5927207980954E+02
 ZYY      0.2384020305563E+02
 ZYZ      0.2106226151220E+02
 ZZZ     -0.3801744599512E+02

 roa end


 Electric Dipole Response Matrix (nonzero elements):

              1        2        3      
    1   41.0683  -5.2273  -3.0415
    2   -5.2273  44.0650   3.2259
    3   -3.0415   3.2259  41.5346
 
 Imaginary part:

              1        2        3      
    1    0.1113  -0.0302  -0.0111
    2   -0.0302   0.1293   0.0187
    3   -0.0111   0.0187   0.1232

 ------------------------------------------
 average:        42.22261 + I       0.12128


 DFT Linear Response polarizability / au 
 Frequency  =       0.0931960 / au
 Wavelength =     488.8981609 / nm
              X              Y              Z
 -----------------------------------------------
 X      41.0682713     -5.2272963     -3.0414890
 Y      -5.2272963     44.0649686      3.2259487
 Z      -3.0414890      3.2259487     41.5346014
 -----------------------------------------------
 Eigenvalues =      37.0415342     50.2398844     39.3864226
 Isotropic   =      42.2226138
 Anisotropic =       9.9581220
 -----------------------------------------------
 *************************

 DFT Linear Response IMAG polarizability / au 
 Frequency  =       0.0931960 / au
 Wavelength =     488.8981609 / nm
              X              Y              Z
 -----------------------------------------------
 X       0.1113481     -0.0301795     -0.0111152
 Y      -0.0301795      0.1293303      0.0186823
 Z      -0.0111152      0.0186823      0.1231520
 -----------------------------------------------
 Eigenvalues =       0.0886611      0.1634500      0.1117192
 Isotropic   =       0.1212768
 Anisotropic =       0.0541637
 -----------------------------------------------
 *************************

 Magnetic Dipole Response Matrix (nonzero elements):
 Optical rotation tensor Beta
 (Buckingham-Dunn version including dipole-quadrupole terms)

              1        2        3      
    1    2.6858  -0.4234   0.4153
    2   -0.4234  -1.5906  -1.7264
    3    0.4153  -1.7264  -1.0464
 
 Imaginary part:

              1        2        3      
    1    0.0674  -0.1453  -0.0312
    2    0.0820  -0.0511   0.2529
    3    0.1464  -0.4335  -0.0078

 ------------------------------------------
 average:         0.01626 + I       0.00283

 Principal components and PAS (Real part)
                 -3.06668
                  2.83152
                  0.28394
 ------------------------
 average:         0.01626

              1        2        3      
    1    0.0092   0.9710  -0.2388
    2    0.7611  -0.1617  -0.6281
    3    0.6485   0.1760   0.7406

 Chiral response tensor (Real part):

              1        2        3      
    1   -1.3185   0.2117  -0.2077
    2    0.2117   0.8197   0.8632
    3   -0.2077   0.8632   0.5476
 
 Principal components and PAS (Real part)
                  1.55773
                 -1.39137
                 -0.11758
 ------------------------
 average:         0.01626

              1        2        3      
    1    0.0092   0.9710  -0.2388
    2    0.7611  -0.1617  -0.6281
    3    0.6485   0.1760   0.7406
 Exiting AOResponse driver routine

 Task  times  cpu:      413.3s     wall:      418.1s
 
 
                                NWChem Input Module
                                -------------------
 
 
 Summary of allocated global arrays
-----------------------------------
  No active global arrays



                         GA Statistics for process    0
                         ------------------------------

       create   destroy   get      put      acc     scatter   gather  read&inc
calls: 3294     3294     7.00e+06 3.14e+06 7.48e+05 2694        0     1090     
number of processes/call 1.01e+00 1.03e+00 1.43e+00 0.00e+00 0.00e+00
bytes total:             1.62e+09 1.26e+08 1.77e+09 1.84e+02 0.00e+00 8.72e+03
bytes remote:            6.66e+08 3.29e+07 1.01e+09 0.00e+00 0.00e+00 0.00e+00
Max memory consumed for GA by this process: 11242192 bytes
 
MA_summarize_allocated_blocks: starting scan ...
MA_summarize_allocated_blocks: scan completed: 0 heap blocks, 0 stack blocks
MA usage statistics:

	allocation statistics:
					      heap	     stack
					      ----	     -----
	current number of blocks	         0	         0
	maximum number of blocks	        24	        52
	current total bytes		         0	         0
	maximum total bytes		   7519856	  48983912
	maximum total K-bytes		      7520	     48984
	maximum total M-bytes		         8	        49
 
 
                                     CITATION
                                     --------
                Please cite the following reference when publishing
                           results obtained with NWChem:
 
                 M. Valiev, E.J. Bylaska, N. Govind, K. Kowalski,
              T.P. Straatsma, H.J.J. van Dam, D. Wang, J. Nieplocha,
                        E. Apra, T.L. Windus, W.A. de Jong
                 "NWChem: a comprehensive and scalable open-source
                  solution for large scale molecular simulations"
                      Comput. Phys. Commun. 181, 1477 (2010)
                           doi:10.1016/j.cpc.2010.04.018
 
                                      AUTHORS
                                      -------
          E. Apra, E. J. Bylaska, W. A. de Jong, N. Govind, K. Kowalski,
       T. P. Straatsma, M. Valiev, H. J. J. van Dam, D. Wang, T. L. Windus,
        J. Hammond, J. Autschbach, K. Bhaskaran-Nair, J. Brabec, K. Lopata,
    S. A. Fischer, S. Krishnamoorthy, M. Jacquelin, W. Ma, M. Klemm, O. Villa,
      Y. Chen, V. Anisimov, F. Aquino, S. Hirata, M. T. Hackler, V. Konjkov,
            D. Mejia-Rodriguez, T. Risthaus, M. Malagoli, A. Marenich,
   A. Otero-de-la-Roza, J. Mullin, P. Nichols, R. Peverati, J. Pittner, Y. Zhao,
        P.-D. Fan, A. Fonari, M. J. Williamson, R. J. Harrison, J. R. Rehr,
      M. Dupuis, D. Silverstein, D. M. A. Smith, J. Nieplocha, V. Tipparaju,
    M. Krishnan, B. E. Van Kuiken, A. Vazquez-Mayagoitia, L. Jensen, M. Swart,
      Q. Wu, T. Van Voorhis, A. A. Auer, M. Nooijen, L. D. Crosby, E. Brown,
      G. Cisneros, G. I. Fann, H. Fruchtl, J. Garza, K. Hirao, R. A. Kendall,
      J. A. Nichols, K. Tsemekhman, K. Wolinski, J. Anchell, D. E. Bernholdt,
      P. Borowski, T. Clark, D. Clerc, H. Dachsel, M. J. O. Deegan, K. Dyall,
    D. Elwood, E. Glendening, M. Gutowski, A. C. Hess, J. Jaffe, B. G. Johnson,
     J. Ju, R. Kobayashi, R. Kutteh, Z. Lin, R. Littlefield, X. Long, B. Meng,
      T. Nakajima, S. Niu, L. Pollack, M. Rosing, K. Glaesemann, G. Sandrone,
      M. Stave, H. Taylor, G. Thomas, J. H. van Lenthe, A. T. Wong, Z. Zhang.

 Total times  cpu:      465.1s     wall:      470.4s
