 argument  1 = methyloxirane_blyp-def2-tzvp_488.9_42.inp
 


============================== echo of input deck ==============================
echo
start methyloxirane_blyp-def2-tzvp_488.9_42.inp
title "methyloxirane roa calculations at 488.9 nm, input generated in va  with delta_type=2"
charge 0



geometry units angstrom nocenter noautoz noautosym nucleus point;symmetry c1
 O -0.879807 -0.180312  0.205344
 C  0.576122 -0.158965  0.121849
 C -0.186228  1.092077  0.340727
 C  1.185179 -0.520408 -1.211382
 H  1.056295 -0.602598  1.001002
 H -0.226095  1.519845  1.345417
 H -0.324260  1.767143 -0.507750
 H  2.240491 -0.212840 -1.245582
 H  1.140029 -1.606333 -1.371650
 H  0.654109 -0.026414 -2.034499
end

basis spherical
* library def2-TZVP
end

 set prop:newaoresp 1
 set aor:roadata T
 set cphf:maxsub 100
 set cphf:acc 1.0d-10
 set cphf:maxiter 100

property
    response 1   0.093196
    bdtensor
    convergence 1e-7
    damping 0.0037
    giao
end

dft
 direct
 mult 1
 xc becke88 lyp
 iterations 250
 tolerances tight
 grid xfine
 convergence nolevelshifting
 convergence energy 1e-8
 convergence gradient 1e-7


end

task dft gradient
task dft property
================================================================================


                                         
                                         
 
 
              Northwest Computational Chemistry Package (NWChem) 6.8
              ------------------------------------------------------
 
 
                    Environmental Molecular Sciences Laboratory
                       Pacific Northwest National Laboratory
                                Richland, WA 99352
 
                              Copyright (c) 1994-2017
                       Pacific Northwest National Laboratory
                            Battelle Memorial Institute
 
             NWChem is an open-source computational chemistry package
                        distributed under the terms of the
                      Educational Community License (ECL) 2.0
             A copy of the license is included with this distribution
                              in the LICENSE.TXT file
 
                                  ACKNOWLEDGMENT
                                  --------------

            This software and its documentation were developed at the
            EMSL at Pacific Northwest National Laboratory, a multiprogram
            national laboratory, operated for the U.S. Department of Energy
            by Battelle under Contract Number DE-AC05-76RL01830. Support
            for this work was provided by the Department of Energy Office
            of Biological and Environmental Research, Office of Basic
            Energy Sciences, and the Office of Advanced Scientific Computing.


           Job information
           ---------------

    hostname        = cpn-f11-19-02.cbls.ccr.buffalo.edu
    program         = /util/academic/nwchem/nwchem-6.8/bin/LINUX64/nwchem
    date            = Fri Mar  1 10:44:32 2019

    compiled        = Tue_Nov_06_14:59:08_2018
    source          = /util/academic/nwchem/nwchem-6.8
    nwchem branch   = 6.8
    nwchem revision = v6.8-47-gdf6c956
    ga revision     = ga-5.6.3
    use scalapack   = F
    input           = methyloxirane_blyp-def2-tzvp_488.9_42.inp
    prefix          = methyloxirane_blyp-def2-tzvp_488.9_42.inp.
    data base       = ./methyloxirane_blyp-def2-tzvp_488.9_42.inp.db
    status          = startup
    nproc           =        7
    time left       =     -1s



           Memory information
           ------------------

    heap     =   13107196 doubles =    100.0 Mbytes
    stack    =   13107201 doubles =    100.0 Mbytes
    global   =   26214400 doubles =    200.0 Mbytes (distinct from heap & stack)
    total    =   52428797 doubles =    400.0 Mbytes
    verify   = yes
    hardfail = no 


           Directory information
           ---------------------
 
  0 permanent = .
  0 scratch   = .
 
 
 
 
                                NWChem Input Module
                                -------------------
 
 
                    methyloxirane roa calculations at 488.9 nm, input generated in va  with delta_type=2
                    ------------------------------------------

 Scaling coordinates for geometry "geometry" by  1.889725989
 (inverse scale =  0.529177249)

 
 
                             Geometry "geometry" -> ""
                             -------------------------
 
 Output coordinates in angstroms (scale by  1.889725989 to convert to a.u.)
 
  No.       Tag          Charge          X              Y              Z
 ---- ---------------- ---------- -------------- -------------- --------------
    1 O                    8.0000    -0.87980700    -0.18031200     0.20534400
    2 C                    6.0000     0.57612200    -0.15896500     0.12184900
    3 C                    6.0000    -0.18622800     1.09207700     0.34072700
    4 C                    6.0000     1.18517900    -0.52040800    -1.21138200
    5 H                    1.0000     1.05629500    -0.60259800     1.00100200
    6 H                    1.0000    -0.22609500     1.51984500     1.34541700
    7 H                    1.0000    -0.32426000     1.76714300    -0.50775000
    8 H                    1.0000     2.24049100    -0.21284000    -1.24558200
    9 H                    1.0000     1.14002900    -1.60633300    -1.37165000
   10 H                    1.0000     0.65410900    -0.02641400    -2.03449900
 
      Atomic Mass 
      ----------- 
 
      O                 15.994910
      C                 12.000000
      H                  1.007825
 

 Effective nuclear repulsion energy (a.u.)     123.4539825515

            Nuclear Dipole moment (a.u.) 
            ----------------------------
        X                 Y               Z
 ---------------- ---------------- ----------------
    13.1384163116     3.5385704951   -10.7017941733
 
 
            XYZ format geometry
            -------------------
    10
 geometry
 O                    -0.87980700    -0.18031200     0.20534400
 C                     0.57612200    -0.15896500     0.12184900
 C                    -0.18622800     1.09207700     0.34072700
 C                     1.18517900    -0.52040800    -1.21138200
 H                     1.05629500    -0.60259800     1.00100200
 H                    -0.22609500     1.51984500     1.34541700
 H                    -0.32426000     1.76714300    -0.50775000
 H                     2.24049100    -0.21284000    -1.24558200
 H                     1.14002900    -1.60633300    -1.37165000
 H                     0.65410900    -0.02641400    -2.03449900
 
 ==============================================================================
                                internuclear distances
 ------------------------------------------------------------------------------
       center one      |      center two      | atomic units |  angstroms
 ------------------------------------------------------------------------------
    2 C                |   1 O                |     2.75612  |     1.45848
    3 C                |   1 O                |     2.75041  |     1.45546
    3 C                |   2 C                |     2.79921  |     1.48128
    4 C                |   2 C                |     2.85286  |     1.50967
    5 H                |   2 C                |     2.07034  |     1.09558
    6 H                |   3 C                |     2.06489  |     1.09269
    7 H                |   3 C                |     2.06550  |     1.09301
    8 H                |   4 C                |     2.07823  |     1.09975
    9 H                |   4 C                |     2.07608  |     1.09862
   10 H                |   4 C                |     2.07318  |     1.09708
 ------------------------------------------------------------------------------
                         number of included internuclear distances:         10
 ==============================================================================



 ==============================================================================
                                 internuclear angles
 ------------------------------------------------------------------------------
        center 1       |       center 2       |       center 3       |  degrees
 ------------------------------------------------------------------------------
    2 C                |   1 O                |   3 C                |    61.11
    2 C                |   1 O                |   3 C                |    61.11
    1 O                |   2 C                |   4 C                |   116.73
    1 O                |   2 C                |   5 H                |   112.68
    3 C                |   2 C                |   4 C                |   122.71
    3 C                |   2 C                |   5 H                |   116.68
    4 C                |   2 C                |   5 H                |   115.78
    3 C                |   1 O                |   2 C                |    61.11
    1 O                |   3 C                |   6 H                |   114.23
    1 O                |   3 C                |   7 H                |   114.05
    2 C                |   3 C                |   6 H                |   119.03
    2 C                |   3 C                |   7 H                |   118.16
    6 H                |   3 C                |   7 H                |   117.86
    2 C                |   4 C                |   8 H                |   110.34
    2 C                |   4 C                |   9 H                |   110.42
    2 C                |   4 C                |  10 H                |   111.07
    8 H                |   4 C                |   9 H                |   108.14
    8 H                |   4 C                |  10 H                |   108.38
    9 H                |   4 C                |  10 H                |   108.41
 ------------------------------------------------------------------------------
                            number of included internuclear angles:         19
 ==============================================================================



  warning:::::::::::::: from_environment
  NWCHEM_BASIS_LIBRARY set to: <
 /util/academic/nwchem/nwchem-6.8/src/basis/libraries>
  but file does not exist !
  using .nwchemrc or compiled library


 Summary of "ao basis" -> "" (spherical)
 ------------------------------------------------------------------------------
       Tag                 Description            Shells   Functions and Types
 ---------------- ------------------------------  ------  ---------------------
 *                         def2-TZVP                  on all atoms 


 
                                 NWChem DFT Module
                                 -----------------
 
 
                    methyloxirane roa calculations at 488.9 nm, input generated in va  with delta_type=2
 
 
                      Basis "ao basis" -> "ao basis" (spherical)
                      -----
  O (Oxygen)
  ----------
            Exponent  Coefficients 
       -------------- ---------------------------------------------------------
  1 S  2.70323826E+04  0.000217
  1 S  4.05238714E+03  0.001684
  1 S  9.22327227E+02  0.008740
  1 S  2.61240710E+02  0.035240
  1 S  8.53546414E+01  0.111535
  1 S  3.10350352E+01  0.255890
 
  2 S  1.22608607E+01  0.397687
  2 S  4.99870760E+00  0.246278
 
  3 S  1.17031082E+00  1.000000
 
  4 S  4.64747410E-01  1.000000
 
  5 S  1.85045364E-01  1.000000
 
  6 P  6.32749548E+01  0.006069
  6 P  1.46270494E+01  0.041913
  6 P  4.45012235E+00  0.161538
  6 P  1.52757996E+00  0.357070
 
  7 P  5.29351179E-01  1.000000
 
  8 P  1.74784213E-01  1.000000
 
  9 D  2.31400000E+00  1.000000
 
 10 D  6.45000000E-01  1.000000
 
 11 F  1.42800000E+00  1.000000
 
  C (Carbon)
  ----------
            Exponent  Coefficients 
       -------------- ---------------------------------------------------------
  1 S  1.35753497E+04  0.000222
  1 S  2.03523337E+03  0.001723
  1 S  4.63225624E+02  0.008926
  1 S  1.31200196E+02  0.035728
  1 S  4.28530159E+01  0.110763
  1 S  1.55841858E+01  0.242956
 
  2 S  6.20671385E+00  0.414403
  2 S  2.57648965E+00  0.237450
 
  3 S  5.76963394E-01  1.000000
 
  4 S  2.29728314E-01  1.000000
 
  5 S  9.51644400E-02  1.000000
 
  6 P  3.46972322E+01  0.005333
  6 P  7.95826228E+00  0.035864
  6 P  2.37808269E+00  0.142159
  6 P  8.14332082E-01  0.342705
 
  7 P  2.88875473E-01  1.000000
 
  8 P  1.00568237E-01  1.000000
 
  9 D  1.09700000E+00  1.000000
 
 10 D  3.18000000E-01  1.000000
 
 11 F  7.61000000E-01  1.000000
 
  H (Hydrogen)
  ------------
            Exponent  Coefficients 
       -------------- ---------------------------------------------------------
  1 S  3.40613410E+01  0.006025
  1 S  5.12357460E+00  0.045021
  1 S  1.16466260E+00  0.201897
 
  2 S  3.27230410E-01  1.000000
 
  3 S  1.03072410E-01  1.000000
 
  4 P  8.00000000E-01  1.000000
 


 Summary of "ao basis" -> "ao basis" (spherical)
 ------------------------------------------------------------------------------
       Tag                 Description            Shells   Functions and Types
 ---------------- ------------------------------  ------  ---------------------
 O                         def2-TZVP                11       31   5s3p2d1f
 C                         def2-TZVP                11       31   5s3p2d1f
 H                         def2-TZVP                 4        6   3s1p




 Summary of "ao basis" -> "ao basis" (spherical)
 ------------------------------------------------------------------------------
       Tag                 Description            Shells   Functions and Types
 ---------------- ------------------------------  ------  ---------------------
 O                         def2-TZVP                11       31   5s3p2d1f
 C                         def2-TZVP                11       31   5s3p2d1f
 H                         def2-TZVP                 4        6   3s1p


  Caching 1-el integrals 
  itol2e modified to match energy
  convergence criterion.
  tol_rho modified to match energy
  convergence criterion.
 
            General Information
            -------------------
          SCF calculation type: DFT
          Wavefunction type:  closed shell.
          No. of atoms     :    10
          No. of electrons :    32
           Alpha electrons :    16
            Beta electrons :    16
          Charge           :     0
          Spin multiplicity:     1
          Use of symmetry is: off; symmetry adaption is: off
          Maximum number of iterations: 250
          This is a Direct SCF calculation.
          AO basis - number of functions:   160
                     number of shells:    68
          Convergence on energy requested:  1.00D-08
          Convergence on density requested:  1.00D-05
          Convergence on gradient requested:  1.00D-07
 
              XC Information
              --------------
                    Becke 1988 Exchange Functional  1.000          
              Lee-Yang-Parr Correlation Functional  1.000          
 
             Grid Information
             ----------------
          Grid used for XC integration:  xfine     
          Radial quadrature: Mura-Knowles        
          Angular quadrature: Lebedev. 
          Tag              B.-S. Rad. Rad. Pts. Rad. Cut. Ang. Pts.
          ---              ---------- --------- --------- ---------
          O                   0.60      100          11.0      1454
          C                   0.70      100          11.0      1454
          H                   0.35      100          12.0      1202
          Grid pruning is: on 
          Number of quadrature shells:  1000
          Spatial weights used:  Erf1
 
          Convergence Information
          -----------------------
          Convergence aids based upon iterative change in 
          total energy or number of iterations. 
          Levelshifting, if invoked, occurs when the 
          HOMO/LUMO gap drops below (HL_TOL):  1.00D-02
          DIIS, if invoked, will attempt to extrapolate 
          using up to (NFOCK): 10 stored Fock matrices.

                    Damping( 0%)  Levelshifting(0.0)       DIIS
                  --------------- ------------------- ---------------
          dE  on:    start             N/A                start   
          dE off:    2 iters           N/A              250 iters 

 
      Screening Tolerance Information
      -------------------------------
          Density screening/tol_rho:  1.00D-11
          AO Gaussian exp screening on grid/accAOfunc:  18
          CD Gaussian exp screening on grid/accCDfunc:  20
          XC Gaussian exp screening on grid/accXCfunc:  20
          Schwarz screening/accCoul:  1.00D-09

 
      Superposition of Atomic Density Guess
      -------------------------------------
 
 Sum of atomic energies:        -190.79714706
 
      Non-variational initial energy
      ------------------------------

 Total energy =    -193.148839
 1-e energy   =    -501.879098
 2-e energy   =     185.276276
 HOMO         =      -0.349689
 LUMO         =       0.090306
 
   Time after variat. SCF:      0.6
   Time prior to 1st pass:      0.6

 Grid_pts file          = ./methyloxirane_blyp-def2-tzvp_488.9_42.inp.gridpts.0
 Record size in doubles =  12289        No. of grid_pts per rec  =   3070
 Max. records in memory =     76        Max. recs in file   =    554542


           Memory utilization after 1st SCF pass: 
           Heap Space remaining (MW):       12.17            12167540
          Stack Space remaining (MW):       13.11            13106124

   convergence    iter        energy       DeltaE   RMS-Dens  Diis-err    time
 ---------------- ----- ----------------- --------- --------- ---------  ------
 d= 0,ls=0.0,diis     1   -193.0192822881 -3.16D+02  9.40D-03  1.06D+00     6.9
 d= 0,ls=0.0,diis     2   -192.8503570500  1.69D-01  7.81D-03  2.63D+00    13.0
 d= 0,ls=0.0,diis     3   -193.0773540073 -2.27D-01  1.82D-03  3.82D-01    19.1
 d= 0,ls=0.0,diis     4   -193.1071294202 -2.98D-02  6.83D-04  1.82D-02    25.2
 d= 0,ls=0.0,diis     5   -193.1087994089 -1.67D-03  2.93D-04  2.70D-03    31.3
 d= 0,ls=0.0,diis     6   -193.1091352382 -3.36D-04  3.06D-05  3.60D-05    37.4
 d= 0,ls=0.0,diis     7   -193.1091395232 -4.29D-06  9.01D-06  4.05D-06    43.5
 d= 0,ls=0.0,diis     8   -193.1091399838 -4.61D-07  1.89D-06  2.75D-07    49.5
 d= 0,ls=0.0,diis     9   -193.1091400149 -3.11D-08  5.48D-07  1.21D-08    55.6
 d= 0,ls=0.0,diis    10   -193.1091400164 -1.50D-09  1.07D-07  4.08D-10    61.8


         Total DFT energy =     -193.109140016359
      One electron energy =     -505.538916494276
           Coulomb energy =      215.993746112160
    Exchange-Corr. energy =      -27.017952185744
 Nuclear repulsion energy =      123.453982551500

 Numeric. integr. density =       31.999999963567

     Total iterative time =     61.2s


 
                       DFT Final Molecular Orbital Analysis
                       ------------------------------------
 
 Vector    1  Occ=2.000000D+00  E=-1.877884D+01
              MO Center= -8.8D-01, -1.8D-01,  2.1D-01, r^2= 1.5D-02
   Bfn.  Coefficient  Atom+Function         Bfn.  Coefficient  Atom+Function  
  ----- ------------  ---------------      ----- ------------  ---------------
     2      0.638480   1 O  s                 1      0.435422   1 O  s         
     3      0.039857   1 O  s                 4     -0.033131   1 O  s         
 
 Vector    2  Occ=2.000000D+00  E=-9.963034D+00
              MO Center=  5.8D-01, -1.6D-01,  1.2D-01, r^2= 2.8D-02
   Bfn.  Coefficient  Atom+Function         Bfn.  Coefficient  Atom+Function  
  ----- ------------  ---------------      ----- ------------  ---------------
    33      0.606921   2 C  s                32      0.467264   2 C  s         
    34      0.042557   2 C  s                36      0.037257   2 C  s         
    35     -0.027680   2 C  s         
 
 Vector    3  Occ=2.000000D+00  E=-9.955790D+00
              MO Center= -1.9D-01,  1.1D+00,  3.4D-01, r^2= 2.8D-02
   Bfn.  Coefficient  Atom+Function         Bfn.  Coefficient  Atom+Function  
  ----- ------------  ---------------      ----- ------------  ---------------
    64      0.607044   3 C  s                63      0.467224   3 C  s         
    65      0.039658   3 C  s         
 
 Vector    4  Occ=2.000000D+00  E=-9.908075D+00
              MO Center=  1.2D+00, -5.2D-01, -1.2D+00, r^2= 2.8D-02
   Bfn.  Coefficient  Atom+Function         Bfn.  Coefficient  Atom+Function  
  ----- ------------  ---------------      ----- ------------  ---------------
    95      0.606960   4 C  s                94      0.467215   4 C  s         
    96      0.040578   4 C  s                98      0.035651   4 C  s         
 
 Vector    5  Occ=2.000000D+00  E=-9.600662D-01
              MO Center= -4.7D-01,  5.6D-02,  2.1D-01, r^2= 6.5D-01
   Bfn.  Coefficient  Atom+Function         Bfn.  Coefficient  Atom+Function  
  ----- ------------  ---------------      ----- ------------  ---------------
     4      0.375363   1 O  s                 3      0.277681   1 O  s         
     2     -0.192906   1 O  s                34      0.139451   2 C  s         
    65      0.138765   3 C  s                 5      0.123212   1 O  s         
    35      0.105045   2 C  s                66      0.094060   3 C  s         
     6      0.092778   1 O  px               69     -0.090686   3 C  py        
 
 Vector    6  Occ=2.000000D+00  E=-6.700246D-01
              MO Center=  9.4D-01, -3.9D-01, -7.7D-01, r^2= 1.5D+00
   Bfn.  Coefficient  Atom+Function         Bfn.  Coefficient  Atom+Function  
  ----- ------------  ---------------      ----- ------------  ---------------
    97      0.285555   4 C  s                96      0.276737   4 C  s         
    35      0.184480   2 C  s                34      0.174131   2 C  s         
    95     -0.174244   4 C  s                 4     -0.147043   1 O  s         
    33     -0.108791   2 C  s                 3     -0.102990   1 O  s         
    94     -0.083488   4 C  s                 5     -0.073031   1 O  s         
 
 Vector    7  Occ=2.000000D+00  E=-5.891859D-01
              MO Center= -1.3D-01,  7.1D-01,  2.2D-01, r^2= 2.0D+00
   Bfn.  Coefficient  Atom+Function         Bfn.  Coefficient  Atom+Function  
  ----- ------------  ---------------      ----- ------------  ---------------
    66      0.325503   3 C  s                65      0.278342   3 C  s         
     4     -0.239275   1 O  s                64     -0.171901   3 C  s         
     3     -0.169281   1 O  s                 5     -0.148514   1 O  s         
     2      0.111728   1 O  s                38      0.104365   2 C  py        
   132      0.102968   6 H  s                97     -0.099344   4 C  s         
 
 Vector    8  Occ=2.000000D+00  E=-5.293066D-01
              MO Center=  4.2D-01,  8.8D-03, -9.6D-02, r^2= 2.7D+00
   Bfn.  Coefficient  Atom+Function         Bfn.  Coefficient  Atom+Function  
  ----- ------------  ---------------      ----- ------------  ---------------
    35      0.303456   2 C  s                34      0.225238   2 C  s         
    97     -0.154633   4 C  s                66     -0.153121   3 C  s         
    33     -0.138595   2 C  s               126      0.134234   5 H  s         
    96     -0.127849   4 C  s               125      0.107208   5 H  s         
     6      0.105506   1 O  px               65     -0.100269   3 C  s         
 
 Vector    9  Occ=2.000000D+00  E=-4.477879D-01
              MO Center=  1.2D-01,  3.1D-01,  2.4D-01, r^2= 2.5D+00
   Bfn.  Coefficient  Atom+Function         Bfn.  Coefficient  Atom+Function  
  ----- ------------  ---------------      ----- ------------  ---------------
    70      0.217087   3 C  pz               39      0.155821   2 C  pz        
   132      0.148194   6 H  s                73      0.135530   3 C  pz        
     8      0.128814   1 O  pz              126      0.111085   5 H  s         
   131      0.109827   6 H  s                 6     -0.106070   1 O  px        
    11      0.104434   1 O  pz               42      0.103385   2 C  pz        
 
 Vector   10  Occ=2.000000D+00  E=-4.124783D-01
              MO Center=  3.5D-02,  2.9D-01, -2.3D-01, r^2= 2.5D+00
   Bfn.  Coefficient  Atom+Function         Bfn.  Coefficient  Atom+Function  
  ----- ------------  ---------------      ----- ------------  ---------------
    69      0.216370   3 C  py              101      0.155866   4 C  pz        
   138      0.153406   7 H  s                 6     -0.151022   1 O  px        
    38     -0.142731   2 C  py               37      0.135567   2 C  px        
    72      0.123467   3 C  py                9     -0.120778   1 O  px        
     7     -0.118404   1 O  py               70     -0.112135   3 C  pz        
 
 Vector   11  Occ=2.000000D+00  E=-3.768920D-01
              MO Center=  9.4D-01, -3.3D-01, -7.6D-01, r^2= 2.6D+00
   Bfn.  Coefficient  Atom+Function         Bfn.  Coefficient  Atom+Function  
  ----- ------------  ---------------      ----- ------------  ---------------
    99      0.212155   4 C  px              144      0.188428   8 H  s         
   100      0.170185   4 C  py              150     -0.144084   9 H  s         
   102      0.136061   4 C  px              143      0.131937   8 H  s         
    37      0.124102   2 C  px                6     -0.113316   1 O  px        
   103      0.112043   4 C  py                7      0.110341   1 O  py        
 
 Vector   12  Occ=2.000000D+00  E=-3.561367D-01
              MO Center=  5.9D-01, -3.3D-01, -8.6D-01, r^2= 2.9D+00
   Bfn.  Coefficient  Atom+Function         Bfn.  Coefficient  Atom+Function  
  ----- ------------  ---------------      ----- ------------  ---------------
   100      0.253317   4 C  py              150     -0.184762   9 H  s         
   156      0.175009  10 H  s                 7     -0.169450   1 O  py        
   103      0.164007   4 C  py               10     -0.135771   1 O  py        
   149     -0.128760   9 H  s               155      0.123763  10 H  s         
    70      0.118597   3 C  pz               99     -0.102920   4 C  px        
 
 Vector   13  Occ=2.000000D+00  E=-3.303219D-01
              MO Center=  3.7D-01,  2.4D-01, -2.1D-01, r^2= 2.7D+00
   Bfn.  Coefficient  Atom+Function         Bfn.  Coefficient  Atom+Function  
  ----- ------------  ---------------      ----- ------------  ---------------
    39      0.232643   2 C  pz              101     -0.210273   4 C  pz        
    70     -0.174635   3 C  pz              138      0.161361   7 H  s         
    42      0.157536   2 C  pz                7     -0.147823   1 O  py        
   104     -0.146007   4 C  pz               10     -0.118940   1 O  py        
   126      0.116212   5 H  s               132     -0.112975   6 H  s         
 
 Vector   14  Occ=2.000000D+00  E=-3.206382D-01
              MO Center=  3.5D-01, -7.1D-02, -2.4D-01, r^2= 3.0D+00
   Bfn.  Coefficient  Atom+Function         Bfn.  Coefficient  Atom+Function  
  ----- ------------  ---------------      ----- ------------  ---------------
     7      0.224431   1 O  py               10      0.183757   1 O  py        
    99     -0.170316   4 C  px                6     -0.157104   1 O  px        
   126      0.149692   5 H  s               156      0.146064  10 H  s         
    37      0.142780   2 C  px              144     -0.140312   8 H  s         
     9     -0.128721   1 O  px              102     -0.110874   4 C  px        
 
 Vector   15  Occ=2.000000D+00  E=-2.621483D-01
              MO Center=  1.5D-02,  1.6D-01,  3.9D-02, r^2= 2.3D+00
   Bfn.  Coefficient  Atom+Function         Bfn.  Coefficient  Atom+Function  
  ----- ------------  ---------------      ----- ------------  ---------------
    68      0.264458   3 C  px               38      0.257061   2 C  py        
     6     -0.236913   1 O  px               41      0.200920   2 C  py        
    71      0.197102   3 C  px                9     -0.185320   1 O  px        
    12     -0.157273   1 O  px              150      0.114073   9 H  s         
   100     -0.109639   4 C  py               67      0.106818   3 C  s         
 
 Vector   16  Occ=2.000000D+00  E=-2.191473D-01
              MO Center= -5.8D-01, -3.3D-02,  2.0D-01, r^2= 1.6D+00
   Bfn.  Coefficient  Atom+Function         Bfn.  Coefficient  Atom+Function  
  ----- ------------  ---------------      ----- ------------  ---------------
     8      0.450117   1 O  pz               11      0.358291   1 O  pz        
    14      0.297151   1 O  pz              133     -0.130099   6 H  s         
   139      0.115644   7 H  s               145     -0.103030   8 H  s         
   132     -0.102270   6 H  s               138      0.102129   7 H  s         
   126     -0.096785   5 H  s                98      0.093027   4 C  s         
 
 Vector   17  Occ=0.000000D+00  E= 2.543435D-02
              MO Center=  1.2D+00, -8.1D-02, -6.1D-01, r^2= 7.3D+00
   Bfn.  Coefficient  Atom+Function         Bfn.  Coefficient  Atom+Function  
  ----- ------------  ---------------      ----- ------------  ---------------
    98      4.469549   4 C  s               145     -1.521194   8 H  s         
   151     -1.487800   9 H  s               157     -1.352175  10 H  s         
   127     -1.238094   5 H  s                45      1.127760   2 C  pz        
   139     -0.893217   7 H  s                67      0.737909   3 C  s         
   133     -0.612156   6 H  s                75      0.316425   3 C  py        
 
 Vector   18  Occ=0.000000D+00  E= 4.232514D-02
              MO Center= -1.6D-01,  7.0D-01,  1.4D-01, r^2= 4.2D+00
   Bfn.  Coefficient  Atom+Function         Bfn.  Coefficient  Atom+Function  
  ----- ------------  ---------------      ----- ------------  ---------------
    36      1.992471   2 C  s                98     -1.916508   4 C  s         
     5     -1.235013   1 O  s                74     -0.964584   3 C  px        
   151      0.751707   9 H  s                67     -0.650209   3 C  s         
    44      0.475153   2 C  py               45     -0.436396   2 C  pz        
    13     -0.432433   1 O  py              157      0.384400  10 H  s         
 
 Vector   19  Occ=0.000000D+00  E= 4.991638D-02
              MO Center=  5.6D-01,  1.5D-01,  3.7D-02, r^2= 6.9D+00
   Bfn.  Coefficient  Atom+Function         Bfn.  Coefficient  Atom+Function  
  ----- ------------  ---------------      ----- ------------  ---------------
    36      2.771248   2 C  s               127     -2.097406   5 H  s         
    98     -2.073527   4 C  s               157      1.281812  10 H  s         
   139      1.266135   7 H  s                67     -1.038904   3 C  s         
   133     -0.762067   6 H  s                76      0.757800   3 C  pz        
    43      0.692075   2 C  px                5      0.388990   1 O  s         
 
 Vector   20  Occ=0.000000D+00  E= 5.061638D-02
              MO Center=  4.6D-01,  8.1D-01,  2.2D-01, r^2= 7.2D+00
   Bfn.  Coefficient  Atom+Function         Bfn.  Coefficient  Atom+Function  
  ----- ------------  ---------------      ----- ------------  ---------------
    67      3.585617   3 C  s                98     -2.894712   4 C  s         
   133     -1.704361   6 H  s               145      1.283357   8 H  s         
    44     -1.128060   2 C  py              139     -1.042680   7 H  s         
   151      0.708594   9 H  s                45     -0.652745   2 C  pz        
   157      0.548221  10 H  s                74      0.454351   3 C  px        
 
 Vector   21  Occ=0.000000D+00  E= 6.393760D-02
              MO Center=  2.8D-01,  1.2D-01, -1.8D-01, r^2= 4.8D+00
   Bfn.  Coefficient  Atom+Function         Bfn.  Coefficient  Atom+Function  
  ----- ------------  ---------------      ----- ------------  ---------------
    98      1.273418   4 C  s               139      1.263684   7 H  s         
    67     -0.982195   3 C  s               151     -0.967883   9 H  s         
     5     -0.862787   1 O  s                43     -0.819312   2 C  px        
    75     -0.557672   3 C  py              133      0.546536   6 H  s         
    12     -0.476889   1 O  px              127     -0.454891   5 H  s         
 
 Vector   22  Occ=0.000000D+00  E= 8.584839D-02
              MO Center=  1.3D+00,  1.9D-01, -4.8D-01, r^2= 7.1D+00
   Bfn.  Coefficient  Atom+Function         Bfn.  Coefficient  Atom+Function  
  ----- ------------  ---------------      ----- ------------  ---------------
    36      2.838029   2 C  s               145      2.053554   8 H  s         
    67     -1.443181   3 C  s               127     -1.315223   5 H  s         
   157     -1.278303  10 H  s               133      1.196467   6 H  s         
   107     -1.076655   4 C  pz              105     -1.042783   4 C  px        
    98     -0.918391   4 C  s                75      0.770000   3 C  py        
 
 Vector   23  Occ=0.000000D+00  E= 9.158919D-02
              MO Center=  1.1D+00, -6.4D-01, -5.2D-01, r^2= 6.7D+00
   Bfn.  Coefficient  Atom+Function         Bfn.  Coefficient  Atom+Function  
  ----- ------------  ---------------      ----- ------------  ---------------
    36      2.624338   2 C  s               151      2.084034   9 H  s         
   145     -1.500042   8 H  s                98     -1.315216   4 C  s         
   106      1.155317   4 C  py              105      1.061377   4 C  px        
    67     -0.992821   3 C  s               133      0.984906   6 H  s         
   127     -0.876358   5 H  s               107     -0.724426   4 C  pz        
 
 Vector   24  Occ=0.000000D+00  E= 1.025140D-01
              MO Center=  4.3D-01,  4.5D-01, -1.1D+00, r^2= 6.8D+00
   Bfn.  Coefficient  Atom+Function         Bfn.  Coefficient  Atom+Function  
  ----- ------------  ---------------      ----- ------------  ---------------
   157      2.044410  10 H  s               133      1.623900   6 H  s         
    98     -1.560219   4 C  s               139     -1.536016   7 H  s         
   106     -1.466199   4 C  py               36      1.376857   2 C  s         
   151     -1.363934   9 H  s                76     -1.193174   3 C  pz        
   105      1.015524   4 C  px               45     -0.566015   2 C  pz        
 
 Vector   25  Occ=0.000000D+00  E= 1.386013D-01
              MO Center=  7.7D-01,  2.2D-01, -4.1D-01, r^2= 7.9D+00
   Bfn.  Coefficient  Atom+Function         Bfn.  Coefficient  Atom+Function  
  ----- ------------  ---------------      ----- ------------  ---------------
    36      4.657998   2 C  s                98     -3.528496   4 C  s         
    45     -3.395343   2 C  pz               67     -2.778962   3 C  s         
   127      2.737765   5 H  s                76      2.190641   3 C  pz        
   105      2.074978   4 C  px              133     -1.797476   6 H  s         
   139      1.701331   7 H  s               107     -1.531129   4 C  pz        
 
 Vector   26  Occ=0.000000D+00  E= 1.694725D-01
              MO Center=  4.1D-01,  5.6D-01, -1.7D-01, r^2= 7.3D+00
   Bfn.  Coefficient  Atom+Function         Bfn.  Coefficient  Atom+Function  
  ----- ------------  ---------------      ----- ------------  ---------------
    75      2.250116   3 C  py              107      1.668572   4 C  pz        
    67     -1.357502   3 C  s                36      1.324920   2 C  s         
   139     -1.242240   7 H  s               157      1.097584  10 H  s         
    74     -0.962520   3 C  px               44      0.685611   2 C  py        
    43     -0.581898   2 C  px              106     -0.526727   4 C  py        
 
 Vector   27  Occ=0.000000D+00  E= 1.974310D-01
              MO Center=  8.0D-01, -9.0D-02, -9.9D-01, r^2= 5.1D+00
   Bfn.  Coefficient  Atom+Function         Bfn.  Coefficient  Atom+Function  
  ----- ------------  ---------------      ----- ------------  ---------------
    67      3.011073   3 C  s                44     -2.587178   2 C  py        
   106      1.978656   4 C  py               36     -1.739528   2 C  s         
    43      0.970024   2 C  px              105      0.767020   4 C  px        
    74      0.752703   3 C  px               45     -0.732985   2 C  pz        
   157     -0.670550  10 H  s               150      0.633952   9 H  s         
 
 Vector   28  Occ=0.000000D+00  E= 2.013045D-01
              MO Center=  1.0D+00, -4.7D-01, -7.1D-01, r^2= 6.5D+00
   Bfn.  Coefficient  Atom+Function         Bfn.  Coefficient  Atom+Function  
  ----- ------------  ---------------      ----- ------------  ---------------
    36      2.317212   2 C  s                75      1.511827   3 C  py        
   105     -1.389551   4 C  px              133     -1.201187   6 H  s         
   106      0.930027   4 C  py              107     -0.901417   4 C  pz        
    45      0.792178   2 C  pz              156     -0.732341  10 H  s         
   139     -0.715131   7 H  s                76      0.659955   3 C  pz        
 
 Vector   29  Occ=0.000000D+00  E= 2.365220D-01
              MO Center= -2.5D-01,  3.3D-01, -1.0D-01, r^2= 5.5D+00
   Bfn.  Coefficient  Atom+Function         Bfn.  Coefficient  Atom+Function  
  ----- ------------  ---------------      ----- ------------  ---------------
    67      4.288971   3 C  s                36     -3.182920   2 C  s         
   139     -1.533744   7 H  s                66     -1.418464   3 C  s         
    98      1.372356   4 C  s               133     -1.174970   6 H  s         
   107      1.109653   4 C  pz                5     -0.781488   1 O  s         
   106      0.779593   4 C  py               74     -0.761014   3 C  px        
 
 Vector   30  Occ=0.000000D+00  E= 2.468449D-01
              MO Center=  5.1D-01,  4.6D-02, -5.6D-02, r^2= 5.9D+00
   Bfn.  Coefficient  Atom+Function         Bfn.  Coefficient  Atom+Function  
  ----- ------------  ---------------      ----- ------------  ---------------
    67      6.156118   3 C  s                43      4.159778   2 C  px        
    75     -2.919099   3 C  py               44     -2.556384   2 C  py        
    36     -2.136661   2 C  s               107     -2.037653   4 C  pz        
   157     -1.825677  10 H  s                45     -1.446305   2 C  pz        
    98     -1.298425   4 C  s               105     -1.196734   4 C  px        
 
 Vector   31  Occ=0.000000D+00  E= 2.690364D-01
              MO Center=  2.3D-01, -2.2D-01,  2.5D-01, r^2= 5.6D+00
   Bfn.  Coefficient  Atom+Function         Bfn.  Coefficient  Atom+Function  
  ----- ------------  ---------------      ----- ------------  ---------------
    36      4.326685   2 C  s                 5     -2.384263   1 O  s         
    67      2.230796   3 C  s                43     -1.626936   2 C  px        
   105      1.473513   4 C  px               66     -1.161898   3 C  s         
    98     -1.105155   4 C  s               139     -0.891386   7 H  s         
   127     -0.877138   5 H  s               133     -0.855174   6 H  s         
 
 Vector   32  Occ=0.000000D+00  E= 2.774950D-01
              MO Center=  4.8D-01,  4.1D-01,  3.1D-01, r^2= 4.1D+00
   Bfn.  Coefficient  Atom+Function         Bfn.  Coefficient  Atom+Function  
  ----- ------------  ---------------      ----- ------------  ---------------
    36      2.168215   2 C  s                67     -1.829868   3 C  s         
     5     -1.509565   1 O  s                43     -1.107620   2 C  px        
    74     -0.753364   3 C  px               45     -0.679276   2 C  pz        
    98     -0.649383   4 C  s               145      0.588943   8 H  s         
    66      0.510568   3 C  s                 4      0.481399   1 O  s         
 
 Vector   33  Occ=0.000000D+00  E= 3.023997D-01
              MO Center=  4.5D-01,  3.3D-01, -4.0D-01, r^2= 4.9D+00
   Bfn.  Coefficient  Atom+Function         Bfn.  Coefficient  Atom+Function  
  ----- ------------  ---------------      ----- ------------  ---------------
    43      1.837015   2 C  px               98     -1.768261   4 C  s         
   106      1.722897   4 C  py              151      1.722757   9 H  s         
    76      1.291977   3 C  pz               44     -1.144309   2 C  py        
    36     -1.045880   2 C  s               107     -1.030595   4 C  pz        
    66      0.992381   3 C  s               139      0.929549   7 H  s         
 
 Vector   34  Occ=0.000000D+00  E= 3.382082D-01
              MO Center=  1.3D-01,  4.2D-01, -4.3D-01, r^2= 5.8D+00
   Bfn.  Coefficient  Atom+Function         Bfn.  Coefficient  Atom+Function  
  ----- ------------  ---------------      ----- ------------  ---------------
    67      4.609144   3 C  s                76     -3.945006   3 C  pz        
   139     -3.227650   7 H  s                36     -2.474096   2 C  s         
    98      1.980646   4 C  s               133      1.941918   6 H  s         
   157     -1.772500  10 H  s               107     -1.696688   4 C  pz        
    43      1.262161   2 C  px               44     -1.029449   2 C  py        
 
 Vector   35  Occ=0.000000D+00  E= 3.625751D-01
              MO Center=  7.4D-01,  3.2D-02, -2.9D-01, r^2= 6.8D+00
   Bfn.  Coefficient  Atom+Function         Bfn.  Coefficient  Atom+Function  
  ----- ------------  ---------------      ----- ------------  ---------------
    98      7.447025   4 C  s                76      3.497080   3 C  pz        
   145     -3.247514   8 H  s                97     -3.047743   4 C  s         
   133     -2.465068   6 H  s                36      1.819548   2 C  s         
   139      1.822852   7 H  s               151     -1.787290   9 H  s         
    67     -1.766775   3 C  s                44      1.625746   2 C  py        
 
 Vector   36  Occ=0.000000D+00  E= 3.726463D-01
              MO Center=  5.8D-01,  2.1D-01, -9.8D-02, r^2= 6.4D+00
   Bfn.  Coefficient  Atom+Function         Bfn.  Coefficient  Atom+Function  
  ----- ------------  ---------------      ----- ------------  ---------------
    36     12.868869   2 C  s                98     -9.273726   4 C  s         
    67     -8.231337   3 C  s               127     -3.113746   5 H  s         
    97      2.558101   4 C  s               157      2.422511  10 H  s         
    44      1.910594   2 C  py               35     -1.866917   2 C  s         
   151      1.692192   9 H  s                75      1.596729   3 C  py        
 
 Vector   37  Occ=0.000000D+00  E= 3.845924D-01
              MO Center=  8.9D-01, -3.6D-01, -1.2D-01, r^2= 6.0D+00
   Bfn.  Coefficient  Atom+Function         Bfn.  Coefficient  Atom+Function  
  ----- ------------  ---------------      ----- ------------  ---------------
    36      6.037611   2 C  s               127     -4.117581   5 H  s         
    98      3.918476   4 C  s                45      2.873846   2 C  pz        
    67     -2.312427   3 C  s               151     -2.195162   9 H  s         
    35     -2.174594   2 C  s                76     -2.045694   3 C  pz        
   145     -1.987530   8 H  s               133      1.653525   6 H  s         
 
 Vector   38  Occ=0.000000D+00  E= 3.945837D-01
              MO Center=  2.4D-01,  2.0D-01, -8.3D-02, r^2= 6.5D+00
   Bfn.  Coefficient  Atom+Function         Bfn.  Coefficient  Atom+Function  
  ----- ------------  ---------------      ----- ------------  ---------------
    98     12.151826   4 C  s                67     -6.817976   3 C  s         
    45      5.272077   2 C  pz               76     -3.114366   3 C  pz        
   133      2.757667   6 H  s               157     -2.656054  10 H  s         
    44      2.640001   2 C  py               43     -2.066968   2 C  px        
    75      1.979955   3 C  py               97     -1.807146   4 C  s         
 
 Vector   39  Occ=0.000000D+00  E= 4.014404D-01
              MO Center= -2.3D-01,  2.2D-01,  1.8D-01, r^2= 6.5D+00
   Bfn.  Coefficient  Atom+Function         Bfn.  Coefficient  Atom+Function  
  ----- ------------  ---------------      ----- ------------  ---------------
    36     11.904418   2 C  s                67    -11.763777   3 C  s         
    98     -5.617758   4 C  s                45     -5.518398   2 C  pz        
    44      3.655715   2 C  py              127      2.963082   5 H  s         
    66      2.649434   3 C  s               139      2.526601   7 H  s         
   105      2.494146   4 C  px               43     -2.297105   2 C  px        
 
 Vector   40  Occ=0.000000D+00  E= 4.156598D-01
              MO Center=  7.5D-01, -3.7D-01, -8.0D-01, r^2= 5.9D+00
   Bfn.  Coefficient  Atom+Function         Bfn.  Coefficient  Atom+Function  
  ----- ------------  ---------------      ----- ------------  ---------------
    98      6.139030   4 C  s                45      2.457459   2 C  pz        
   151     -2.362034   9 H  s               105     -2.323326   4 C  px        
    36     -2.233795   2 C  s               157     -1.832126  10 H  s         
   145      1.771840   8 H  s                97     -1.138883   4 C  s         
    67     -1.047909   3 C  s               144     -0.966185   8 H  s         
 
 Vector   41  Occ=0.000000D+00  E= 4.258590D-01
              MO Center=  4.3D-01,  2.7D-01, -8.4D-02, r^2= 6.8D+00
   Bfn.  Coefficient  Atom+Function         Bfn.  Coefficient  Atom+Function  
  ----- ------------  ---------------      ----- ------------  ---------------
    36     10.561870   2 C  s                67     -5.315770   3 C  s         
    98     -5.279123   4 C  s                44      2.946942   2 C  py        
    75      2.873291   3 C  py              151      2.411848   9 H  s         
    43     -2.038993   2 C  px               45     -2.038337   2 C  pz        
    74     -1.592191   3 C  px              105      1.510251   4 C  px        
 
 Vector   42  Occ=0.000000D+00  E= 4.464287D-01
              MO Center=  1.2D-01, -1.4D-01, -2.8D-01, r^2= 6.1D+00
   Bfn.  Coefficient  Atom+Function         Bfn.  Coefficient  Atom+Function  
  ----- ------------  ---------------      ----- ------------  ---------------
    36      8.840354   2 C  s                98     -8.604653   4 C  s         
    45     -5.318897   2 C  pz              127      2.866407   5 H  s         
    67     -2.626225   3 C  s                76      2.536683   3 C  pz        
   157      2.393168  10 H  s                44      2.190259   2 C  py        
   106     -2.117368   4 C  py              133     -1.963956   6 H  s         
 
 Vector   43  Occ=0.000000D+00  E= 4.602427D-01
              MO Center=  2.0D-01,  5.5D-01, -6.8D-01, r^2= 5.4D+00
   Bfn.  Coefficient  Atom+Function         Bfn.  Coefficient  Atom+Function  
  ----- ------------  ---------------      ----- ------------  ---------------
   139      3.131255   7 H  s               107     -2.648477   4 C  pz        
   157     -2.462834  10 H  s                45     -2.449305   2 C  pz        
    98     -2.434097   4 C  s                36      1.931703   2 C  s         
    75     -1.928941   3 C  py               43      1.582746   2 C  px        
    44     -1.399265   2 C  py               76      1.297835   3 C  pz        
 
 Vector   44  Occ=0.000000D+00  E= 4.699190D-01
              MO Center=  3.4D-01,  3.6D-01,  1.5D-01, r^2= 5.4D+00
   Bfn.  Coefficient  Atom+Function         Bfn.  Coefficient  Atom+Function  
  ----- ------------  ---------------      ----- ------------  ---------------
    98     -4.706051   4 C  s                36      4.480277   2 C  s         
    45     -1.849615   2 C  pz              145      1.617647   8 H  s         
   133      1.472117   6 H  s                67     -1.357291   3 C  s         
   132     -1.219644   6 H  s                35     -1.181099   2 C  s         
   126      1.140219   5 H  s               107     -1.129732   4 C  pz        
 
 Vector   45  Occ=0.000000D+00  E= 5.081109D-01
              MO Center=  9.1D-01, -3.7D-01, -9.5D-01, r^2= 4.8D+00
   Bfn.  Coefficient  Atom+Function         Bfn.  Coefficient  Atom+Function  
  ----- ------------  ---------------      ----- ------------  ---------------
    98     11.558174   4 C  s                36     -7.648538   2 C  s         
    45      4.659383   2 C  pz              107      3.099632   4 C  pz        
   106      1.351954   4 C  py              144     -1.340135   8 H  s         
   156     -1.253759  10 H  s               127     -1.171102   5 H  s         
   150     -1.076523   9 H  s               105     -1.052776   4 C  px        
 
 Vector   46  Occ=0.000000D+00  E= 5.363146D-01
              MO Center=  9.9D-02, -4.0D-01, -4.9D-01, r^2= 4.3D+00
   Bfn.  Coefficient  Atom+Function         Bfn.  Coefficient  Atom+Function  
  ----- ------------  ---------------      ----- ------------  ---------------
    98     -6.900039   4 C  s                36      6.608655   2 C  s         
    45     -3.562988   2 C  pz               76      3.299786   3 C  pz        
   133     -1.814539   6 H  s               139      1.478067   7 H  s         
   105      1.463725   4 C  px              107     -1.403569   4 C  pz        
    14     -1.161612   1 O  pz                5     -1.119735   1 O  s         
 
 Vector   47  Occ=0.000000D+00  E= 6.583267D-01
              MO Center= -3.8D-01,  3.9D-02, -5.4D-03, r^2= 4.3D+00
   Bfn.  Coefficient  Atom+Function         Bfn.  Coefficient  Atom+Function  
  ----- ------------  ---------------      ----- ------------  ---------------
    36     11.502528   2 C  s                67     -8.917971   3 C  s         
    98     -3.994348   4 C  s                43     -2.602935   2 C  px        
    75      2.418209   3 C  py               13      2.193881   1 O  py        
    76      2.073525   3 C  pz              105      1.570732   4 C  px        
   139      1.544600   7 H  s                44      1.487426   2 C  py        
 
 Vector   48  Occ=0.000000D+00  E= 6.741102D-01
              MO Center= -3.0D-01,  3.6D-01,  1.2D-01, r^2= 4.0D+00
   Bfn.  Coefficient  Atom+Function         Bfn.  Coefficient  Atom+Function  
  ----- ------------  ---------------      ----- ------------  ---------------
    36      8.322588   2 C  s                67     -8.031374   3 C  s         
     5      2.961604   1 O  s                75      2.597934   3 C  py        
    98     -2.258751   4 C  s                13      2.149145   1 O  py        
    43     -1.273560   2 C  px               45     -1.270113   2 C  pz        
     4     -1.106147   1 O  s                44      0.959985   2 C  py        
 
 Vector   49  Occ=0.000000D+00  E= 7.078935D-01
              MO Center=  1.6D-01, -3.2D-01, -2.6D-01, r^2= 4.5D+00
   Bfn.  Coefficient  Atom+Function         Bfn.  Coefficient  Atom+Function  
  ----- ------------  ---------------      ----- ------------  ---------------
    67      9.376759   3 C  s                36     -7.145426   2 C  s         
    43      3.630004   2 C  px               44     -3.442870   2 C  py        
    75     -2.772477   3 C  py               98     -2.628454   4 C  s         
     5      2.235949   1 O  s                12      1.684779   1 O  px        
   106      1.638150   4 C  py               13     -1.302296   1 O  py        
 
 Vector   50  Occ=0.000000D+00  E= 7.606452D-01
              MO Center=  6.3D-01, -4.7D-03, -3.4D-01, r^2= 4.1D+00
   Bfn.  Coefficient  Atom+Function         Bfn.  Coefficient  Atom+Function  
  ----- ------------  ---------------      ----- ------------  ---------------
    45      2.466893   2 C  pz              127     -1.708099   5 H  s         
   105     -1.625633   4 C  px                5     -1.461832   1 O  s         
    36      1.461530   2 C  s                43      1.416006   2 C  px        
   126     -1.337620   5 H  s               144      1.258937   8 H  s         
    76     -1.071588   3 C  pz               66      0.946850   3 C  s         
 
 Vector   51  Occ=0.000000D+00  E= 7.939730D-01
              MO Center=  2.8D-01,  4.5D-02, -1.8D-01, r^2= 4.4D+00
   Bfn.  Coefficient  Atom+Function         Bfn.  Coefficient  Atom+Function  
  ----- ------------  ---------------      ----- ------------  ---------------
     5      4.187108   1 O  s                36     -2.770188   2 C  s         
    76     -2.675671   3 C  pz                4     -1.624305   1 O  s         
    45      1.612079   2 C  pz              133      1.428287   6 H  s         
    12      1.346699   1 O  px               43      1.215156   2 C  px        
    66     -1.032130   3 C  s                35     -0.972401   2 C  s         
 
 Vector   52  Occ=0.000000D+00  E= 8.325625D-01
              MO Center=  3.3D-01,  1.6D-01, -2.8D-02, r^2= 4.5D+00
   Bfn.  Coefficient  Atom+Function         Bfn.  Coefficient  Atom+Function  
  ----- ------------  ---------------      ----- ------------  ---------------
    36      6.637904   2 C  s                98     -4.193421   4 C  s         
     5     -3.929055   1 O  s                43     -2.589856   2 C  px        
   105      1.993267   4 C  px               45     -1.873901   2 C  pz        
    35     -1.861786   2 C  s                44      1.512628   2 C  py        
    66     -1.230475   3 C  s                97      1.046320   4 C  s         
 
 Vector   53  Occ=0.000000D+00  E= 8.539404D-01
              MO Center=  6.1D-01,  1.2D-01, -3.9D-01, r^2= 4.2D+00
   Bfn.  Coefficient  Atom+Function         Bfn.  Coefficient  Atom+Function  
  ----- ------------  ---------------      ----- ------------  ---------------
    98     -4.595943   4 C  s                45     -4.540821   2 C  pz        
    36      4.322150   2 C  s                76      2.162074   3 C  pz        
   127      1.793853   5 H  s               106     -1.538056   4 C  py        
    44      1.445301   2 C  py              105      1.273653   4 C  px        
   150     -1.252156   9 H  s               139      1.170051   7 H  s         
 
 Vector   54  Occ=0.000000D+00  E= 8.725354D-01
              MO Center=  1.8D-01, -4.3D-02, -1.4D-01, r^2= 4.3D+00
   Bfn.  Coefficient  Atom+Function         Bfn.  Coefficient  Atom+Function  
  ----- ------------  ---------------      ----- ------------  ---------------
     5      4.633820   1 O  s                36     -1.870604   2 C  s         
     4     -1.585005   1 O  s               138      1.524761   7 H  s         
    76      1.380281   3 C  pz               67     -1.223433   3 C  s         
    12      1.191025   1 O  px               66     -1.189248   3 C  s         
   156     -0.893468  10 H  s                97      0.875122   4 C  s         
 
 Vector   55  Occ=0.000000D+00  E= 9.203157D-01
              MO Center=  4.5D-01,  3.8D-01, -4.1D-01, r^2= 4.5D+00
   Bfn.  Coefficient  Atom+Function         Bfn.  Coefficient  Atom+Function  
  ----- ------------  ---------------      ----- ------------  ---------------
    35      4.740391   2 C  s                36     -1.885372   2 C  s         
    67      1.495631   3 C  s               132     -1.440781   6 H  s         
    72      1.215497   3 C  py               84      1.194857   3 C  d  0      
    41      1.134298   2 C  py              156     -1.135623  10 H  s         
    66     -1.062928   3 C  s               116     -1.031371   4 C  d  1      
 
 Vector   56  Occ=0.000000D+00  E= 9.543650D-01
              MO Center=  4.7D-01,  2.9D-01, -5.3D-01, r^2= 4.7D+00
   Bfn.  Coefficient  Atom+Function         Bfn.  Coefficient  Atom+Function  
  ----- ------------  ---------------      ----- ------------  ---------------
    35      4.258771   2 C  s               138     -2.346530   7 H  s         
    67      2.317423   3 C  s                98     -1.852687   4 C  s         
    76     -1.821186   3 C  pz               42     -1.717864   2 C  pz        
    83     -1.633728   3 C  d -1            115     -1.412954   4 C  d  0      
   107     -1.327140   4 C  pz              132      1.280243   6 H  s         
 
 Vector   57  Occ=0.000000D+00  E= 9.924407D-01
              MO Center=  3.7D-01,  4.3D-01, -1.7D-01, r^2= 4.1D+00
   Bfn.  Coefficient  Atom+Function         Bfn.  Coefficient  Atom+Function  
  ----- ------------  ---------------      ----- ------------  ---------------
    36      7.619793   2 C  s                98     -4.888142   4 C  s         
    67     -4.092966   3 C  s                45     -3.851172   2 C  pz        
    43     -2.362870   2 C  px               44      2.202656   2 C  py        
   127      1.625457   5 H  s                66     -1.583235   3 C  s         
    75      1.480872   3 C  py               35     -1.359979   2 C  s         
 
 Vector   58  Occ=0.000000D+00  E= 1.012817D+00
              MO Center=  3.6D-01,  5.7D-01, -4.0D-02, r^2= 4.2D+00
   Bfn.  Coefficient  Atom+Function         Bfn.  Coefficient  Atom+Function  
  ----- ------------  ---------------      ----- ------------  ---------------
    36      5.315692   2 C  s                67     -4.367715   3 C  s         
    45     -2.049415   2 C  pz               44      1.801398   2 C  py        
    98     -1.581395   4 C  s               156     -1.451719  10 H  s         
    82      1.351462   3 C  d -2             74     -1.328449   3 C  px        
   144      1.328443   8 H  s                43     -1.259860   2 C  px        
 
 Vector   59  Occ=0.000000D+00  E= 1.041403D+00
              MO Center=  7.0D-01, -1.7D-01, -4.7D-01, r^2= 4.2D+00
   Bfn.  Coefficient  Atom+Function         Bfn.  Coefficient  Atom+Function  
  ----- ------------  ---------------      ----- ------------  ---------------
    35      2.696322   2 C  s                36      2.516208   2 C  s         
    66     -2.194884   3 C  s               150      1.942526   9 H  s         
   144     -1.927739   8 H  s                 5     -1.877737   1 O  s         
   117      1.721455   4 C  d  2             41      1.455799   2 C  py        
    44      1.275933   2 C  py               72      1.164565   3 C  py        
 
 Vector   60  Occ=0.000000D+00  E= 1.078218D+00
              MO Center=  6.7D-01,  1.7D-02, -7.5D-02, r^2= 4.1D+00
   Bfn.  Coefficient  Atom+Function         Bfn.  Coefficient  Atom+Function  
  ----- ------------  ---------------      ----- ------------  ---------------
    66     -3.879990   3 C  s                98      3.887979   4 C  s         
    97      3.751674   4 C  s                45      3.584456   2 C  pz        
    36     -2.923229   2 C  s               104      2.560291   4 C  pz        
    41      2.506514   2 C  py               42      2.421303   2 C  pz        
    72      2.259316   3 C  py               53     -2.198255   2 C  d  0      
 
 Vector   61  Occ=0.000000D+00  E= 1.104685D+00
              MO Center=  3.7D-01,  7.3D-02,  7.4D-02, r^2= 3.8D+00
   Bfn.  Coefficient  Atom+Function         Bfn.  Coefficient  Atom+Function  
  ----- ------------  ---------------      ----- ------------  ---------------
    36      7.967649   2 C  s                67     -5.582711   3 C  s         
    98     -3.137855   4 C  s                66      2.168027   3 C  s         
    45     -2.104973   2 C  pz              126     -2.071077   5 H  s         
   132      1.691148   6 H  s                72     -1.636355   3 C  py        
    53      1.535719   2 C  d  0             41     -1.505597   2 C  py        
 
 Vector   62  Occ=0.000000D+00  E= 1.145423D+00
              MO Center=  6.3D-01, -6.5D-03, -5.6D-02, r^2= 3.5D+00
   Bfn.  Coefficient  Atom+Function         Bfn.  Coefficient  Atom+Function  
  ----- ------------  ---------------      ----- ------------  ---------------
    67      4.944441   3 C  s                36     -3.658828   2 C  s         
    44     -2.332995   2 C  py               97     -1.818239   4 C  s         
   126      1.772244   5 H  s                54      1.578847   2 C  d  1      
    43      1.511249   2 C  px               55      1.493837   2 C  d  2      
    42     -1.463920   2 C  pz               75     -1.381502   3 C  py        
 
 Vector   63  Occ=0.000000D+00  E= 1.212884D+00
              MO Center=  5.7D-01,  1.9D-01, -1.5D-01, r^2= 3.8D+00
   Bfn.  Coefficient  Atom+Function         Bfn.  Coefficient  Atom+Function  
  ----- ------------  ---------------      ----- ------------  ---------------
    36      6.777423   2 C  s                66     -4.913347   3 C  s         
    67     -3.442748   3 C  s                97     -3.318537   4 C  s         
    35      3.144500   2 C  s                72      1.893595   3 C  py        
    51     -1.775181   2 C  d -2             52      1.652089   2 C  d -1      
   138      1.583756   7 H  s               104     -1.463170   4 C  pz        
 
 Vector   64  Occ=0.000000D+00  E= 1.348079D+00
              MO Center=  3.5D-01,  5.5D-01,  2.2D-01, r^2= 3.6D+00
   Bfn.  Coefficient  Atom+Function         Bfn.  Coefficient  Atom+Function  
  ----- ------------  ---------------      ----- ------------  ---------------
    66      4.765971   3 C  s                35      3.823242   2 C  s         
    67     -3.181837   3 C  s                36     -2.670070   2 C  s         
    65     -2.418807   3 C  s               132     -1.997200   6 H  s         
    34     -1.428684   2 C  s               133      1.413303   6 H  s         
    72      1.309239   3 C  py              139      1.092658   7 H  s         
 
 Vector   65  Occ=0.000000D+00  E= 1.415889D+00
              MO Center=  1.6D-01,  5.0D-01, -2.7D-02, r^2= 3.4D+00
   Bfn.  Coefficient  Atom+Function         Bfn.  Coefficient  Atom+Function  
  ----- ------------  ---------------      ----- ------------  ---------------
    36      4.431548   2 C  s                66      3.960729   3 C  s         
    67     -3.967650   3 C  s                35     -3.823568   2 C  s         
    73     -2.248339   3 C  pz              138     -2.216855   7 H  s         
   139      2.197114   7 H  s               126      1.876576   5 H  s         
    76      1.635863   3 C  pz               65     -1.622132   3 C  s         
 
 Vector   66  Occ=0.000000D+00  E= 1.432936D+00
              MO Center=  1.1D+00, -4.7D-01, -1.1D+00, r^2= 3.5D+00
   Bfn.  Coefficient  Atom+Function         Bfn.  Coefficient  Atom+Function  
  ----- ------------  ---------------      ----- ------------  ---------------
    98     10.055281   4 C  s                97     -7.603860   4 C  s         
    96      3.067879   4 C  s                36     -2.399224   2 C  s         
   145     -2.409891   8 H  s               151     -2.296495   9 H  s         
   157     -2.101273  10 H  s               144      1.716000   8 H  s         
   150      1.651236   9 H  s               104      1.462814   4 C  pz        
 
 Vector   67  Occ=0.000000D+00  E= 1.443511D+00
              MO Center=  4.0D-01,  4.8D-02, -2.5D-01, r^2= 4.2D+00
   Bfn.  Coefficient  Atom+Function         Bfn.  Coefficient  Atom+Function  
  ----- ------------  ---------------      ----- ------------  ---------------
    66      4.106367   3 C  s                67     -2.843563   3 C  s         
    35     -2.621550   2 C  s                36      2.192991   2 C  s         
    98      1.925737   4 C  s               133      1.879459   6 H  s         
    76     -1.716871   3 C  pz               45      1.545948   2 C  pz        
    65     -1.474213   3 C  s               132     -1.446330   6 H  s         
 
 Vector   68  Occ=0.000000D+00  E= 1.446704D+00
              MO Center=  3.0D-01, -5.0D-02, -5.2D-02, r^2= 3.1D+00
   Bfn.  Coefficient  Atom+Function         Bfn.  Coefficient  Atom+Function  
  ----- ------------  ---------------      ----- ------------  ---------------
    98      5.808667   4 C  s                97     -3.192004   4 C  s         
    36     -2.488678   2 C  s                45      2.305048   2 C  pz        
     5      1.859008   1 O  s                35     -1.767331   2 C  s         
   127     -1.509159   5 H  s                96      1.345224   4 C  s         
    76     -1.178094   3 C  pz               42     -1.086850   2 C  pz        
 
 Vector   69  Occ=0.000000D+00  E= 1.473675D+00
              MO Center=  9.4D-01, -2.5D-01, -9.6D-01, r^2= 3.5D+00
   Bfn.  Coefficient  Atom+Function         Bfn.  Coefficient  Atom+Function  
  ----- ------------  ---------------      ----- ------------  ---------------
    66      2.109952   3 C  s                36      1.599412   2 C  s         
    67     -1.429021   3 C  s                 5     -1.199743   1 O  s         
   103      1.069166   4 C  py               98     -0.954342   4 C  s         
    97      0.944425   4 C  s               133      0.932531   6 H  s         
    65     -0.897589   3 C  s                71     -0.889560   3 C  px        
 
 Vector   70  Occ=0.000000D+00  E= 1.477396D+00
              MO Center=  9.5D-01, -3.9D-01, -1.0D+00, r^2= 3.4D+00
   Bfn.  Coefficient  Atom+Function         Bfn.  Coefficient  Atom+Function  
  ----- ------------  ---------------      ----- ------------  ---------------
    36      2.821548   2 C  s               156     -2.708620  10 H  s         
   157      2.086145  10 H  s               102     -2.037651   4 C  px        
   104     -1.792459   4 C  pz              126      1.738615   5 H  s         
    66     -1.695240   3 C  s               103      1.648415   4 C  py        
    35     -1.471390   2 C  s               127     -1.358472   5 H  s         
 
 Vector   71  Occ=0.000000D+00  E= 1.515382D+00
              MO Center=  4.3D-01,  3.3D-02, -4.0D-01, r^2= 4.0D+00
   Bfn.  Coefficient  Atom+Function         Bfn.  Coefficient  Atom+Function  
  ----- ------------  ---------------      ----- ------------  ---------------
    98      2.179358   4 C  s               144      1.946129   8 H  s         
   102     -1.697130   4 C  px              103     -1.485210   4 C  py        
   145     -1.453665   8 H  s                45      1.242513   2 C  pz        
   150     -1.124820   9 H  s                66      0.994039   3 C  s         
    35     -0.896254   2 C  s                97     -0.823392   4 C  s         
 
 Vector   72  Occ=0.000000D+00  E= 1.547546D+00
              MO Center=  2.7D-01,  5.2D-01, -1.5D-01, r^2= 4.4D+00
   Bfn.  Coefficient  Atom+Function         Bfn.  Coefficient  Atom+Function  
  ----- ------------  ---------------      ----- ------------  ---------------
    36      4.176299   2 C  s                35     -3.636905   2 C  s         
    98     -3.608400   4 C  s                97      3.334333   4 C  s         
    67     -2.357653   3 C  s                73      2.204044   3 C  pz        
   132     -1.781262   6 H  s               138      1.441992   7 H  s         
   133      1.335381   6 H  s                34      1.320865   2 C  s         
 
 Vector   73  Occ=0.000000D+00  E= 1.575744D+00
              MO Center=  4.0D-01,  1.2D-01,  1.7D-02, r^2= 3.4D+00
   Bfn.  Coefficient  Atom+Function         Bfn.  Coefficient  Atom+Function  
  ----- ------------  ---------------      ----- ------------  ---------------
    35      2.386436   2 C  s               126      1.817247   5 H  s         
    40     -1.787775   2 C  px               36     -1.744901   2 C  s         
    97     -1.648293   4 C  s                42     -1.494554   2 C  pz        
    72      1.298624   3 C  py              127     -1.260097   5 H  s         
   144      1.177083   8 H  s                67      1.140716   3 C  s         
 
 Vector   74  Occ=0.000000D+00  E= 1.592622D+00
              MO Center=  3.7D-01,  3.5D-01, -1.7D-01, r^2= 3.4D+00
   Bfn.  Coefficient  Atom+Function         Bfn.  Coefficient  Atom+Function  
  ----- ------------  ---------------      ----- ------------  ---------------
    36     -5.697166   2 C  s                35      5.567586   2 C  s         
    66     -5.077540   3 C  s                67      4.053973   3 C  s         
    41      3.561080   2 C  py               72      2.448687   3 C  py        
    71     -2.397306   3 C  px               40     -2.247374   2 C  px        
    98      2.224541   4 C  s                34     -1.677512   2 C  s         
 
 Vector   75  Occ=0.000000D+00  E= 1.640392D+00
              MO Center=  4.9D-01,  1.4D-01, -7.0D-02, r^2= 3.7D+00
   Bfn.  Coefficient  Atom+Function         Bfn.  Coefficient  Atom+Function  
  ----- ------------  ---------------      ----- ------------  ---------------
    66      2.956410   3 C  s                35      2.164148   2 C  s         
    97     -1.996198   4 C  s                98      1.999432   4 C  s         
     5     -1.875298   1 O  s                67     -1.563274   3 C  s         
   104     -1.325010   4 C  pz               41     -1.270731   2 C  py        
   103     -1.169373   4 C  py              144      1.128243   8 H  s         
 
 Vector   76  Occ=0.000000D+00  E= 1.694357D+00
              MO Center=  5.6D-01,  1.3D-01, -4.1D-01, r^2= 3.7D+00
   Bfn.  Coefficient  Atom+Function         Bfn.  Coefficient  Atom+Function  
  ----- ------------  ---------------      ----- ------------  ---------------
    97     -5.499890   4 C  s                35      5.193729   2 C  s         
   104     -2.841762   4 C  pz               42     -2.804651   2 C  pz        
   102      1.849130   4 C  px               40      1.638069   2 C  px        
    66     -1.590410   3 C  s                34     -1.526804   2 C  s         
    96      1.486112   4 C  s                72     -1.146660   3 C  py        
 
 Vector   77  Occ=0.000000D+00  E= 1.701596D+00
              MO Center= -1.9D-02,  3.0D-01, -8.4D-02, r^2= 3.7D+00
   Bfn.  Coefficient  Atom+Function         Bfn.  Coefficient  Atom+Function  
  ----- ------------  ---------------      ----- ------------  ---------------
     5      3.708953   1 O  s                72      3.203817   3 C  py        
    36     -2.543323   2 C  s               138     -1.999718   7 H  s         
    97      1.930540   4 C  s                66     -1.816149   3 C  s         
    42      1.616696   2 C  pz               12      1.440162   1 O  px        
    41      1.435882   2 C  py              104      1.339359   4 C  pz        
 
 Vector   78  Occ=0.000000D+00  E= 1.791090D+00
              MO Center=  3.4D-01,  2.8D-01,  3.1D-02, r^2= 3.5D+00
   Bfn.  Coefficient  Atom+Function         Bfn.  Coefficient  Atom+Function  
  ----- ------------  ---------------      ----- ------------  ---------------
    35      3.318716   2 C  s                97     -2.834188   4 C  s         
    36      1.932238   2 C  s                45     -1.384432   2 C  pz        
   104     -1.178944   4 C  pz                5     -1.118797   1 O  s         
    67     -1.096926   3 C  s                42     -1.085864   2 C  pz        
    72      1.064042   3 C  py              102      0.983036   4 C  px        
 
 Vector   79  Occ=0.000000D+00  E= 1.813761D+00
              MO Center= -6.3D-01,  1.8D-01,  1.9D-01, r^2= 2.5D+00
   Bfn.  Coefficient  Atom+Function         Bfn.  Coefficient  Atom+Function  
  ----- ------------  ---------------      ----- ------------  ---------------
    35      3.954635   2 C  s                 5     -3.383470   1 O  s         
    40     -2.320664   2 C  px               41      1.988001   2 C  py        
    72      1.744501   3 C  py               71     -1.706184   3 C  px        
    66     -1.607522   3 C  s                12     -1.403349   1 O  px        
    67      1.027090   3 C  s               132     -0.964116   6 H  s         
 
 Vector   80  Occ=0.000000D+00  E= 1.841106D+00
              MO Center=  9.2D-02,  2.3D-01, -6.4D-02, r^2= 3.7D+00
   Bfn.  Coefficient  Atom+Function         Bfn.  Coefficient  Atom+Function  
  ----- ------------  ---------------      ----- ------------  ---------------
    35      1.476457   2 C  s                36     -1.096053   2 C  s         
   156     -0.940927  10 H  s                66      0.839116   3 C  s         
   104     -0.838918   4 C  pz               41     -0.832137   2 C  py        
    97     -0.700804   4 C  s               157      0.662986  10 H  s         
   126     -0.647509   5 H  s                71     -0.625156   3 C  px        
 
 Vector   81  Occ=0.000000D+00  E= 1.867764D+00
              MO Center=  5.3D-01,  1.5D-01, -4.6D-01, r^2= 4.0D+00
   Bfn.  Coefficient  Atom+Function         Bfn.  Coefficient  Atom+Function  
  ----- ------------  ---------------      ----- ------------  ---------------
    35      6.355604   2 C  s                66     -4.118990   3 C  s         
    72      3.336181   3 C  py               97     -3.300141   4 C  s         
    36      2.059623   2 C  s               104     -1.893478   4 C  pz        
    34     -1.594779   2 C  s                67     -1.551225   3 C  s         
    41      1.376086   2 C  py               45     -1.352112   2 C  pz        
 
 Vector   82  Occ=0.000000D+00  E= 1.920262D+00
              MO Center=  3.1D-01, -1.6D-01, -3.1D-01, r^2= 3.2D+00
   Bfn.  Coefficient  Atom+Function         Bfn.  Coefficient  Atom+Function  
  ----- ------------  ---------------      ----- ------------  ---------------
    36      1.584385   2 C  s                98     -1.543772   4 C  s         
    45     -1.336524   2 C  pz               97     -1.237072   4 C  s         
   103     -1.221185   4 C  py               35      1.061884   2 C  s         
    66     -0.873834   3 C  s                42     -0.817255   2 C  pz        
    41      0.766335   2 C  py              150     -0.737484   9 H  s         
 
 Vector   83  Occ=0.000000D+00  E= 1.989865D+00
              MO Center=  8.4D-01, -2.2D-01, -3.8D-01, r^2= 3.4D+00
   Bfn.  Coefficient  Atom+Function         Bfn.  Coefficient  Atom+Function  
  ----- ------------  ---------------      ----- ------------  ---------------
    98      3.613555   4 C  s                35      3.138643   2 C  s         
    66     -2.433263   3 C  s                40     -2.167176   2 C  px        
    72      1.775857   3 C  py               36     -1.662490   2 C  s         
    41      1.636615   2 C  py               43     -1.487516   2 C  px        
    71     -1.288359   3 C  px               67     -1.217338   3 C  s         
 
 Vector   84  Occ=0.000000D+00  E= 1.995289D+00
              MO Center=  6.2D-01, -1.1D-01, -7.4D-01, r^2= 3.4D+00
   Bfn.  Coefficient  Atom+Function         Bfn.  Coefficient  Atom+Function  
  ----- ------------  ---------------      ----- ------------  ---------------
    36      4.429711   2 C  s                98     -3.855024   4 C  s         
    45     -2.097436   2 C  pz               35     -1.910077   2 C  s         
    67     -1.642464   3 C  s               156      1.119884  10 H  s         
   104      1.028904   4 C  pz              107     -0.984779   4 C  pz        
     5     -0.880890   1 O  s                34      0.790001   2 C  s         
 
 Vector   85  Occ=0.000000D+00  E= 2.093160D+00
              MO Center= -3.7D-02,  1.3D-01, -1.4D-02, r^2= 3.5D+00
   Bfn.  Coefficient  Atom+Function         Bfn.  Coefficient  Atom+Function  
  ----- ------------  ---------------      ----- ------------  ---------------
    36      2.859327   2 C  s                98     -2.232489   4 C  s         
    67     -1.079425   3 C  s                35     -0.847492   2 C  s         
   138     -0.733253   7 H  s               156      0.716756  10 H  s         
    14     -0.581967   1 O  pz              144      0.577590   8 H  s         
    40     -0.552547   2 C  px               13      0.526066   1 O  py        
 
 Vector   86  Occ=0.000000D+00  E= 2.098684D+00
              MO Center= -3.4D-01,  6.0D-02,  3.6D-02, r^2= 3.0D+00
   Bfn.  Coefficient  Atom+Function         Bfn.  Coefficient  Atom+Function  
  ----- ------------  ---------------      ----- ------------  ---------------
    67     -5.573503   3 C  s                36      5.535141   2 C  s         
    66      3.172642   3 C  s                35     -3.093557   2 C  s         
    41     -2.996089   2 C  py               71      2.664852   3 C  px        
    13      1.827711   1 O  py               82     -1.440009   3 C  d -2      
    75      1.357830   3 C  py               43     -1.345636   2 C  px        
 
 Vector   87  Occ=0.000000D+00  E= 2.163730D+00
              MO Center=  4.6D-01,  1.8D-02, -4.6D-01, r^2= 3.3D+00
   Bfn.  Coefficient  Atom+Function         Bfn.  Coefficient  Atom+Function  
  ----- ------------  ---------------      ----- ------------  ---------------
    98      2.144711   4 C  s                67     -1.572946   3 C  s         
    73      1.042640   3 C  pz               35     -0.864960   2 C  s         
   156     -0.848047  10 H  s                40      0.760529   2 C  px        
    44      0.757967   2 C  py               43     -0.743180   2 C  px        
   144     -0.730889   8 H  s                45      0.724163   2 C  pz        
 
 Vector   88  Occ=0.000000D+00  E= 2.201634D+00
              MO Center=  4.3D-01,  2.0D-01, -3.0D-01, r^2= 3.7D+00
   Bfn.  Coefficient  Atom+Function         Bfn.  Coefficient  Atom+Function  
  ----- ------------  ---------------      ----- ------------  ---------------
    98      2.124823   4 C  s                36     -1.079850   2 C  s         
    45      1.054116   2 C  pz               76     -0.953194   3 C  pz        
   132      0.814547   6 H  s                42     -0.799528   2 C  pz        
   103     -0.715450   4 C  py               97     -0.701785   4 C  s         
   117     -0.655634   4 C  d  2            138     -0.576832   7 H  s         
 
 Vector   89  Occ=0.000000D+00  E= 2.227920D+00
              MO Center=  6.3D-01,  4.6D-02, -2.7D-02, r^2= 3.5D+00
   Bfn.  Coefficient  Atom+Function         Bfn.  Coefficient  Atom+Function  
  ----- ------------  ---------------      ----- ------------  ---------------
    36      2.732196   2 C  s                67     -1.569441   3 C  s         
    72     -1.129007   3 C  py                5     -1.075441   1 O  s         
    35     -1.069570   2 C  s                42     -1.044703   2 C  pz        
    66      0.957095   3 C  s                51      0.729763   2 C  d -2      
    98     -0.708528   4 C  s               102      0.701434   4 C  px        
 
 Vector   90  Occ=0.000000D+00  E= 2.245280D+00
              MO Center=  8.3D-01, -3.4D-01, -8.7D-01, r^2= 3.5D+00
   Bfn.  Coefficient  Atom+Function         Bfn.  Coefficient  Atom+Function  
  ----- ------------  ---------------      ----- ------------  ---------------
    36      1.584198   2 C  s               150      1.407829   9 H  s         
    98     -1.329738   4 C  s                66     -1.038383   3 C  s         
    72      0.870397   3 C  py               67     -0.859938   3 C  s         
   144     -0.808402   8 H  s               117      0.700843   4 C  d  2      
    45     -0.672447   2 C  pz              149     -0.589786   9 H  s         
 
 Vector   91  Occ=0.000000D+00  E= 2.266200D+00
              MO Center=  9.5D-01, -2.9D-01, -1.1D+00, r^2= 3.1D+00
   Bfn.  Coefficient  Atom+Function         Bfn.  Coefficient  Atom+Function  
  ----- ------------  ---------------      ----- ------------  ---------------
    66      2.576263   3 C  s                36      1.826891   2 C  s         
    41     -1.635085   2 C  py               67     -1.483197   3 C  s         
    35     -1.341836   2 C  s                72     -1.239667   3 C  py        
   126     -1.019302   5 H  s                71      0.938895   3 C  px        
   156      0.924951  10 H  s                98     -0.723211   4 C  s         
 
 Vector   92  Occ=0.000000D+00  E= 2.281309D+00
              MO Center=  4.8D-01,  1.1D-01, -2.3D-01, r^2= 3.5D+00
   Bfn.  Coefficient  Atom+Function         Bfn.  Coefficient  Atom+Function  
  ----- ------------  ---------------      ----- ------------  ---------------
    98      3.737015   4 C  s                36     -2.576855   2 C  s         
[...]
    21     -0.870206   1 O  d -1             42     -0.815295   2 C  pz        
    97     -0.732149   4 C  s                45     -0.713424   2 C  pz        
    98     -0.524705   4 C  s                 5     -0.516031   1 O  s         
    67     -0.503770   3 C  s               102      0.499839   4 C  px        
 
 Vector  154  Occ=0.000000D+00  E= 6.675721D+00
              MO Center= -8.7D-01, -1.8D-01,  2.0D-01, r^2= 5.7D-01
   Bfn.  Coefficient  Atom+Function         Bfn.  Coefficient  Atom+Function  
  ----- ------------  ---------------      ----- ------------  ---------------
    18      1.060892   1 O  d  1             23     -1.031377   1 O  d  1      
    97     -0.855723   4 C  s                42     -0.772643   2 C  pz        
    35      0.763579   2 C  s               102      0.639770   4 C  px        
    54     -0.538965   2 C  d  1             14      0.408557   1 O  pz        
    16     -0.400490   1 O  d -1             21      0.388109   1 O  d -1      
 
 Vector  155  Occ=0.000000D+00  E= 6.841837D+00
              MO Center= -8.8D-01, -1.9D-01,  2.0D-01, r^2= 5.9D-01
   Bfn.  Coefficient  Atom+Function         Bfn.  Coefficient  Atom+Function  
  ----- ------------  ---------------      ----- ------------  ---------------
     5      2.121530   1 O  s                40      1.765509   2 C  px        
     9      1.360746   1 O  px               97     -1.287226   4 C  s         
     4      1.204858   1 O  s                20      1.045198   1 O  d -2      
    42     -0.974856   2 C  pz               12      0.850040   1 O  px        
    15     -0.832670   1 O  d -2             22     -0.835911   1 O  d  0      
 
 Vector  156  Occ=0.000000D+00  E= 7.057529D+00
              MO Center= -8.9D-01, -1.9D-01,  2.0D-01, r^2= 6.4D-01
   Bfn.  Coefficient  Atom+Function         Bfn.  Coefficient  Atom+Function  
  ----- ------------  ---------------      ----- ------------  ---------------
    66     -3.162387   3 C  s                35      3.017972   2 C  s         
    40     -2.713304   2 C  px               72      2.672360   3 C  py        
    24     -1.578374   1 O  d  2             36      1.460696   2 C  s         
    67     -1.299412   3 C  s                10      1.275371   1 O  py        
    19      1.017715   1 O  d  2             13      0.867505   1 O  py        
 
 Vector  157  Occ=0.000000D+00  E= 2.193073D+01
              MO Center=  9.6D-04,  8.7D-01,  1.4D-01, r^2= 9.8D-01
   Bfn.  Coefficient  Atom+Function         Bfn.  Coefficient  Atom+Function  
  ----- ------------  ---------------      ----- ------------  ---------------
    64      1.635634   3 C  s                65     -1.398238   3 C  s         
    63     -1.289702   3 C  s                67     -1.290975   3 C  s         
    98      0.933165   4 C  s                95     -0.636937   4 C  s         
    96      0.507135   4 C  s                94      0.504285   4 C  s         
    40     -0.460747   2 C  px               35      0.394887   2 C  s         
 
 Vector  158  Occ=0.000000D+00  E= 2.197945D+01
              MO Center=  9.4D-01, -3.1D-01, -7.8D-01, r^2= 9.9D-01
   Bfn.  Coefficient  Atom+Function         Bfn.  Coefficient  Atom+Function  
  ----- ------------  ---------------      ----- ------------  ---------------
    95      1.467151   4 C  s                96     -1.349337   4 C  s         
    98     -1.194610   4 C  s                94     -1.154492   4 C  s         
    34     -0.955305   2 C  s                36     -0.919774   2 C  s         
    33      0.871483   2 C  s                32     -0.681142   2 C  s         
    67      0.652296   3 C  s                65     -0.540942   3 C  s         
 
 Vector  159  Occ=0.000000D+00  E= 2.209548D+01
              MO Center=  6.4D-01, -1.4D-01, -1.0D-01, r^2= 6.8D-01
   Bfn.  Coefficient  Atom+Function         Bfn.  Coefficient  Atom+Function  
  ----- ------------  ---------------      ----- ------------  ---------------
    36      2.179250   2 C  s                33     -1.543145   2 C  s         
    34      1.541200   2 C  s                35     -1.396845   2 C  s         
    98     -1.341125   4 C  s                32      1.208701   2 C  s         
    67     -1.099497   3 C  s                95      0.754946   4 C  s         
    97      0.686398   4 C  s                96     -0.676584   4 C  s         
 
 Vector  160  Occ=0.000000D+00  E= 4.341293D+01
              MO Center= -8.8D-01, -1.8D-01,  2.1D-01, r^2= 1.2D-01
   Bfn.  Coefficient  Atom+Function         Bfn.  Coefficient  Atom+Function  
  ----- ------------  ---------------      ----- ------------  ---------------
     4      2.496687   1 O  s                 3     -1.871987   1 O  s         
     2      1.731372   1 O  s                 1     -1.395816   1 O  s         
     5     -0.885278   1 O  s                36      0.809706   2 C  s         
     9      0.556034   1 O  px               66     -0.506201   3 C  s         
    40      0.460329   2 C  px               72      0.447351   3 C  py        
 

 center of mass
 --------------
 x =   0.30619291 y =   0.09486552 z =  -0.27792431

 moments of inertia (a.u.)
 ------------------
         200.163575862011          45.654028820136          83.772753396741
          45.654028820136         248.257701661795         -52.582305048051
          83.772753396741         -52.582305048051         238.978476476603
 
     Multipole analysis of the density
     ---------------------------------
 
     L   x y z        total         alpha         beta         nuclear
     -   - - -        -----         -----         ----         -------
     0   0 0 0     -0.000000    -16.000000    -16.000000     32.000000
 
     1   1 0 0      0.694196     -6.222110     -6.222110     13.138416
     1   0 1 0      0.326221     -1.606175     -1.606175      3.538570
     1   0 0 1     -0.057837      5.321978      5.321978    -10.701794
 
     2   2 0 0    -20.053316    -54.378045    -54.378045     88.702774
     2   1 1 0     -1.101196     13.876265     13.876265    -28.853726
     2   1 0 1      0.154621     26.479020     26.479020    -52.803420
     2   0 2 0    -17.880798    -40.391852    -40.391852     62.902906
     2   0 1 1      0.234377    -15.361918    -15.361918     30.958214
     2   0 0 2    -18.139870    -45.797807    -45.797807     73.455744
 
 *** CALLING NEW AORESP DRIVER FOR CLOSED AND OPEN SHELLS ***
 Entering AOResponse driver routine


--------------------------------------------------------------------------------

          ****************
          *** RESPONSE ***
          ****************

 Response module for NWChem and dynamic CPKS solver
 developed by J. Autschbach and coworkers, SUNY Buffalo
 The methodology used in this program is described in 
 ChemPhysChem 12 (2011), 3224-3235 (main reference)
 J. Chem. Phys. 123 (2005), 114103
 J. Chem. Phys. 122 (2005), 224115
 J. Chem. Phys. 122 (2005), 074105
 Comp. Lett. 3 (2007), 131-150 (contact JA for a copy)
 Please cite this work in publications based on results
 obtained with this code. Thank you!

 For extension of response module to open shell
 calculations please acknowledge:
 F. Aquino, Northwestern University, Schatz Rsrch Group
 The update to the methodology is described in
 J. Phys. Chem. A 118 (2014) 517-525



          -----------------------------------------------
          Solving response equations for perturbing field
          -----------------------------------------------

 number of frequencies:     1
 frequency in a.u.:  0.9319600E-01
 Perturbing field: electric
 Using GIAO formalism for OptRot
 Adding quadrupole terms to OptRot
 to create an origin in dependent tensor.
 Using El. Dipole Length Gauge
 
 Applying DAMPING constant of  0.003700 a.u.
 
 Setting up CPKS
 with frequency omega =      0.09319600 a.u.
 and a damping of            0.00370000 a.u.

 
                            NWChem Dynamic CPHF Module
                            --------------------------
 
 
    scftype = RHF 
    nclosed =   16
      nopen =    0
  variables =     9216
  num. vecs =        3
  tolerance =   1.0D-07
  max. iter =  100

 SCF residual:   1.275000304175594E-006


Iterative solution of linear equations
  No. of variables     4608
  No. of equations        3
  Maximum subspace       99
       Convergence  1.0D-07
        Start time     95.0


   iter   nsub   residual    time 
   ----  ------  --------  --------- 
 dft_CPHF2_read: failed to open
 ./methyloxirane_blyp-def2-tzvp_488.9_42.inp.aoresp_fiao_f1
     1      3    3.99D+00     145.3
     2      6    2.70D+00     195.8
     3      9    2.45D-01     246.3
     4     12    5.84D-02     296.4
     5     15    9.53D-03     346.8
     6     18    1.28D-03     397.0
     7     21    1.45D-04     447.4
     8     24    1.37D-05     497.7
     9     27    1.25D-06     548.0
    10     30    4.96D-07     598.3
    11     33    1.26D-08     648.5

 Calculating some arrays needed for GIAO optical rotation

    0 giaofock schwarz done =      93.00%
    0 giaofock schwarz done =      93.13%
 aor_r1_tensor_giao: roadata output requested
 dip-quad polarizability Re:

              1        2        3        4        5        6      
    1   77.1787  -6.1003 -27.5597  -4.3884   1.2018   9.1559
    2  -11.6668  25.6460   3.3612  22.7240 -21.7352   4.1426
    3   -6.6718   1.1065  39.2817  -0.2565  13.9194 -40.8941
 traceless dip-quad polarizability:

              1        2        3      
    1   74.7949  -9.1504 -41.3395
    2   -9.1504 -47.5557   1.8027
    3  -41.3395   1.8027 -27.2392

              1        2        3      
    1  -25.1000  38.4690   5.0419
    2   38.4690  26.4861 -32.6027
    3    5.0419 -32.6027  -1.3860

              1        2        3      
    1   13.9036   1.6597  58.9226
    2    1.6597  23.5264  20.8791
    3   58.9226  20.8791 -37.4300

 roa begin

 alpha real:
 XX       0.4108161707704E+02
 XY      -0.5178603935808E+01
 XZ      -0.3049244993911E+01
 YX      -0.5178603945834E+01
 YY       0.4395217787337E+02
 YZ       0.3159693227706E+01
 ZX      -0.3049244998787E+01
 ZY       0.3159693229816E+01
 ZZ       0.4153073848883E+02

 alpha im:
 XX       0.1116412684574E+00
 XY      -0.3014428656470E-01
 XZ      -0.1135379470871E-01
 YX      -0.3014427964950E-01
 YY       0.1292034386353E+00
 YZ       0.1856318734290E-01
 ZX      -0.1135378933819E-01
 ZY       0.1856318873274E-01
 ZZ       0.1226958563705E+00

 beta real:
 XX      -0.1445363156062E+00
 XY       0.9367457921058E+00
 XZ       0.2070247543797E+00
 YX      -0.8870370758540E+00
 YY       0.1480251421817E+00
 YZ      -0.1552543694967E+01
 ZX      -0.4910973943958E+00
 ZY       0.1878639883742E+01
 ZZ      -0.6110233834974E-02

 G-prime = -omega beta(real):
 XX      -0.1445363156062E+00
 XY       0.9367457921058E+00
 XZ       0.2070247543797E+00
 YX      -0.8870370758540E+00
 YY       0.1480251421817E+00
 YZ      -0.1552543694967E+01
 ZX      -0.4910973943958E+00
 ZY       0.1878639883742E+01
 ZZ      -0.6110233834974E-02

 beta im:
 XX      -0.6217197274823E-02
 XY       0.1338487250368E-01
 XZ       0.2931027152363E-02
 YX      -0.7560310691215E-02
 YY       0.4908156360573E-02
 YZ      -0.2382902269277E-01
 ZX      -0.1413770278044E-01
 ZY       0.4061522271744E-01
 ZZ       0.5431548123248E-03

 G-prime = -omega beta(imag):
 XX      -0.6217197274823E-02
 XY       0.1338487250368E-01
 XZ       0.2931027152363E-02
 YX      -0.7560310691215E-02
 YY       0.4908156360573E-02
 YZ      -0.2382902269277E-01
 ZX      -0.1413770278044E-01
 ZY       0.4061522271744E-01
 ZZ       0.5431548123248E-03

 dipole-quadrupole real (Cartesian):
 XXX      0.7717868132080E+02
 XXY     -0.6100280631856E+01
 XXZ     -0.2755968045280E+02
 XYY     -0.4388365198859E+01
 XYZ      0.1201812384650E+01
 XZZ      0.9155943690400E+01
 YXX     -0.1166677676519E+02
 YXY      0.2564602309242E+02
 YXZ      0.3361239293190E+01
 YYY      0.2272395088366E+02
 YYZ     -0.2173515364132E+02
 YZZ      0.4142557307860E+01
 ZXX     -0.6671788140994E+01
 ZXY      0.1106462069911E+01
 ZXZ      0.3928173292086E+02
 ZYY     -0.2565324824063E+00
 ZYZ      0.1391937148098E+02
 ZZZ     -0.4089414731094E+02

 dipole-quadrupole imag (Cartesian):
 XXX      0.2703314412013E+00
 XXY     -0.3420205099817E-01
 XXZ     -0.7666201816171E-01
 XYY     -0.2848347295514E-01
 XYZ      0.2454100174927E-02
 XZZ      0.6125576345512E-01
 YXX     -0.5683472926736E-01
 YXY      0.6224169086234E-01
 YXZ      0.1969628810814E-01
 YYY      0.9070258720075E-01
 YYZ     -0.6122380369508E-01
 YZZ      0.9697195768580E-02
 ZXX     -0.3427143724776E-01
 ZXY     -0.1812463121884E-03
 ZXZ      0.1459584985669E+00
 ZYY      0.5181209328743E-02
 ZYZ      0.6516713065555E-01
 ZZZ     -0.9481381329327E-01

 dipole-quadrupole (traceless):
 XXX      0.7479489207503E+02
 XXY     -0.9150420947784E+01
 XXZ     -0.4133952067920E+02
 XYY     -0.4755567770446E+02
 XYZ      0.1802718576974E+01
 XZZ     -0.2723921437057E+02
 YXX     -0.2510003086095E+02
 YXY      0.3846903463863E+02
 YXZ      0.5041858939785E+01
 YYY      0.2648606061232E+02
 YYZ     -0.3260273046198E+02
 YZZ     -0.1386029751372E+01
 ZXX      0.1390355175568E+02
 ZXY      0.1659693104867E+01
 ZXZ      0.5892259938130E+02
 ZYY      0.2352643524356E+02
 ZYZ      0.2087905722148E+02
 ZZZ     -0.3742998699924E+02

 roa end


 Electric Dipole Response Matrix (nonzero elements):

              1        2        3      
    1   41.0816  -5.1786  -3.0492
    2   -5.1786  43.9522   3.1597
    3   -3.0492   3.1597  41.5307
 
 Imaginary part:

              1        2        3      
    1    0.1116  -0.0301  -0.0114
    2   -0.0301   0.1292   0.0186
    3   -0.0114   0.0186   0.1227

 ------------------------------------------
 average:        42.18818 + I       0.12118


 DFT Linear Response polarizability / au 
 Frequency  =       0.0931960 / au
 Wavelength =     488.8981609 / nm
              X              Y              Z
 -----------------------------------------------
 X      41.0816171     -5.1786039     -3.0492450
 Y      -5.1786039     43.9521779      3.1596932
 Z      -3.0492450      3.1596932     41.5307385
 -----------------------------------------------
 Eigenvalues =      37.0462118     50.1120884     39.4062332
 Isotropic   =      42.1881778
 Anisotropic =       9.8472021
 -----------------------------------------------
 *************************

 DFT Linear Response IMAG polarizability / au 
 Frequency  =       0.0931960 / au
 Wavelength =     488.8981609 / nm
              X              Y              Z
 -----------------------------------------------
 X       0.1116413     -0.0301443     -0.0113538
 Y      -0.0301443      0.1292034      0.0185632
 Z      -0.0113538      0.0185632      0.1226959
 -----------------------------------------------
 Eigenvalues =       0.0888645      0.1633723      0.1113038
 Isotropic   =       0.1211802
 Anisotropic =       0.0540557
 -----------------------------------------------
 *************************

 Magnetic Dipole Response Matrix (nonzero elements):
 Optical rotation tensor Beta
 (Buckingham-Dunn version including dipole-quadrupole terms)

              1        2        3      
    1    2.6783  -0.4144   0.4715
    2   -0.4144  -1.6360  -1.7267
    3    0.4715  -1.7267  -1.0142
 
 Imaginary part:

              1        2        3      
    1    0.0667  -0.1436  -0.0315
    2    0.0811  -0.0527   0.2557
    3    0.1517  -0.4358  -0.0058

 ------------------------------------------
 average:         0.00938 + I       0.00274

 Principal components and PAS (Real part)
                 -3.07955
                  2.84155
                  0.26613
 ------------------------
 average:         0.00938

              1        2        3      
    1    0.0027   0.9678  -0.2518
    2    0.7675  -0.1634  -0.6198
    3    0.6410   0.1915   0.7432

 Chiral response tensor (Real part):

              1        2        3      
    1   -1.3251   0.2072  -0.2357
    2    0.2072   0.8321   0.8633
    3   -0.2357   0.8633   0.5211
 
 Principal components and PAS (Real part)
                  1.55384
                 -1.40671
                 -0.11900
 ------------------------
 average:         0.00938

              1        2        3      
    1    0.0027   0.9678  -0.2518
    2    0.7675  -0.1634  -0.6198
    3    0.6410   0.1915   0.7432
 Exiting AOResponse driver routine

 Task  times  cpu:      625.9s     wall:      641.7s
 
 
                                NWChem Input Module
                                -------------------
 
 
 Summary of allocated global arrays
-----------------------------------
  No active global arrays



                         GA Statistics for process    0
                         ------------------------------

       create   destroy   get      put      acc     scatter   gather  read&inc
calls: 3294     3294     7.62e+06 3.14e+06 7.83e+05 2694        0     1142     
number of processes/call 1.01e+00 1.03e+00 1.44e+00 0.00e+00 0.00e+00
bytes total:             1.77e+09 1.26e+08 1.86e+09 1.84e+02 0.00e+00 9.14e+03
bytes remote:            7.63e+08 3.29e+07 1.10e+09 0.00e+00 0.00e+00 0.00e+00
Max memory consumed for GA by this process: 11242192 bytes
 
MA_summarize_allocated_blocks: starting scan ...
MA_summarize_allocated_blocks: scan completed: 0 heap blocks, 0 stack blocks
MA usage statistics:

	allocation statistics:
					      heap	     stack
					      ----	     -----
	current number of blocks	         0	         0
	maximum number of blocks	        24	        52
	current total bytes		         0	         0
	maximum total bytes		   7519856	  48926248
	maximum total K-bytes		      7520	     48927
	maximum total M-bytes		         8	        49
 
 
                                     CITATION
                                     --------
                Please cite the following reference when publishing
                           results obtained with NWChem:
 
                 M. Valiev, E.J. Bylaska, N. Govind, K. Kowalski,
              T.P. Straatsma, H.J.J. van Dam, D. Wang, J. Nieplocha,
                        E. Apra, T.L. Windus, W.A. de Jong
                 "NWChem: a comprehensive and scalable open-source
                  solution for large scale molecular simulations"
                      Comput. Phys. Commun. 181, 1477 (2010)
                           doi:10.1016/j.cpc.2010.04.018
 
                                      AUTHORS
                                      -------
          E. Apra, E. J. Bylaska, W. A. de Jong, N. Govind, K. Kowalski,
       T. P. Straatsma, M. Valiev, H. J. J. van Dam, D. Wang, T. L. Windus,
        J. Hammond, J. Autschbach, K. Bhaskaran-Nair, J. Brabec, K. Lopata,
    S. A. Fischer, S. Krishnamoorthy, M. Jacquelin, W. Ma, M. Klemm, O. Villa,
      Y. Chen, V. Anisimov, F. Aquino, S. Hirata, M. T. Hackler, V. Konjkov,
            D. Mejia-Rodriguez, T. Risthaus, M. Malagoli, A. Marenich,
   A. Otero-de-la-Roza, J. Mullin, P. Nichols, R. Peverati, J. Pittner, Y. Zhao,
        P.-D. Fan, A. Fonari, M. J. Williamson, R. J. Harrison, J. R. Rehr,
      M. Dupuis, D. Silverstein, D. M. A. Smith, J. Nieplocha, V. Tipparaju,
    M. Krishnan, B. E. Van Kuiken, A. Vazquez-Mayagoitia, L. Jensen, M. Swart,
      Q. Wu, T. Van Voorhis, A. A. Auer, M. Nooijen, L. D. Crosby, E. Brown,
      G. Cisneros, G. I. Fann, H. Fruchtl, J. Garza, K. Hirao, R. A. Kendall,
      J. A. Nichols, K. Tsemekhman, K. Wolinski, J. Anchell, D. E. Bernholdt,
      P. Borowski, T. Clark, D. Clerc, H. Dachsel, M. J. O. Deegan, K. Dyall,
    D. Elwood, E. Glendening, M. Gutowski, A. C. Hess, J. Jaffe, B. G. Johnson,
     J. Ju, R. Kobayashi, R. Kutteh, Z. Lin, R. Littlefield, X. Long, B. Meng,
      T. Nakajima, S. Niu, L. Pollack, M. Rosing, K. Glaesemann, G. Sandrone,
      M. Stave, H. Taylor, G. Thomas, J. H. van Lenthe, A. T. Wong, Z. Zhang.

 Total times  cpu:      699.8s     wall:      717.2s
