 argument  1 = methyloxirane_blyp-def2-tzvp_488.9_14.inp
 


============================== echo of input deck ==============================
echo
start methyloxirane_blyp-def2-tzvp_488.9_14.inp
title "methyloxirane roa calculations at 488.9 nm, input generated in va  with delta_type=2"
charge 0



geometry units angstrom nocenter noautoz noautosym nucleus point;symmetry c1
 O -0.879495 -0.180817  0.205426
 C  0.576413 -0.159763  0.121257
 C -0.185993  1.089188  0.340534
 C  1.186519 -0.520358 -1.215631
 H  1.049459 -0.597575  1.007264
 H -0.228289  1.543956  1.334050
 H -0.323776  1.787066 -0.490339
 H  2.242173 -0.213028 -1.224799
 H  1.135629 -1.608650 -1.356823
 H  0.638225 -0.021646 -2.023792
end

basis spherical
* library def2-TZVP
end

 set prop:newaoresp 1
 set aor:roadata T
 set cphf:maxsub 100
 set cphf:acc 1.0d-10
 set cphf:maxiter 100

property
    response 1   0.093196
    bdtensor
    convergence 1e-7
    damping 0.0037
    giao
end

dft
 direct
 mult 1
 xc becke88 lyp
 iterations 250
 tolerances tight
 grid xfine
 convergence nolevelshifting
 convergence energy 1e-8
 convergence gradient 1e-7


end

task dft gradient
task dft property
================================================================================


                                         
                                         
 
 
              Northwest Computational Chemistry Package (NWChem) 6.8
              ------------------------------------------------------
 
 
                    Environmental Molecular Sciences Laboratory
                       Pacific Northwest National Laboratory
                                Richland, WA 99352
 
                              Copyright (c) 1994-2017
                       Pacific Northwest National Laboratory
                            Battelle Memorial Institute
 
             NWChem is an open-source computational chemistry package
                        distributed under the terms of the
                      Educational Community License (ECL) 2.0
             A copy of the license is included with this distribution
                              in the LICENSE.TXT file
 
                                  ACKNOWLEDGMENT
                                  --------------

            This software and its documentation were developed at the
            EMSL at Pacific Northwest National Laboratory, a multiprogram
            national laboratory, operated for the U.S. Department of Energy
            by Battelle under Contract Number DE-AC05-76RL01830. Support
            for this work was provided by the Department of Energy Office
            of Biological and Environmental Research, Office of Basic
            Energy Sciences, and the Office of Advanced Scientific Computing.


           Job information
           ---------------

    hostname        = cpn-f11-19-01.cbls.ccr.buffalo.edu
    program         = /util/academic/nwchem/nwchem-6.8/bin/LINUX64/nwchem
    date            = Fri Mar  1 10:06:05 2019

    compiled        = Tue_Nov_06_14:59:08_2018
    source          = /util/academic/nwchem/nwchem-6.8
    nwchem branch   = 6.8
    nwchem revision = v6.8-47-gdf6c956
    ga revision     = ga-5.6.3
    use scalapack   = F
    input           = methyloxirane_blyp-def2-tzvp_488.9_14.inp
    prefix          = methyloxirane_blyp-def2-tzvp_488.9_14.inp.
    data base       = ./methyloxirane_blyp-def2-tzvp_488.9_14.inp.db
    status          = startup
    nproc           =        7
    time left       =     -1s



           Memory information
           ------------------

    heap     =   13107198 doubles =    100.0 Mbytes
    stack    =   13107195 doubles =    100.0 Mbytes
    global   =   26214400 doubles =    200.0 Mbytes (distinct from heap & stack)
    total    =   52428793 doubles =    400.0 Mbytes
    verify   = yes
    hardfail = no 


           Directory information
           ---------------------
 
  0 permanent = .
  0 scratch   = .
 
 
 
 
                                NWChem Input Module
                                -------------------
 
 
                    methyloxirane roa calculations at 488.9 nm, input generated in va  with delta_type=2
                    ------------------------------------------

 Scaling coordinates for geometry "geometry" by  1.889725989
 (inverse scale =  0.529177249)

 
 
                             Geometry "geometry" -> ""
                             -------------------------
 
 Output coordinates in angstroms (scale by  1.889725989 to convert to a.u.)
 
  No.       Tag          Charge          X              Y              Z
 ---- ---------------- ---------- -------------- -------------- --------------
    1 O                    8.0000    -0.87949500    -0.18081700     0.20542600
    2 C                    6.0000     0.57641300    -0.15976300     0.12125700
    3 C                    6.0000    -0.18599300     1.08918800     0.34053400
    4 C                    6.0000     1.18651900    -0.52035800    -1.21563100
    5 H                    1.0000     1.04945900    -0.59757500     1.00726400
    6 H                    1.0000    -0.22828900     1.54395600     1.33405000
    7 H                    1.0000    -0.32377600     1.78706600    -0.49033900
    8 H                    1.0000     2.24217300    -0.21302800    -1.22479900
    9 H                    1.0000     1.13562900    -1.60865000    -1.35682300
   10 H                    1.0000     0.63822500    -0.02164600    -2.02379200
 
      Atomic Mass 
      ----------- 
 
      O                 15.994910
      C                 12.000000
      H                  1.007825
 

 Effective nuclear repulsion energy (a.u.)     123.4507975613

            Nuclear Dipole moment (a.u.) 
            ----------------------------
        X                 Y               Z
 ---------------- ---------------- ----------------
    13.1129881587     3.5866791393   -10.6468503902
 
 
            XYZ format geometry
            -------------------
    10
 geometry
 O                    -0.87949500    -0.18081700     0.20542600
 C                     0.57641300    -0.15976300     0.12125700
 C                    -0.18599300     1.08918800     0.34053400
 C                     1.18651900    -0.52035800    -1.21563100
 H                     1.04945900    -0.59757500     1.00726400
 H                    -0.22828900     1.54395600     1.33405000
 H                    -0.32377600     1.78706600    -0.49033900
 H                     2.24217300    -0.21302800    -1.22479900
 H                     1.13562900    -1.60865000    -1.35682300
 H                     0.63822500    -0.02164600    -2.02379200
 
 ==============================================================================
                                internuclear distances
 ------------------------------------------------------------------------------
       center one      |      center two      | atomic units |  angstroms
 ------------------------------------------------------------------------------
    2 C                |   1 O                |     2.75615  |     1.45849
    3 C                |   1 O                |     2.74636  |     1.45331
    3 C                |   2 C                |     2.79604  |     1.47960
    4 C                |   2 C                |     2.85938  |     1.51312
    5 H                |   2 C                |     2.07049  |     1.09566
    6 H                |   3 C                |     2.06636  |     1.09347
    7 H                |   3 C                |     2.06696  |     1.09379
    8 H                |   4 C                |     2.07779  |     1.09952
    9 H                |   4 C                |     2.07604  |     1.09859
   10 H                |   4 C                |     2.07222  |     1.09657
 ------------------------------------------------------------------------------
                         number of included internuclear distances:         10
 ==============================================================================



 ==============================================================================
                                 internuclear angles
 ------------------------------------------------------------------------------
        center 1       |       center 2       |       center 3       |  degrees
 ------------------------------------------------------------------------------
    2 C                |   1 O                |   3 C                |    61.08
    2 C                |   1 O                |   3 C                |    61.08
    1 O                |   2 C                |   4 C                |   116.75
    1 O                |   2 C                |   5 H                |   112.24
    3 C                |   2 C                |   4 C                |   122.67
    3 C                |   2 C                |   5 H                |   116.10
    4 C                |   2 C                |   5 H                |   116.43
    3 C                |   1 O                |   2 C                |    61.08
    1 O                |   3 C                |   6 H                |   115.43
    1 O                |   3 C                |   7 H                |   115.27
    2 C                |   3 C                |   6 H                |   120.37
    2 C                |   3 C                |   7 H                |   119.40
    6 H                |   3 C                |   7 H                |   114.83
    2 C                |   4 C                |   8 H                |   109.14
    2 C                |   4 C                |   9 H                |   109.33
    2 C                |   4 C                |  10 H                |   109.95
    8 H                |   4 C                |   9 H                |   108.68
    8 H                |   4 C                |  10 H                |   110.29
    9 H                |   4 C                |  10 H                |   109.43
 ------------------------------------------------------------------------------
                            number of included internuclear angles:         19
 ==============================================================================



  warning:::::::::::::: from_environment
  NWCHEM_BASIS_LIBRARY set to: <
 /util/academic/nwchem/nwchem-6.8/src/basis/libraries>
  but file does not exist !
  using .nwchemrc or compiled library


 Summary of "ao basis" -> "" (spherical)
 ------------------------------------------------------------------------------
       Tag                 Description            Shells   Functions and Types
 ---------------- ------------------------------  ------  ---------------------
 *                         def2-TZVP                  on all atoms 


 
                                 NWChem DFT Module
                                 -----------------
 
 
                    methyloxirane roa calculations at 488.9 nm, input generated in va  with delta_type=2
 
 
                      Basis "ao basis" -> "ao basis" (spherical)
                      -----
  O (Oxygen)
  ----------
            Exponent  Coefficients 
       -------------- ---------------------------------------------------------
  1 S  2.70323826E+04  0.000217
  1 S  4.05238714E+03  0.001684
  1 S  9.22327227E+02  0.008740
  1 S  2.61240710E+02  0.035240
  1 S  8.53546414E+01  0.111535
  1 S  3.10350352E+01  0.255890
 
  2 S  1.22608607E+01  0.397687
  2 S  4.99870760E+00  0.246278
 
  3 S  1.17031082E+00  1.000000
 
  4 S  4.64747410E-01  1.000000
 
  5 S  1.85045364E-01  1.000000
 
  6 P  6.32749548E+01  0.006069
  6 P  1.46270494E+01  0.041913
  6 P  4.45012235E+00  0.161538
  6 P  1.52757996E+00  0.357070
 
  7 P  5.29351179E-01  1.000000
 
  8 P  1.74784213E-01  1.000000
 
  9 D  2.31400000E+00  1.000000
 
 10 D  6.45000000E-01  1.000000
 
 11 F  1.42800000E+00  1.000000
 
  C (Carbon)
  ----------
            Exponent  Coefficients 
       -------------- ---------------------------------------------------------
  1 S  1.35753497E+04  0.000222
  1 S  2.03523337E+03  0.001723
  1 S  4.63225624E+02  0.008926
  1 S  1.31200196E+02  0.035728
  1 S  4.28530159E+01  0.110763
  1 S  1.55841858E+01  0.242956
 
  2 S  6.20671385E+00  0.414403
  2 S  2.57648965E+00  0.237450
 
  3 S  5.76963394E-01  1.000000
 
  4 S  2.29728314E-01  1.000000
 
  5 S  9.51644400E-02  1.000000
 
  6 P  3.46972322E+01  0.005333
  6 P  7.95826228E+00  0.035864
  6 P  2.37808269E+00  0.142159
  6 P  8.14332082E-01  0.342705
 
  7 P  2.88875473E-01  1.000000
 
  8 P  1.00568237E-01  1.000000
 
  9 D  1.09700000E+00  1.000000
 
 10 D  3.18000000E-01  1.000000
 
 11 F  7.61000000E-01  1.000000
 
  H (Hydrogen)
  ------------
            Exponent  Coefficients 
       -------------- ---------------------------------------------------------
  1 S  3.40613410E+01  0.006025
  1 S  5.12357460E+00  0.045021
  1 S  1.16466260E+00  0.201897
 
  2 S  3.27230410E-01  1.000000
 
  3 S  1.03072410E-01  1.000000
 
  4 P  8.00000000E-01  1.000000
 


 Summary of "ao basis" -> "ao basis" (spherical)
 ------------------------------------------------------------------------------
       Tag                 Description            Shells   Functions and Types
 ---------------- ------------------------------  ------  ---------------------
 O                         def2-TZVP                11       31   5s3p2d1f
 C                         def2-TZVP                11       31   5s3p2d1f
 H                         def2-TZVP                 4        6   3s1p




 Summary of "ao basis" -> "ao basis" (spherical)
 ------------------------------------------------------------------------------
       Tag                 Description            Shells   Functions and Types
 ---------------- ------------------------------  ------  ---------------------
 O                         def2-TZVP                11       31   5s3p2d1f
 C                         def2-TZVP                11       31   5s3p2d1f
 H                         def2-TZVP                 4        6   3s1p


  Caching 1-el integrals 
  itol2e modified to match energy
  convergence criterion.
  tol_rho modified to match energy
  convergence criterion.
 
            General Information
            -------------------
          SCF calculation type: DFT
          Wavefunction type:  closed shell.
          No. of atoms     :    10
          No. of electrons :    32
           Alpha electrons :    16
            Beta electrons :    16
          Charge           :     0
          Spin multiplicity:     1
          Use of symmetry is: off; symmetry adaption is: off
          Maximum number of iterations: 250
          This is a Direct SCF calculation.
          AO basis - number of functions:   160
                     number of shells:    68
          Convergence on energy requested:  1.00D-08
          Convergence on density requested:  1.00D-05
          Convergence on gradient requested:  1.00D-07
 
              XC Information
              --------------
                    Becke 1988 Exchange Functional  1.000          
              Lee-Yang-Parr Correlation Functional  1.000          
 
             Grid Information
             ----------------
          Grid used for XC integration:  xfine     
          Radial quadrature: Mura-Knowles        
          Angular quadrature: Lebedev. 
          Tag              B.-S. Rad. Rad. Pts. Rad. Cut. Ang. Pts.
          ---              ---------- --------- --------- ---------
          O                   0.60      100          11.0      1454
          C                   0.70      100          11.0      1454
          H                   0.35      100          12.0      1202
          Grid pruning is: on 
          Number of quadrature shells:  1000
          Spatial weights used:  Erf1
 
          Convergence Information
          -----------------------
          Convergence aids based upon iterative change in 
          total energy or number of iterations. 
          Levelshifting, if invoked, occurs when the 
          HOMO/LUMO gap drops below (HL_TOL):  1.00D-02
          DIIS, if invoked, will attempt to extrapolate 
          using up to (NFOCK): 10 stored Fock matrices.

                    Damping( 0%)  Levelshifting(0.0)       DIIS
                  --------------- ------------------- ---------------
          dE  on:    start             N/A                start   
          dE off:    2 iters           N/A              250 iters 

 
      Screening Tolerance Information
      -------------------------------
          Density screening/tol_rho:  1.00D-11
          AO Gaussian exp screening on grid/accAOfunc:  18
          CD Gaussian exp screening on grid/accCDfunc:  20
          XC Gaussian exp screening on grid/accXCfunc:  20
          Schwarz screening/accCoul:  1.00D-09

 
      Superposition of Atomic Density Guess
      -------------------------------------
 
 Sum of atomic energies:        -190.79714706
 
      Non-variational initial energy
      ------------------------------

 Total energy =    -193.148445
 1-e energy   =    -501.873152
 2-e energy   =     185.273910
 HOMO         =      -0.350183
 LUMO         =       0.089978
 
   Time after variat. SCF:      0.6
   Time prior to 1st pass:      0.6

 Grid_pts file          = ./methyloxirane_blyp-def2-tzvp_488.9_14.inp.gridpts.0
 Record size in doubles =  12289        No. of grid_pts per rec  =   3070
 Max. records in memory =     76        Max. recs in file   =    554542


           Memory utilization after 1st SCF pass: 
           Heap Space remaining (MW):       12.17            12167542
          Stack Space remaining (MW):       13.11            13106116

   convergence    iter        energy       DeltaE   RMS-Dens  Diis-err    time
 ---------------- ----- ----------------- --------- --------- ---------  ------
 d= 0,ls=0.0,diis     1   -193.0197536331 -3.16D+02  9.26D-03  1.06D+00     6.9
 d= 0,ls=0.0,diis     2   -192.8546894904  1.65D-01  7.68D-03  2.59D+00    13.0
 d= 0,ls=0.0,diis     3   -193.0770348778 -2.22D-01  1.81D-03  3.85D-01    19.0
 d= 0,ls=0.0,diis     4   -193.1071071606 -3.01D-02  6.81D-04  1.79D-02    25.0
 d= 0,ls=0.0,diis     5   -193.1087460933 -1.64D-03  2.94D-04  2.74D-03    31.0
 d= 0,ls=0.0,diis     6   -193.1090869652 -3.41D-04  3.04D-05  3.73D-05    37.0
 d= 0,ls=0.0,diis     7   -193.1090913029 -4.34D-06  8.78D-06  5.01D-06    43.0
 d= 0,ls=0.0,diis     8   -193.1090918555 -5.53D-07  2.34D-06  3.40D-07    49.0
 d= 0,ls=0.0,diis     9   -193.1090918919 -3.65D-08  7.54D-07  2.36D-08    55.0
 d= 0,ls=0.0,diis    10   -193.1090918945 -2.59D-09  2.29D-07  3.60D-09    61.0


         Total DFT energy =     -193.109091894540
      One electron energy =     -505.528155941460
           Coulomb energy =      215.985916981666
    Exchange-Corr. energy =      -27.017650496071
 Nuclear repulsion energy =      123.450797561325

 Numeric. integr. density =       31.999999943092

     Total iterative time =     60.3s


 
                       DFT Final Molecular Orbital Analysis
                       ------------------------------------
 
 Vector    1  Occ=2.000000D+00  E=-1.877938D+01
              MO Center= -8.8D-01, -1.8D-01,  2.1D-01, r^2= 1.5D-02
   Bfn.  Coefficient  Atom+Function         Bfn.  Coefficient  Atom+Function  
  ----- ------------  ---------------      ----- ------------  ---------------
     2      0.638480   1 O  s                 1      0.435422   1 O  s         
     3      0.039855   1 O  s                 4     -0.033130   1 O  s         
 
 Vector    2  Occ=2.000000D+00  E=-9.963045D+00
              MO Center=  5.8D-01, -1.6D-01,  1.2D-01, r^2= 2.8D-02
   Bfn.  Coefficient  Atom+Function         Bfn.  Coefficient  Atom+Function  
  ----- ------------  ---------------      ----- ------------  ---------------
    33      0.606928   2 C  s                32      0.467265   2 C  s         
    34      0.042531   2 C  s                36      0.037270   2 C  s         
    35     -0.027748   2 C  s         
 
 Vector    3  Occ=2.000000D+00  E=-9.955407D+00
              MO Center= -1.9D-01,  1.1D+00,  3.4D-01, r^2= 2.8D-02
   Bfn.  Coefficient  Atom+Function         Bfn.  Coefficient  Atom+Function  
  ----- ------------  ---------------      ----- ------------  ---------------
    64      0.607036   3 C  s                63      0.467229   3 C  s         
    65      0.039774   3 C  s         
 
 Vector    4  Occ=2.000000D+00  E=-9.908724D+00
              MO Center=  1.2D+00, -5.2D-01, -1.2D+00, r^2= 2.8D-02
   Bfn.  Coefficient  Atom+Function         Bfn.  Coefficient  Atom+Function  
  ----- ------------  ---------------      ----- ------------  ---------------
    95      0.606967   4 C  s                94      0.467215   4 C  s         
    96      0.040560   4 C  s                98      0.035756   4 C  s         
 
 Vector    5  Occ=2.000000D+00  E=-9.607757D-01
              MO Center= -4.7D-01,  5.5D-02,  2.1D-01, r^2= 6.5D-01
   Bfn.  Coefficient  Atom+Function         Bfn.  Coefficient  Atom+Function  
  ----- ------------  ---------------      ----- ------------  ---------------
     4      0.375663   1 O  s                 3      0.277812   1 O  s         
     2     -0.193005   1 O  s                34      0.139322   2 C  s         
    65      0.138807   3 C  s                 5      0.123043   1 O  s         
    35      0.105132   2 C  s                66      0.093580   3 C  s         
     6      0.092913   1 O  px               69     -0.091012   3 C  py        
 
 Vector    6  Occ=2.000000D+00  E=-6.701983D-01
              MO Center=  9.4D-01, -3.9D-01, -7.7D-01, r^2= 1.5D+00
   Bfn.  Coefficient  Atom+Function         Bfn.  Coefficient  Atom+Function  
  ----- ------------  ---------------      ----- ------------  ---------------
    97      0.285464   4 C  s                96      0.276546   4 C  s         
    35      0.184915   2 C  s                34      0.173957   2 C  s         
    95     -0.174111   4 C  s                 4     -0.147006   1 O  s         
    33     -0.108703   2 C  s                 3     -0.102892   1 O  s         
    94     -0.083423   4 C  s                 5     -0.072703   1 O  s         
 
 Vector    7  Occ=2.000000D+00  E=-5.892680D-01
              MO Center= -1.3D-01,  7.3D-01,  2.2D-01, r^2= 1.9D+00
   Bfn.  Coefficient  Atom+Function         Bfn.  Coefficient  Atom+Function  
  ----- ------------  ---------------      ----- ------------  ---------------
    66      0.326515   3 C  s                65      0.278526   3 C  s         
     4     -0.237563   1 O  s                64     -0.172161   3 C  s         
     3     -0.167889   1 O  s                 5     -0.147688   1 O  s         
     2      0.110830   1 O  s                38      0.103836   2 C  py        
   132      0.103064   6 H  s                97     -0.098635   4 C  s         
 
 Vector    8  Occ=2.000000D+00  E=-5.291476D-01
              MO Center=  4.0D-01,  2.0D-02, -7.8D-02, r^2= 2.7D+00
   Bfn.  Coefficient  Atom+Function         Bfn.  Coefficient  Atom+Function  
  ----- ------------  ---------------      ----- ------------  ---------------
    35      0.302539   2 C  s                34      0.225063   2 C  s         
    97     -0.155769   4 C  s                66     -0.151770   3 C  s         
    33     -0.138438   2 C  s               126      0.134492   5 H  s         
    96     -0.128868   4 C  s                 6      0.107550   1 O  px        
   125      0.107257   5 H  s                39      0.100510   2 C  pz        
 
 Vector    9  Occ=2.000000D+00  E=-4.470086D-01
              MO Center=  1.2D-01,  2.7D-01,  2.3D-01, r^2= 2.5D+00
   Bfn.  Coefficient  Atom+Function         Bfn.  Coefficient  Atom+Function  
  ----- ------------  ---------------      ----- ------------  ---------------
    70      0.206870   3 C  pz               39      0.153037   2 C  pz        
   132      0.144055   6 H  s                73      0.130152   3 C  pz        
     8      0.125386   1 O  pz              126      0.115088   5 H  s         
     6     -0.112876   1 O  px               38     -0.107979   2 C  py        
   131      0.106806   6 H  s                37      0.105686   2 C  px        
 
 Vector   10  Occ=2.000000D+00  E=-4.116022D-01
              MO Center=  5.3D-02,  2.9D-01, -2.4D-01, r^2= 2.6D+00
   Bfn.  Coefficient  Atom+Function         Bfn.  Coefficient  Atom+Function  
  ----- ------------  ---------------      ----- ------------  ---------------
    69      0.215086   3 C  py              138      0.155586   7 H  s         
   101      0.153912   4 C  pz               38     -0.138889   2 C  py        
     6     -0.138148   1 O  px                7     -0.126461   1 O  py        
    37      0.123890   2 C  px               72      0.122176   3 C  py        
    70     -0.120043   3 C  pz              137      0.112806   7 H  s         
 
 Vector   11  Occ=2.000000D+00  E=-3.783630D-01
              MO Center=  9.3D-01, -3.2D-01, -7.7D-01, r^2= 2.6D+00
   Bfn.  Coefficient  Atom+Function         Bfn.  Coefficient  Atom+Function  
  ----- ------------  ---------------      ----- ------------  ---------------
    99      0.213247   4 C  px              144      0.189332   8 H  s         
   100      0.164445   4 C  py              150     -0.141561   9 H  s         
   102      0.135556   4 C  px              143      0.132000   8 H  s         
    37      0.125132   2 C  px                6     -0.114303   1 O  px        
     7      0.109114   1 O  py              103      0.108047   4 C  py        
 
 Vector   12  Occ=2.000000D+00  E=-3.573528D-01
              MO Center=  6.1D-01, -3.6D-01, -9.0D-01, r^2= 2.8D+00
   Bfn.  Coefficient  Atom+Function         Bfn.  Coefficient  Atom+Function  
  ----- ------------  ---------------      ----- ------------  ---------------
   100      0.256442   4 C  py              150     -0.187442   9 H  s         
   156      0.181297  10 H  s               103      0.164989   4 C  py        
     7     -0.163920   1 O  py               10     -0.131107   1 O  py        
   149     -0.130159   9 H  s               155      0.127863  10 H  s         
    70      0.113284   3 C  pz              106      0.102137   4 C  py        
 
 Vector   13  Occ=2.000000D+00  E=-3.281834D-01
              MO Center=  3.5D-01,  2.5D-01, -2.3D-01, r^2= 2.8D+00
   Bfn.  Coefficient  Atom+Function         Bfn.  Coefficient  Atom+Function  
  ----- ------------  ---------------      ----- ------------  ---------------
    39      0.220230   2 C  pz              101     -0.198084   4 C  pz        
    70     -0.173398   3 C  pz              138      0.162363   7 H  s         
     7     -0.160143   1 O  py               42      0.149633   2 C  pz        
   104     -0.139385   4 C  pz               10     -0.129114   1 O  py        
    99      0.127960   4 C  px              137      0.109246   7 H  s         
 
 Vector   14  Occ=2.000000D+00  E=-3.218840D-01
              MO Center=  3.4D-01, -4.0D-02, -1.7D-01, r^2= 3.0D+00
   Bfn.  Coefficient  Atom+Function         Bfn.  Coefficient  Atom+Function  
  ----- ------------  ---------------      ----- ------------  ---------------
     7      0.214126   1 O  py               10      0.175494   1 O  py        
   126      0.161556   5 H  s                 6     -0.153915   1 O  px        
    99     -0.153357   4 C  px              156      0.144313  10 H  s         
    37      0.139032   2 C  px              144     -0.130334   8 H  s         
     9     -0.126188   1 O  px               39      0.126686   2 C  pz        
 
 Vector   15  Occ=2.000000D+00  E=-2.624179D-01
              MO Center=  1.3D-02,  1.5D-01,  4.2D-02, r^2= 2.3D+00
   Bfn.  Coefficient  Atom+Function         Bfn.  Coefficient  Atom+Function  
  ----- ------------  ---------------      ----- ------------  ---------------
    68      0.265266   3 C  px               38      0.257199   2 C  py        
     6     -0.236478   1 O  px               41      0.200322   2 C  py        
    71      0.197755   3 C  px                9     -0.184953   1 O  px        
    12     -0.157106   1 O  px              150      0.113685   9 H  s         
   100     -0.109839   4 C  py               67      0.107512   3 C  s         
 
 Vector   16  Occ=2.000000D+00  E=-2.192802D-01
              MO Center= -5.8D-01, -2.5D-02,  2.0D-01, r^2= 1.6D+00
   Bfn.  Coefficient  Atom+Function         Bfn.  Coefficient  Atom+Function  
  ----- ------------  ---------------      ----- ------------  ---------------
     8      0.449022   1 O  pz               11      0.357494   1 O  pz        
    14      0.296748   1 O  pz              133     -0.130670   6 H  s         
   139      0.116753   7 H  s               132     -0.103818   6 H  s         
   138      0.103811   7 H  s               145     -0.102230   8 H  s         
   126     -0.096665   5 H  s                98      0.090916   4 C  s         
 
 Vector   17  Occ=0.000000D+00  E= 2.543209D-02
              MO Center=  1.2D+00, -8.5D-02, -5.8D-01, r^2= 7.2D+00
   Bfn.  Coefficient  Atom+Function         Bfn.  Coefficient  Atom+Function  
  ----- ------------  ---------------      ----- ------------  ---------------
    98      4.471079   4 C  s               145     -1.521037   8 H  s         
   151     -1.486020   9 H  s               157     -1.317201  10 H  s         
   127     -1.242767   5 H  s                45      1.147059   2 C  pz        
   139     -0.879161   7 H  s                67      0.669009   3 C  s         
   133     -0.604581   6 H  s                75      0.339170   3 C  py        
 
 Vector   18  Occ=0.000000D+00  E= 4.273495D-02
              MO Center= -1.3D-01,  6.5D-01,  1.0D-01, r^2= 4.5D+00
   Bfn.  Coefficient  Atom+Function         Bfn.  Coefficient  Atom+Function  
  ----- ------------  ---------------      ----- ------------  ---------------
    98      2.154478   4 C  s                36     -1.925514   2 C  s         
     5      1.265531   1 O  s                74      0.934921   3 C  px        
   151     -0.830550   9 H  s                45      0.513916   2 C  pz        
    13      0.439837   1 O  py              157     -0.426718  10 H  s         
    44     -0.408048   2 C  py               67      0.380511   3 C  s         
 
 Vector   19  Occ=0.000000D+00  E= 5.001084D-02
              MO Center=  3.4D-01,  5.6D-01, -1.4D-01, r^2= 6.5D+00
   Bfn.  Coefficient  Atom+Function         Bfn.  Coefficient  Atom+Function  
  ----- ------------  ---------------      ----- ------------  ---------------
    67      2.938254   3 C  s                36     -2.670691   2 C  s         
   127      1.692115   5 H  s               139     -1.649989   7 H  s         
   157     -0.792083  10 H  s                45     -0.578245   2 C  pz        
    44     -0.542391   2 C  py              145      0.530723   8 H  s         
    76     -0.478101   3 C  pz                5     -0.466208   1 O  s         
 
 Vector   20  Occ=0.000000D+00  E= 5.110799D-02
              MO Center=  6.0D-01,  5.0D-01,  4.6D-01, r^2= 7.6D+00
   Bfn.  Coefficient  Atom+Function         Bfn.  Coefficient  Atom+Function  
  ----- ------------  ---------------      ----- ------------  ---------------
    98      3.392229   4 C  s                67     -2.461928   3 C  s         
   133      1.835870   6 H  s               127      1.307349   5 H  s         
   157     -1.140381  10 H  s               145     -1.125829   8 H  s         
    36     -1.097460   2 C  s                44      1.037457   2 C  py        
   151     -0.707129   9 H  s                43     -0.665492   2 C  px        
 
 Vector   21  Occ=0.000000D+00  E= 6.488636D-02
              MO Center=  2.7D-01,  1.3D-01, -1.5D-01, r^2= 4.7D+00
   Bfn.  Coefficient  Atom+Function         Bfn.  Coefficient  Atom+Function  
  ----- ------------  ---------------      ----- ------------  ---------------
   139      1.233846   7 H  s                98      1.189049   4 C  s         
    67     -0.945994   3 C  s                 5     -0.908557   1 O  s         
   151     -0.909116   9 H  s                43     -0.861126   2 C  px        
    75     -0.581797   3 C  py              133      0.557816   6 H  s         
    12     -0.490969   1 O  px               35      0.387519   2 C  s         
 
 Vector   22  Occ=0.000000D+00  E= 8.598824D-02
              MO Center=  1.4D+00,  1.3D-01, -5.7D-01, r^2= 6.9D+00
   Bfn.  Coefficient  Atom+Function         Bfn.  Coefficient  Atom+Function  
  ----- ------------  ---------------      ----- ------------  ---------------
    36      2.696305   2 C  s               145      2.160144   8 H  s         
    67     -1.346612   3 C  s               157     -1.267343  10 H  s         
   127     -1.220953   5 H  s               105     -1.091457   4 C  px        
   133      1.088238   6 H  s               107     -1.058946   4 C  pz        
    98     -0.890594   4 C  s                75      0.709929   3 C  py        
 
 Vector   23  Occ=0.000000D+00  E= 9.059941D-02
              MO Center=  1.1D+00, -6.2D-01, -5.0D-01, r^2= 6.8D+00
   Bfn.  Coefficient  Atom+Function         Bfn.  Coefficient  Atom+Function  
  ----- ------------  ---------------      ----- ------------  ---------------
    36      2.798265   2 C  s               151      2.075187   9 H  s         
    98     -1.428827   4 C  s               145     -1.343330   8 H  s         
   106      1.134760   4 C  py               67     -1.067810   3 C  s         
   105      0.995783   4 C  px              133      0.996647   6 H  s         
   127     -0.913908   5 H  s               107     -0.807886   4 C  pz        
 
 Vector   24  Occ=0.000000D+00  E= 1.025509D-01
              MO Center=  4.2D-01,  4.6D-01, -1.1D+00, r^2= 6.8D+00
   Bfn.  Coefficient  Atom+Function         Bfn.  Coefficient  Atom+Function  
  ----- ------------  ---------------      ----- ------------  ---------------
   157      2.044460  10 H  s               133      1.586012   6 H  s         
    98     -1.528795   4 C  s               139     -1.505164   7 H  s         
   106     -1.441495   4 C  py              151     -1.337640   9 H  s         
    36      1.291354   2 C  s                76     -1.145023   3 C  pz        
   105      1.033611   4 C  px               45     -0.567842   2 C  pz        
 
 Vector   25  Occ=0.000000D+00  E= 1.382026D-01
              MO Center=  8.4D-01,  1.4D-01, -4.8D-01, r^2= 7.9D+00
   Bfn.  Coefficient  Atom+Function         Bfn.  Coefficient  Atom+Function  
  ----- ------------  ---------------      ----- ------------  ---------------
    36      4.426371   2 C  s                98     -3.611951   4 C  s         
    45     -3.426393   2 C  pz              127      2.728831   5 H  s         
    67     -2.536319   3 C  s                76      2.167273   3 C  pz        
   105      2.061807   4 C  px              133     -1.826047   6 H  s         
   139      1.719846   7 H  s               107     -1.600629   4 C  pz        
 
 Vector   26  Occ=0.000000D+00  E= 1.701003D-01
              MO Center=  4.6D-01,  5.7D-01, -1.3D-01, r^2= 7.2D+00
   Bfn.  Coefficient  Atom+Function         Bfn.  Coefficient  Atom+Function  
  ----- ------------  ---------------      ----- ------------  ---------------
    75      2.344735   3 C  py               67     -1.699236   3 C  s         
    36      1.673556   2 C  s               107      1.569113   4 C  pz        
   139     -1.115891   7 H  s               157      1.106560  10 H  s         
    74     -0.997657   3 C  px               44      0.819509   2 C  py        
   106     -0.700186   4 C  py               43     -0.657452   2 C  px        
 
 Vector   27  Occ=0.000000D+00  E= 1.958862D-01
              MO Center=  8.1D-01, -1.2D-01, -1.0D+00, r^2= 5.1D+00
   Bfn.  Coefficient  Atom+Function         Bfn.  Coefficient  Atom+Function  
  ----- ------------  ---------------      ----- ------------  ---------------
    67      2.971052   3 C  s                44     -2.504260   2 C  py        
   106      1.925335   4 C  py               36     -1.821939   2 C  s         
    43      0.952530   2 C  px              105      0.762166   4 C  px        
    74      0.697161   3 C  px               45     -0.682866   2 C  pz        
   150      0.633758   9 H  s               157     -0.610359  10 H  s         
 
 Vector   28  Occ=0.000000D+00  E= 2.010286D-01
              MO Center=  9.6D-01, -4.2D-01, -7.1D-01, r^2= 6.7D+00
   Bfn.  Coefficient  Atom+Function         Bfn.  Coefficient  Atom+Function  
  ----- ------------  ---------------      ----- ------------  ---------------
    36      2.589097   2 C  s                75      1.723727   3 C  py        
   105     -1.405490   4 C  px              133     -1.240144   6 H  s         
   107     -0.907962   4 C  pz              106      0.899549   4 C  py        
   139     -0.769005   7 H  s               156     -0.723216  10 H  s         
    76      0.689333   3 C  pz               45      0.672707   2 C  pz        
 
 Vector   29  Occ=0.000000D+00  E= 2.360379D-01
              MO Center= -2.3D-01,  3.1D-01, -1.1D-01, r^2= 5.4D+00
   Bfn.  Coefficient  Atom+Function         Bfn.  Coefficient  Atom+Function  
  ----- ------------  ---------------      ----- ------------  ---------------
    67      3.895761   3 C  s                36     -2.831655   2 C  s         
   139     -1.598473   7 H  s                66     -1.438431   3 C  s         
    98      1.378367   4 C  s               133     -1.217329   6 H  s         
   107      1.148047   4 C  pz               44      0.890058   2 C  py        
    74     -0.830978   3 C  px              106      0.740500   4 C  py        
 
 Vector   30  Occ=0.000000D+00  E= 2.460731D-01
              MO Center=  4.8D-01,  1.0D-01, -2.5D-02, r^2= 5.9D+00
   Bfn.  Coefficient  Atom+Function         Bfn.  Coefficient  Atom+Function  
  ----- ------------  ---------------      ----- ------------  ---------------
    67      6.317755   3 C  s                43      4.076742   2 C  px        
    75     -3.003427   3 C  py               44     -2.487058   2 C  py        
    36     -2.398961   2 C  s               107     -1.874558   4 C  pz        
   157     -1.743453  10 H  s                45     -1.359068   2 C  pz        
    98     -1.224134   4 C  s               105     -1.151800   4 C  px        
 
 Vector   31  Occ=0.000000D+00  E= 2.692681D-01
              MO Center=  2.4D-01, -2.1D-01,  2.5D-01, r^2= 5.6D+00
   Bfn.  Coefficient  Atom+Function         Bfn.  Coefficient  Atom+Function  
  ----- ------------  ---------------      ----- ------------  ---------------
    36      4.590132   2 C  s                 5     -2.357848   1 O  s         
    67      1.966398   3 C  s                43     -1.805600   2 C  px        
   105      1.540981   4 C  px               66     -1.173616   3 C  s         
    98     -1.125620   4 C  s               139     -0.983749   7 H  s         
   133     -0.902999   6 H  s               127     -0.839287   5 H  s         
 
 Vector   32  Occ=0.000000D+00  E= 2.777073D-01
              MO Center=  4.6D-01,  4.2D-01,  3.1D-01, r^2= 4.1D+00
   Bfn.  Coefficient  Atom+Function         Bfn.  Coefficient  Atom+Function  
  ----- ------------  ---------------      ----- ------------  ---------------
    36      2.114481   2 C  s                67     -1.748846   3 C  s         
     5     -1.534915   1 O  s                43     -1.041071   2 C  px        
    74     -0.748963   3 C  px               45     -0.665496   2 C  pz        
    98     -0.641611   4 C  s               145      0.599670   8 H  s         
    66      0.512220   3 C  s                 4      0.481388   1 O  s         
 
 Vector   33  Occ=0.000000D+00  E= 3.002692D-01
              MO Center=  4.1D-01,  3.7D-01, -3.8D-01, r^2= 4.9D+00
   Bfn.  Coefficient  Atom+Function         Bfn.  Coefficient  Atom+Function  
  ----- ------------  ---------------      ----- ------------  ---------------
    43      1.754085   2 C  px              106      1.662244   4 C  py        
   151      1.614903   9 H  s                98     -1.593445   4 C  s         
    76      1.377058   3 C  pz               36     -1.090877   2 C  s         
    44     -1.084058   2 C  py              107     -0.990111   4 C  pz        
    66      0.981411   3 C  s               139      0.918362   7 H  s         
 
 Vector   34  Occ=0.000000D+00  E= 3.370400D-01
              MO Center=  1.0D-01,  4.1D-01, -4.1D-01, r^2= 5.8D+00
   Bfn.  Coefficient  Atom+Function         Bfn.  Coefficient  Atom+Function  
  ----- ------------  ---------------      ----- ------------  ---------------
    67      4.273961   3 C  s                76     -3.930154   3 C  pz        
   139     -3.082721   7 H  s                36     -2.085007   2 C  s         
   133      2.004461   6 H  s               157     -1.768077  10 H  s         
   107     -1.720445   4 C  pz               98      1.664286   4 C  s         
    43      1.336575   2 C  px               44     -1.031068   2 C  py        
 
 Vector   35  Occ=0.000000D+00  E= 3.614877D-01
              MO Center=  7.9D-01, -1.8D-02, -3.7D-01, r^2= 6.9D+00
   Bfn.  Coefficient  Atom+Function         Bfn.  Coefficient  Atom+Function  
  ----- ------------  ---------------      ----- ------------  ---------------
    98      7.962842   4 C  s                76      3.269127   3 C  pz        
   145     -3.283746   8 H  s                97     -3.229112   4 C  s         
   133     -2.325955   6 H  s               151     -1.995057   9 H  s         
   139      1.680382   7 H  s                45     -1.502383   2 C  pz        
    44      1.473554   2 C  py              157     -1.399607  10 H  s         
 
 Vector   36  Occ=0.000000D+00  E= 3.715409D-01
              MO Center=  5.3D-01,  2.7D-01, -7.5D-02, r^2= 6.4D+00
   Bfn.  Coefficient  Atom+Function         Bfn.  Coefficient  Atom+Function  
  ----- ------------  ---------------      ----- ------------  ---------------
    36     12.737148   2 C  s                98     -8.757946   4 C  s         
    67     -8.451315   3 C  s               127     -3.033746   5 H  s         
    97      2.439524   4 C  s               157      2.279025  10 H  s         
    44      2.038943   2 C  py               35     -1.849125   2 C  s         
   151      1.740343   9 H  s                74     -1.613261   3 C  px        
 
 Vector   37  Occ=0.000000D+00  E= 3.841062D-01
              MO Center=  8.9D-01, -3.5D-01, -9.0D-02, r^2= 5.9D+00
   Bfn.  Coefficient  Atom+Function         Bfn.  Coefficient  Atom+Function  
  ----- ------------  ---------------      ----- ------------  ---------------
    36      6.168163   2 C  s               127     -4.196295   5 H  s         
    98      2.957971   4 C  s                45      2.666369   2 C  pz        
    35     -2.192701   2 C  s               151     -2.064363   9 H  s         
    67     -1.942306   3 C  s                76     -1.802030   3 C  pz        
   145     -1.804676   8 H  s                43      1.729298   2 C  px        
 
 Vector   38  Occ=0.000000D+00  E= 3.949306D-01
              MO Center=  2.2D-01,  2.1D-01, -6.1D-03, r^2= 6.6D+00
   Bfn.  Coefficient  Atom+Function         Bfn.  Coefficient  Atom+Function  
  ----- ------------  ---------------      ----- ------------  ---------------
    98     12.207045   4 C  s                67     -6.817105   3 C  s         
    45      5.348076   2 C  pz               76     -3.146244   3 C  pz        
   133      2.818675   6 H  s               157     -2.559798  10 H  s         
    44      2.514795   2 C  py               43     -1.991015   2 C  px        
    75      1.917896   3 C  py               97     -1.871301   4 C  s         
 
 Vector   39  Occ=0.000000D+00  E= 4.021202D-01
              MO Center= -2.6D-01,  1.8D-01,  1.8D-01, r^2= 6.5D+00
   Bfn.  Coefficient  Atom+Function         Bfn.  Coefficient  Atom+Function  
  ----- ------------  ---------------      ----- ------------  ---------------
    36     12.083496   2 C  s                67    -11.937947   3 C  s         
    98     -5.671398   4 C  s                45     -5.425619   2 C  pz        
    44      3.776147   2 C  py              127      2.936130   5 H  s         
    66      2.669733   3 C  s               105      2.450933   4 C  px        
   139      2.459393   7 H  s                43     -2.337011   2 C  px        
 
 Vector   40  Occ=0.000000D+00  E= 4.164050D-01
              MO Center=  8.4D-01, -4.4D-01, -8.7D-01, r^2= 5.7D+00
   Bfn.  Coefficient  Atom+Function         Bfn.  Coefficient  Atom+Function  
  ----- ------------  ---------------      ----- ------------  ---------------
    98      7.175123   4 C  s                36     -3.456754   2 C  s         
    45      3.059118   2 C  pz              105     -2.578874   4 C  px        
   151     -2.514620   9 H  s               157     -1.988296  10 H  s         
   145      1.800419   8 H  s                97     -1.160777   4 C  s         
   127     -0.973425   5 H  s               144     -0.977458   8 H  s         
 
 Vector   41  Occ=0.000000D+00  E= 4.271146D-01
              MO Center=  4.4D-01,  2.2D-01, -1.5D-01, r^2= 6.8D+00
   Bfn.  Coefficient  Atom+Function         Bfn.  Coefficient  Atom+Function  
  ----- ------------  ---------------      ----- ------------  ---------------
    36      8.916651   2 C  s                67     -4.487901   3 C  s         
    98     -3.750040   4 C  s                44      2.503993   2 C  py        
    75      2.470102   3 C  py              151      2.312367   9 H  s         
    43     -1.622506   2 C  px               74     -1.407093   3 C  px        
    45     -1.323255   2 C  pz              132      1.323003   6 H  s         
 
 Vector   42  Occ=0.000000D+00  E= 4.476778D-01
              MO Center=  8.2D-02, -6.9D-02, -1.8D-01, r^2= 6.1D+00
   Bfn.  Coefficient  Atom+Function         Bfn.  Coefficient  Atom+Function  
  ----- ------------  ---------------      ----- ------------  ---------------
    36     10.225888   2 C  s                98     -9.643117   4 C  s         
    45     -5.818245   2 C  pz               67     -3.023806   3 C  s         
   127      2.888894   5 H  s                76      2.650610   3 C  pz        
    44      2.232054   2 C  py              157      2.239206  10 H  s         
   106     -2.056207   4 C  py              133     -2.054474   6 H  s         
 
 Vector   43  Occ=0.000000D+00  E= 4.595468D-01
              MO Center=  7.2D-02,  8.1D-01, -5.2D-01, r^2= 5.1D+00
   Bfn.  Coefficient  Atom+Function         Bfn.  Coefficient  Atom+Function  
  ----- ------------  ---------------      ----- ------------  ---------------
   139      3.178568   7 H  s               157     -2.373296  10 H  s         
   107     -2.251215   4 C  pz               75     -2.179883   3 C  py        
    45     -1.680781   2 C  pz               43      1.600649   2 C  px        
    44     -1.602680   2 C  py              138     -1.450742   7 H  s         
    76      1.027172   3 C  pz               98     -0.855209   4 C  s         
 
 Vector   44  Occ=0.000000D+00  E= 4.681268D-01
              MO Center=  5.0D-01,  1.6D-01, -2.2D-02, r^2= 5.7D+00
   Bfn.  Coefficient  Atom+Function         Bfn.  Coefficient  Atom+Function  
  ----- ------------  ---------------      ----- ------------  ---------------
    98     -5.025798   4 C  s                36      4.640207   2 C  s         
    45     -2.197905   2 C  pz              107     -1.738162   4 C  pz        
   145      1.718605   8 H  s               133      1.535830   6 H  s         
    67     -1.382886   3 C  s                35     -1.240860   2 C  s         
   157     -1.153620  10 H  s               132     -1.126226   6 H  s         
 
 Vector   45  Occ=0.000000D+00  E= 5.046662D-01
              MO Center=  8.9D-01, -3.9D-01, -9.2D-01, r^2= 4.8D+00
   Bfn.  Coefficient  Atom+Function         Bfn.  Coefficient  Atom+Function  
  ----- ------------  ---------------      ----- ------------  ---------------
    98     11.362109   4 C  s                36     -7.171731   2 C  s         
    45      4.510493   2 C  pz              107      3.078058   4 C  pz        
   144     -1.339275   8 H  s               106      1.301953   4 C  py        
   156     -1.176078  10 H  s               127     -1.148408   5 H  s         
   150     -1.092936   9 H  s               105     -1.043833   4 C  px        
 
 Vector   46  Occ=0.000000D+00  E= 5.339825D-01
              MO Center=  1.0D-01, -3.9D-01, -4.7D-01, r^2= 4.4D+00
   Bfn.  Coefficient  Atom+Function         Bfn.  Coefficient  Atom+Function  
  ----- ------------  ---------------      ----- ------------  ---------------
    98     -7.010429   4 C  s                36      6.539215   2 C  s         
    45     -3.506819   2 C  pz               76      3.150843   3 C  pz        
   133     -1.767051   6 H  s               107     -1.484764   4 C  pz        
   105      1.467021   4 C  px              139      1.422786   7 H  s         
    14     -1.164755   1 O  pz                5     -1.094237   1 O  s         
 
 Vector   47  Occ=0.000000D+00  E= 6.577026D-01
              MO Center= -3.7D-01,  2.9D-02, -1.2D-02, r^2= 4.3D+00
   Bfn.  Coefficient  Atom+Function         Bfn.  Coefficient  Atom+Function  
  ----- ------------  ---------------      ----- ------------  ---------------
    36     11.460949   2 C  s                67     -8.850264   3 C  s         
    98     -3.937718   4 C  s                43     -2.577767   2 C  px        
    75      2.401385   3 C  py               13      2.194061   1 O  py        
    76      2.046702   3 C  pz              105      1.558491   4 C  px        
   139      1.497264   7 H  s                44      1.479416   2 C  py        
 
 Vector   48  Occ=0.000000D+00  E= 6.741256D-01
              MO Center= -3.1D-01,  3.5D-01,  1.3D-01, r^2= 3.9D+00
   Bfn.  Coefficient  Atom+Function         Bfn.  Coefficient  Atom+Function  
  ----- ------------  ---------------      ----- ------------  ---------------
    36      8.292449   2 C  s                67     -8.105328   3 C  s         
     5      2.958955   1 O  s                75      2.648225   3 C  py        
    13      2.148274   1 O  py               98     -2.120017   4 C  s         
    43     -1.338797   2 C  px               45     -1.176643   2 C  pz        
     4     -1.097769   1 O  s                44      1.075945   2 C  py        
 
 Vector   49  Occ=0.000000D+00  E= 7.093952D-01
              MO Center=  1.6D-01, -3.0D-01, -2.4D-01, r^2= 4.5D+00
   Bfn.  Coefficient  Atom+Function         Bfn.  Coefficient  Atom+Function  
  ----- ------------  ---------------      ----- ------------  ---------------
    67      9.146857   3 C  s                36     -6.999569   2 C  s         
    43      3.630727   2 C  px               44     -3.360722   2 C  py        
    75     -2.629495   3 C  py               98     -2.513445   4 C  s         
     5      2.302460   1 O  s                12      1.669686   1 O  px        
   106      1.609956   4 C  py               13     -1.285685   1 O  py        
 
 Vector   50  Occ=0.000000D+00  E= 7.638553D-01
              MO Center=  6.3D-01, -3.5D-02, -3.6D-01, r^2= 4.1D+00
   Bfn.  Coefficient  Atom+Function         Bfn.  Coefficient  Atom+Function  
  ----- ------------  ---------------      ----- ------------  ---------------
    45      2.493456   2 C  pz                5     -1.695686   1 O  s         
    36      1.668304   2 C  s               127     -1.670182   5 H  s         
   105     -1.643310   4 C  px              126     -1.328123   5 H  s         
   144      1.281463   8 H  s                43      1.199247   2 C  px        
    76     -1.034757   3 C  pz               66      0.957135   3 C  s         
 
 Vector   51  Occ=0.000000D+00  E= 7.953305D-01
              MO Center=  2.7D-01,  7.8D-02, -1.8D-01, r^2= 4.4D+00
   Bfn.  Coefficient  Atom+Function         Bfn.  Coefficient  Atom+Function  
  ----- ------------  ---------------      ----- ------------  ---------------
     5      4.035543   1 O  s                36     -2.831749   2 C  s         
    76     -2.541601   3 C  pz               45      1.662622   2 C  pz        
     4     -1.586369   1 O  s                12      1.333189   1 O  px        
   133      1.322942   6 H  s                43      1.239269   2 C  px        
    66     -1.036952   3 C  s                35     -1.018821   2 C  s         
 
 Vector   52  Occ=0.000000D+00  E= 8.319314D-01
              MO Center=  3.2D-01,  1.6D-01, -1.8D-02, r^2= 4.5D+00
   Bfn.  Coefficient  Atom+Function         Bfn.  Coefficient  Atom+Function  
  ----- ------------  ---------------      ----- ------------  ---------------
    36      6.692547   2 C  s                98     -4.181828   4 C  s         
     5     -4.039132   1 O  s                43     -2.561741   2 C  px        
   105      1.979336   4 C  px               45     -1.911390   2 C  pz        
    35     -1.855523   2 C  s                44      1.464568   2 C  py        
    66     -1.172477   3 C  s                97      1.028948   4 C  s         
 
 Vector   53  Occ=0.000000D+00  E= 8.541673D-01
              MO Center=  6.2D-01,  1.1D-01, -4.2D-01, r^2= 4.2D+00
   Bfn.  Coefficient  Atom+Function         Bfn.  Coefficient  Atom+Function  
  ----- ------------  ---------------      ----- ------------  ---------------
    45     -4.472045   2 C  pz               98     -4.445745   4 C  s         
    36      4.287055   2 C  s                76      1.928158   3 C  pz        
   127      1.747701   5 H  s               106     -1.567694   4 C  py        
    44      1.361885   2 C  py              105      1.265721   4 C  px        
   150     -1.261373   9 H  s               139      1.035242   7 H  s         
 
 Vector   54  Occ=0.000000D+00  E= 8.719557D-01
              MO Center=  1.8D-01, -3.2D-02, -1.2D-01, r^2= 4.2D+00
   Bfn.  Coefficient  Atom+Function         Bfn.  Coefficient  Atom+Function  
  ----- ------------  ---------------      ----- ------------  ---------------
     5      4.511804   1 O  s                 4     -1.554200   1 O  s         
    36     -1.487012   2 C  s               138      1.436998   7 H  s         
    76      1.352415   3 C  pz               67     -1.262166   3 C  s         
    98     -1.244599   4 C  s                12      1.185677   1 O  px        
    66     -1.165288   3 C  s                97      0.898101   4 C  s         
 
 Vector   55  Occ=0.000000D+00  E= 9.197780D-01
              MO Center=  5.1D-01,  3.1D-01, -4.8D-01, r^2= 4.5D+00
   Bfn.  Coefficient  Atom+Function         Bfn.  Coefficient  Atom+Function  
  ----- ------------  ---------------      ----- ------------  ---------------
    35      4.727388   2 C  s                98     -1.326771   4 C  s         
   132     -1.328739   6 H  s                72      1.264796   3 C  py        
    66     -1.248490   3 C  s               156     -1.203653  10 H  s         
    36     -1.151167   2 C  s                84      1.154460   3 C  d  0      
    41      1.147534   2 C  py               67      1.080212   3 C  s         
 
 Vector   56  Occ=0.000000D+00  E= 9.619411D-01
              MO Center=  5.0D-01,  2.4D-01, -6.0D-01, r^2= 4.7D+00
   Bfn.  Coefficient  Atom+Function         Bfn.  Coefficient  Atom+Function  
  ----- ------------  ---------------      ----- ------------  ---------------
    35      4.251362   2 C  s                67      2.762982   3 C  s         
   138     -2.297909   7 H  s                36     -1.861133   2 C  s         
    76     -1.862893   3 C  pz               42     -1.737218   2 C  pz        
    83     -1.604430   3 C  d -1            115     -1.515855   4 C  d  0      
    43      1.298590   2 C  px              132      1.288039   6 H  s         
 
 Vector   57  Occ=0.000000D+00  E= 9.918777D-01
              MO Center=  3.3D-01,  5.0D-01, -1.0D-01, r^2= 4.1D+00
   Bfn.  Coefficient  Atom+Function         Bfn.  Coefficient  Atom+Function  
  ----- ------------  ---------------      ----- ------------  ---------------
    36      7.250530   2 C  s                98     -5.009072   4 C  s         
    45     -3.882134   2 C  pz               67     -3.597371   3 C  s         
    43     -2.085447   2 C  px               44      1.972264   2 C  py        
    66     -1.582084   3 C  s               127      1.577997   5 H  s         
   126      1.385914   5 H  s                75      1.315048   3 C  py        
 
 Vector   58  Occ=0.000000D+00  E= 1.009743D+00
              MO Center=  3.9D-01,  5.3D-01, -6.2D-02, r^2= 4.3D+00
   Bfn.  Coefficient  Atom+Function         Bfn.  Coefficient  Atom+Function  
  ----- ------------  ---------------      ----- ------------  ---------------
    36      5.251636   2 C  s                67     -4.165102   3 C  s         
    45     -2.203060   2 C  pz               98     -1.833044   4 C  s         
    44      1.680437   2 C  py              156     -1.475702  10 H  s         
   144      1.420683   8 H  s                82      1.287624   3 C  d -2      
    74     -1.257803   3 C  px                5     -1.159581   1 O  s         
 
 Vector   59  Occ=0.000000D+00  E= 1.036909D+00
              MO Center=  6.8D-01, -1.5D-01, -4.4D-01, r^2= 4.2D+00
   Bfn.  Coefficient  Atom+Function         Bfn.  Coefficient  Atom+Function  
  ----- ------------  ---------------      ----- ------------  ---------------
    36      2.910054   2 C  s                35      2.692561   2 C  s         
    66     -2.207549   3 C  s               150      1.939111   9 H  s         
     5     -1.867875   1 O  s               144     -1.816389   8 H  s         
   117      1.689125   4 C  d  2             67     -1.486389   3 C  s         
    41      1.478860   2 C  py               44      1.421953   2 C  py        
 
 Vector   60  Occ=0.000000D+00  E= 1.076638D+00
              MO Center=  6.7D-01,  2.9D-02, -7.0D-02, r^2= 4.1D+00
   Bfn.  Coefficient  Atom+Function         Bfn.  Coefficient  Atom+Function  
  ----- ------------  ---------------      ----- ------------  ---------------
    66      3.992841   3 C  s                98     -3.819840   4 C  s         
    45     -3.517980   2 C  pz               97     -3.523018   4 C  s         
    41     -2.539898   2 C  py               36      2.463876   2 C  s         
   104     -2.437125   4 C  pz               42     -2.300807   2 C  pz        
    72     -2.287653   3 C  py               40      2.174070   2 C  px        
 
 Vector   61  Occ=0.000000D+00  E= 1.105341D+00
              MO Center=  3.7D-01,  6.6D-02,  6.7D-02, r^2= 3.8D+00
   Bfn.  Coefficient  Atom+Function         Bfn.  Coefficient  Atom+Function  
  ----- ------------  ---------------      ----- ------------  ---------------
    36      7.823939   2 C  s                67     -5.359066   3 C  s         
    98     -3.173701   4 C  s                66      2.243883   3 C  s         
    45     -2.128385   2 C  pz              126     -2.006887   5 H  s         
   132      1.675434   6 H  s                72     -1.659289   3 C  py        
    53      1.570513   2 C  d  0             97     -1.572406   4 C  s         
 
 Vector   62  Occ=0.000000D+00  E= 1.148180D+00
              MO Center=  6.2D-01,  3.8D-03, -4.4D-02, r^2= 3.6D+00
   Bfn.  Coefficient  Atom+Function         Bfn.  Coefficient  Atom+Function  
  ----- ------------  ---------------      ----- ------------  ---------------
    67      5.023069   3 C  s                36     -3.723895   2 C  s         
    44     -2.346593   2 C  py              126      1.825089   5 H  s         
    97     -1.764006   4 C  s                54      1.575738   2 C  d  1      
    43      1.520804   2 C  px               55      1.489433   2 C  d  2      
    42     -1.420894   2 C  pz               75     -1.387736   3 C  py        
 
 Vector   63  Occ=0.000000D+00  E= 1.214309D+00
              MO Center=  5.6D-01,  2.1D-01, -1.4D-01, r^2= 3.8D+00
   Bfn.  Coefficient  Atom+Function         Bfn.  Coefficient  Atom+Function  
  ----- ------------  ---------------      ----- ------------  ---------------
    36      6.716200   2 C  s                66     -4.888435   3 C  s         
    67     -3.358828   3 C  s                97     -3.325654   4 C  s         
    35      3.115207   2 C  s                72      1.896609   3 C  py        
    51     -1.749360   2 C  d -2             52      1.689614   2 C  d -1      
   138      1.683007   7 H  s               104     -1.492415   4 C  pz        
 
 Vector   64  Occ=0.000000D+00  E= 1.348331D+00
              MO Center=  3.4D-01,  5.7D-01,  2.4D-01, r^2= 3.5D+00
   Bfn.  Coefficient  Atom+Function         Bfn.  Coefficient  Atom+Function  
  ----- ------------  ---------------      ----- ------------  ---------------
    66      4.824585   3 C  s                35      3.787695   2 C  s         
    67     -3.107006   3 C  s                36     -2.769531   2 C  s         
    65     -2.448960   3 C  s               132     -2.068334   6 H  s         
    34     -1.424213   2 C  s               133      1.430381   6 H  s         
    72      1.345647   3 C  py              139      1.111907   7 H  s         
 
 Vector   65  Occ=0.000000D+00  E= 1.416093D+00
              MO Center=  1.5D-01,  5.2D-01, -2.3D-02, r^2= 3.4D+00
   Bfn.  Coefficient  Atom+Function         Bfn.  Coefficient  Atom+Function  
  ----- ------------  ---------------      ----- ------------  ---------------
    36      4.235056   2 C  s                35     -3.785511   2 C  s         
    67     -3.773625   3 C  s                66      3.684707   3 C  s         
    73     -2.329547   3 C  pz              138     -2.233131   7 H  s         
   139      2.179183   7 H  s               126      1.795192   5 H  s         
    76      1.672664   3 C  pz               34      1.558593   2 C  s         
 
 Vector   66  Occ=0.000000D+00  E= 1.431367D+00
              MO Center=  1.0D+00, -4.3D-01, -1.1D+00, r^2= 3.6D+00
   Bfn.  Coefficient  Atom+Function         Bfn.  Coefficient  Atom+Function  
  ----- ------------  ---------------      ----- ------------  ---------------
    98      9.858367   4 C  s                97     -7.399789   4 C  s         
    96      2.963433   4 C  s                36     -2.874901   2 C  s         
   145     -2.291930   8 H  s               151     -2.191077   9 H  s         
   157     -2.081603  10 H  s               144      1.683421   8 H  s         
   150      1.532033   9 H  s               156      1.477912  10 H  s         
 
 Vector   67  Occ=0.000000D+00  E= 1.442511D+00
              MO Center=  5.6D-01, -1.9D-02, -5.7D-01, r^2= 3.6D+00
   Bfn.  Coefficient  Atom+Function         Bfn.  Coefficient  Atom+Function  
  ----- ------------  ---------------      ----- ------------  ---------------
    36      3.228198   2 C  s                66      3.213709   3 C  s         
    67     -2.671819   3 C  s                 5     -1.647801   1 O  s         
    35     -1.610311   2 C  s                65     -1.113589   3 C  s         
   133      1.090127   6 H  s                98     -0.906524   4 C  s         
    97      0.840005   4 C  s               132     -0.825608   6 H  s         
 
 Vector   68  Occ=0.000000D+00  E= 1.445344D+00
              MO Center=  3.1D-01, -1.2D-01,  7.8D-02, r^2= 3.6D+00
   Bfn.  Coefficient  Atom+Function         Bfn.  Coefficient  Atom+Function  
  ----- ------------  ---------------      ----- ------------  ---------------
    98      6.763929   4 C  s                97     -3.708561   4 C  s         
    35     -3.011687   2 C  s                45      2.763558   2 C  pz        
    66      2.339315   3 C  s               127     -1.907067   5 H  s         
    76     -1.771627   3 C  pz              133      1.630668   6 H  s         
   151     -1.614390   9 H  s                96      1.569553   4 C  s         
 
 Vector   69  Occ=0.000000D+00  E= 1.469461D+00
              MO Center=  7.5D-01, -1.6D-01, -7.4D-01, r^2= 4.0D+00
   Bfn.  Coefficient  Atom+Function         Bfn.  Coefficient  Atom+Function  
  ----- ------------  ---------------      ----- ------------  ---------------
    66      2.902717   3 C  s                67     -1.672660   3 C  s         
     5     -1.398997   1 O  s                36      1.218975   2 C  s         
    65     -1.189942   3 C  s               133      1.195588   6 H  s         
    71     -1.006722   3 C  px              132     -1.008907   6 H  s         
    97      0.944559   4 C  s               144     -0.841081   8 H  s         
 
 Vector   70  Occ=0.000000D+00  E= 1.483053D+00
              MO Center=  9.9D-01, -3.6D-01, -1.0D+00, r^2= 3.3D+00
   Bfn.  Coefficient  Atom+Function         Bfn.  Coefficient  Atom+Function  
  ----- ------------  ---------------      ----- ------------  ---------------
   156     -2.800456  10 H  s                36      2.662381   2 C  s         
   102     -2.117833   4 C  px              157      2.098502  10 H  s         
   103      1.840988   4 C  py              104     -1.749665   4 C  pz        
   126      1.694264   5 H  s                66     -1.487264   3 C  s         
   127     -1.283164   5 H  s               144      1.284820   8 H  s         
 
 Vector   71  Occ=0.000000D+00  E= 1.513069D+00
              MO Center=  2.7D-01,  2.2D-01, -2.7D-01, r^2= 4.0D+00
   Bfn.  Coefficient  Atom+Function         Bfn.  Coefficient  Atom+Function  
  ----- ------------  ---------------      ----- ------------  ---------------
    98      2.899439   4 C  s               144      1.778748   8 H  s         
    36     -1.453913   2 C  s               102     -1.426156   4 C  px        
    97     -1.380026   4 C  s               103     -1.370063   4 C  py        
    45      1.356213   2 C  pz              145     -1.318048   8 H  s         
   150     -0.966739   9 H  s               106      0.771625   4 C  py        
 
 Vector   72  Occ=0.000000D+00  E= 1.542848D+00
              MO Center=  4.4D-01,  3.8D-01, -2.9D-01, r^2= 4.7D+00
   Bfn.  Coefficient  Atom+Function         Bfn.  Coefficient  Atom+Function  
  ----- ------------  ---------------      ----- ------------  ---------------
    36      4.125277   2 C  s                35     -3.624748   2 C  s         
    98     -3.243924   4 C  s                97      2.898862   4 C  s         
    67     -2.364322   3 C  s                73      2.115073   3 C  pz        
   132     -1.702641   6 H  s               102     -1.606264   4 C  px        
   133      1.430272   6 H  s               150     -1.371672   9 H  s         
 
 Vector   73  Occ=0.000000D+00  E= 1.573948D+00
              MO Center=  5.3D-01, -1.0D-01, -1.1D-01, r^2= 3.1D+00
   Bfn.  Coefficient  Atom+Function         Bfn.  Coefficient  Atom+Function  
  ----- ------------  ---------------      ----- ------------  ---------------
    35      3.987581   2 C  s                36     -3.697533   2 C  s         
    67      2.437935   3 C  s                40     -2.242567   2 C  px        
    72      1.857983   3 C  py              126      1.813935   5 H  s         
    66     -1.735990   3 C  s                97     -1.606878   4 C  s         
    34     -1.592647   2 C  s                45      1.598275   2 C  pz        
 
 Vector   74  Occ=0.000000D+00  E= 1.595861D+00
              MO Center=  3.5D-01,  3.6D-01, -1.8D-01, r^2= 3.4D+00
   Bfn.  Coefficient  Atom+Function         Bfn.  Coefficient  Atom+Function  
  ----- ------------  ---------------      ----- ------------  ---------------
    66      5.295314   3 C  s                36      5.028134   2 C  s         
    35     -4.355473   2 C  s                67     -3.917574   3 C  s         
    41     -3.662124   2 C  py               71      2.473989   3 C  px        
    72     -2.219842   3 C  py               40      1.769367   2 C  px        
    82     -1.636421   3 C  d -2            104     -1.590357   4 C  pz        
 
 Vector   75  Occ=0.000000D+00  E= 1.640849D+00
              MO Center=  4.1D-01,  2.7D-01,  4.1D-02, r^2= 3.7D+00
   Bfn.  Coefficient  Atom+Function         Bfn.  Coefficient  Atom+Function  
  ----- ------------  ---------------      ----- ------------  ---------------
    35      2.502974   2 C  s                66      2.260612   3 C  s         
    98      2.067040   4 C  s                 5     -1.886728   1 O  s         
    97     -1.505368   4 C  s               144      1.186630   8 H  s         
    67     -1.129253   3 C  s               145     -0.997019   8 H  s         
   104     -0.980910   4 C  pz              103     -0.925276   4 C  py        
 
 Vector   76  Occ=0.000000D+00  E= 1.693625D+00
              MO Center=  5.7D-01,  1.2D-01, -4.2D-01, r^2= 3.7D+00
   Bfn.  Coefficient  Atom+Function         Bfn.  Coefficient  Atom+Function  
  ----- ------------  ---------------      ----- ------------  ---------------
    97     -5.491829   4 C  s                35      5.319486   2 C  s         
   104     -2.790738   4 C  pz               42     -2.762765   2 C  pz        
   102      1.762944   4 C  px               66     -1.657792   3 C  s         
    34     -1.593437   2 C  s                96      1.495065   4 C  s         
    40      1.456687   2 C  px               54      1.118309   2 C  d  1      
 
 Vector   77  Occ=0.000000D+00  E= 1.702578D+00
              MO Center= -4.2D-02,  2.6D-01, -7.5D-02, r^2= 3.6D+00
   Bfn.  Coefficient  Atom+Function         Bfn.  Coefficient  Atom+Function  
  ----- ------------  ---------------      ----- ------------  ---------------
     5      3.851162   1 O  s                72      3.146802   3 C  py        
    36     -2.421088   2 C  s               138     -1.900187   7 H  s         
    66     -1.823274   3 C  s                97      1.763463   4 C  s         
    12      1.481384   1 O  px               42      1.471965   2 C  pz        
    41      1.349364   2 C  py              104      1.235872   4 C  pz        
 
 Vector   78  Occ=0.000000D+00  E= 1.790554D+00
              MO Center=  3.7D-01,  3.0D-01,  3.0D-02, r^2= 3.5D+00
   Bfn.  Coefficient  Atom+Function         Bfn.  Coefficient  Atom+Function  
  ----- ------------  ---------------      ----- ------------  ---------------
    35      3.071790   2 C  s                97     -2.627887   4 C  s         
    36      1.873081   2 C  s                45     -1.340514   2 C  pz        
    67     -1.152249   3 C  s                72      1.100269   3 C  py        
   104     -1.067022   4 C  pz               42     -0.950739   2 C  pz        
     5     -0.914363   1 O  s               102      0.899118   4 C  px        
 
 Vector   79  Occ=0.000000D+00  E= 1.817372D+00
              MO Center= -6.4D-01,  1.9D-01,  2.0D-01, r^2= 2.5D+00
   Bfn.  Coefficient  Atom+Function         Bfn.  Coefficient  Atom+Function  
  ----- ------------  ---------------      ----- ------------  ---------------
    35      3.989408   2 C  s                 5     -3.261957   1 O  s         
    40     -2.368105   2 C  px               41      2.058974   2 C  py        
    72      1.916491   3 C  py               66     -1.680630   3 C  s         
    71     -1.655113   3 C  px               12     -1.373330   1 O  px        
    67      1.068674   3 C  s               132     -1.053107   6 H  s         
 
 Vector   80  Occ=0.000000D+00  E= 1.842632D+00
              MO Center=  9.4D-02,  2.5D-01, -6.1D-02, r^2= 3.7D+00
   Bfn.  Coefficient  Atom+Function         Bfn.  Coefficient  Atom+Function  
  ----- ------------  ---------------      ----- ------------  ---------------
    35      1.771681   2 C  s               156     -0.947644  10 H  s         
   104     -0.895840   4 C  pz               36     -0.873537   2 C  s         
    97     -0.790115   4 C  s                41     -0.743031   2 C  py        
   126     -0.667502   5 H  s               157      0.667333  10 H  s         
    71     -0.662915   3 C  px              150      0.661812   9 H  s         
 
 Vector   81  Occ=0.000000D+00  E= 1.866509D+00
              MO Center=  5.1D-01,  2.0D-01, -4.4D-01, r^2= 4.0D+00
   Bfn.  Coefficient  Atom+Function         Bfn.  Coefficient  Atom+Function  
  ----- ------------  ---------------      ----- ------------  ---------------
    35      6.193342   2 C  s                66     -4.280722   3 C  s         
    72      3.459833   3 C  py               97     -3.019678   4 C  s         
    36      2.306126   2 C  s               104     -1.670200   4 C  pz        
    67     -1.592754   3 C  s                34     -1.558814   2 C  s         
    41      1.541415   2 C  py               45     -1.424365   2 C  pz        
 
 Vector   82  Occ=0.000000D+00  E= 1.918407D+00
              MO Center=  3.0D-01, -1.6D-01, -2.9D-01, r^2= 3.2D+00
   Bfn.  Coefficient  Atom+Function         Bfn.  Coefficient  Atom+Function  
  ----- ------------  ---------------      ----- ------------  ---------------
    98     -1.565894   4 C  s                36      1.552481   2 C  s         
    45     -1.315586   2 C  pz              103     -1.180251   4 C  py        
    97     -1.121988   4 C  s                35      0.913367   2 C  s         
    66     -0.829786   3 C  s                42     -0.765416   2 C  pz        
    41      0.743239   2 C  py              150     -0.710064   9 H  s         
 
 Vector   83  Occ=0.000000D+00  E= 1.991846D+00
              MO Center=  8.4D-01, -2.2D-01, -3.6D-01, r^2= 3.4D+00
   Bfn.  Coefficient  Atom+Function         Bfn.  Coefficient  Atom+Function  
  ----- ------------  ---------------      ----- ------------  ---------------
    98      3.560428   4 C  s                35      3.502578   2 C  s         
    66     -2.725427   3 C  s                40     -2.230558   2 C  px        
    72      1.943790   3 C  py               41      1.749252   2 C  py        
    36     -1.646196   2 C  s                43     -1.487262   2 C  px        
    71     -1.372858   3 C  px              107      1.209216   4 C  pz        
 
 Vector   84  Occ=0.000000D+00  E= 1.993544D+00
              MO Center=  5.9D-01, -7.8D-02, -6.8D-01, r^2= 3.5D+00
   Bfn.  Coefficient  Atom+Function         Bfn.  Coefficient  Atom+Function  
  ----- ------------  ---------------      ----- ------------  ---------------
    36      4.122260   2 C  s                98     -3.676905   4 C  s         
    35     -2.120600   2 C  s                45     -1.988120   2 C  pz        
    67     -1.449602   3 C  s               104      1.151804   4 C  pz        
   156      1.143783  10 H  s               107     -0.975220   4 C  pz        
     5     -0.861025   1 O  s                34      0.831552   2 C  s         
 
 Vector   85  Occ=0.000000D+00  E= 2.088435D+00
              MO Center= -5.8D-02,  1.8D-01,  8.1D-03, r^2= 3.5D+00
   Bfn.  Coefficient  Atom+Function         Bfn.  Coefficient  Atom+Function  
  ----- ------------  ---------------      ----- ------------  ---------------
    36      2.873641   2 C  s                98     -2.180546   4 C  s         
    67     -1.093025   3 C  s                35     -0.768604   2 C  s         
   138     -0.744315   7 H  s               156      0.706653  10 H  s         
   144      0.585529   8 H  s                14     -0.575772   1 O  pz        
    40     -0.560205   2 C  px               45     -0.545097   2 C  pz        
 
 Vector   86  Occ=0.000000D+00  E= 2.098051D+00
              MO Center= -3.4D-01,  5.8D-02,  3.2D-02, r^2= 3.0D+00
   Bfn.  Coefficient  Atom+Function         Bfn.  Coefficient  Atom+Function  
  ----- ------------  ---------------      ----- ------------  ---------------
    67     -5.387316   3 C  s                36      5.321403   2 C  s         
    35     -3.200529   2 C  s                66      3.175729   3 C  s         
    41     -2.999439   2 C  py               71      2.681144   3 C  px        
    13      1.800304   1 O  py               82     -1.428523   3 C  d -2      
    43     -1.303807   2 C  px               55      1.308252   2 C  d  2      
 
 Vector   87  Occ=0.000000D+00  E= 2.166708D+00
              MO Center=  5.4D-01, -8.8D-02, -5.1D-01, r^2= 3.2D+00
   Bfn.  Coefficient  Atom+Function         Bfn.  Coefficient  Atom+Function  
  ----- ------------  ---------------      ----- ------------  ---------------
    98     -2.052279   4 C  s                67      1.937453   3 C  s         
    35      1.529222   2 C  s                73     -0.984211   3 C  pz        
    36     -0.949715   2 C  s                44     -0.869302   2 C  py        
    40     -0.849760   2 C  px               43      0.831163   2 C  px        
   156      0.825605  10 H  s               144      0.732349   8 H  s         
 
 Vector   88  Occ=0.000000D+00  E= 2.190917D+00
              MO Center=  5.7D-01,  1.3D-01, -4.6D-01, r^2= 3.8D+00
   Bfn.  Coefficient  Atom+Function         Bfn.  Coefficient  Atom+Function  
  ----- ------------  ---------------      ----- ------------  ---------------
    98      1.928095   4 C  s                45      0.937492   2 C  pz        
    36     -0.827448   2 C  s                76     -0.796704   3 C  pz        
   132      0.717136   6 H  s                42     -0.659780   2 C  pz        
   103     -0.622789   4 C  py               71      0.552287   3 C  px        
    97     -0.518432   4 C  s               117     -0.501841   4 C  d  2      
 
 Vector   89  Occ=0.000000D+00  E= 2.230420D+00
              MO Center=  7.8D-01, -4.0D-02, -2.8D-01, r^2= 3.6D+00
   Bfn.  Coefficient  Atom+Function         Bfn.  Coefficient  Atom+Function  
  ----- ------------  ---------------      ----- ------------  ---------------
    36      3.444657   2 C  s                67     -1.899608   3 C  s         
    98     -1.532888   4 C  s                 5     -0.992914   1 O  s         
   150      0.963271   9 H  s                42     -0.893400   2 C  pz        
    35     -0.824817   2 C  s                45     -0.815874   2 C  pz        
    43     -0.779003   2 C  px               72     -0.686891   3 C  py        
 
 Vector   90  Occ=0.000000D+00  E= 2.238659D+00
              MO Center=  5.1D-01, -6.9D-02, -4.4D-01, r^2= 3.7D+00
   Bfn.  Coefficient  Atom+Function         Bfn.  Coefficient  Atom+Function  
  ----- ------------  ---------------      ----- ------------  ---------------
    66      1.238291   3 C  s                72     -1.094002   3 C  py        
   150     -1.073299   9 H  s                98      0.836104   4 C  s         
   117     -0.808818   4 C  d  2             42     -0.748377   2 C  pz        
   144      0.715082   8 H  s                 5     -0.709660   1 O  s         
    83     -0.626541   3 C  d -1            138     -0.559351   7 H  s         
 
 Vector   91  Occ=0.000000D+00  E= 2.255343D+00
              MO Center=  9.6D-01, -3.3D-01, -1.2D+00, r^2= 2.9D+00
   Bfn.  Coefficient  Atom+Function         Bfn.  Coefficient  Atom+Function  
  ----- ------------  ---------------      ----- ------------  ---------------
    66      2.316032   3 C  s                36      1.873173   2 C  s         
    41     -1.545284   2 C  py               67     -1.465604   3 C  s         
    35     -1.140594   2 C  s                72     -0.984516   3 C  py        
    98     -0.960972   4 C  s               156      0.933438  10 H  s         
    71      0.924181   3 C  px              126     -0.858382   5 H  s         
 
 Vector   92  Occ=0.000000D+00  E= 2.285351D+00
              MO Center=  4.5D-01,  1.7D-01, -2.0D-01, r^2= 3.6D+00
   Bfn.  Coefficient  Atom+Function         Bfn.  Coefficient  Atom+Function  
  ----- ------------  ---------------      ----- ------------  ---------------
    98      3.769130   4 C  s                36     -2.601174   2 C  s         
[...]
    21     -0.873027   1 O  d -1             42     -0.797649   2 C  pz        
    97     -0.705983   4 C  s                45     -0.702411   2 C  pz        
    98     -0.523894   4 C  s                 5     -0.520457   1 O  s         
    83     -0.492689   3 C  d -1             67     -0.483478   3 C  s         
 
 Vector  154  Occ=0.000000D+00  E= 6.674744D+00
              MO Center= -8.7D-01, -1.8D-01,  2.0D-01, r^2= 5.7D-01
   Bfn.  Coefficient  Atom+Function         Bfn.  Coefficient  Atom+Function  
  ----- ------------  ---------------      ----- ------------  ---------------
    18      1.064843   1 O  d  1             23     -1.035072   1 O  d  1      
    97     -0.851965   4 C  s                42     -0.775527   2 C  pz        
    35      0.736455   2 C  s               102      0.629095   4 C  px        
    54     -0.542569   2 C  d  1             14      0.404382   1 O  pz        
    45     -0.394243   2 C  pz               16     -0.389252   1 O  d -1      
 
 Vector  155  Occ=0.000000D+00  E= 6.841662D+00
              MO Center= -8.8D-01, -1.9D-01,  2.0D-01, r^2= 5.9D-01
   Bfn.  Coefficient  Atom+Function         Bfn.  Coefficient  Atom+Function  
  ----- ------------  ---------------      ----- ------------  ---------------
     5      2.120546   1 O  s                40      1.761545   2 C  px        
     9      1.360509   1 O  px               97     -1.293629   4 C  s         
     4      1.203307   1 O  s                20      1.047580   1 O  d -2      
    42     -0.968027   2 C  pz               12      0.848984   1 O  px        
    15     -0.834446   1 O  d -2             22     -0.834270   1 O  d  0      
 
 Vector  156  Occ=0.000000D+00  E= 7.056323D+00
              MO Center= -8.9D-01, -1.9D-01,  2.0D-01, r^2= 6.4D-01
   Bfn.  Coefficient  Atom+Function         Bfn.  Coefficient  Atom+Function  
  ----- ------------  ---------------      ----- ------------  ---------------
    66     -3.178097   3 C  s                35      3.036290   2 C  s         
    40     -2.728569   2 C  px               72      2.701921   3 C  py        
    24     -1.579825   1 O  d  2             36      1.418763   2 C  s         
    10      1.283492   1 O  py               67     -1.258167   3 C  s         
    19      1.017991   1 O  d  2             13      0.863270   1 O  py        
 
 Vector  157  Occ=0.000000D+00  E= 2.193524D+01
              MO Center=  1.1D-01,  7.4D-01,  7.0D-03, r^2= 1.3D+00
   Bfn.  Coefficient  Atom+Function         Bfn.  Coefficient  Atom+Function  
  ----- ------------  ---------------      ----- ------------  ---------------
    64      1.558279   3 C  s                65     -1.330649   3 C  s         
    67     -1.297207   3 C  s                63     -1.228578   3 C  s         
    98      1.095165   4 C  s                95     -0.813697   4 C  s         
    96      0.669257   4 C  s                94      0.643663   4 C  s         
    40     -0.465102   2 C  px               35      0.373949   2 C  s         
 
 Vector  158  Occ=0.000000D+00  E= 2.197640D+01
              MO Center=  8.5D-01, -2.1D-01, -6.8D-01, r^2= 1.2D+00
   Bfn.  Coefficient  Atom+Function         Bfn.  Coefficient  Atom+Function  
  ----- ------------  ---------------      ----- ------------  ---------------
    95      1.396305   4 C  s                96     -1.287906   4 C  s         
    98     -1.109692   4 C  s                94     -1.098770   4 C  s         
    34     -0.971145   2 C  s                36     -0.892535   2 C  s         
    33      0.878075   2 C  s                65     -0.691945   3 C  s         
    32     -0.686169   2 C  s                64      0.655267   3 C  s         
 
 Vector  159  Occ=0.000000D+00  E= 2.209120D+01
              MO Center=  6.1D-01, -1.2D-01, -7.5D-02, r^2= 7.0D-01
   Bfn.  Coefficient  Atom+Function         Bfn.  Coefficient  Atom+Function  
  ----- ------------  ---------------      ----- ------------  ---------------
    36      2.196679   2 C  s                33     -1.542121   2 C  s         
    34      1.536983   2 C  s                35     -1.403153   2 C  s         
    98     -1.288602   4 C  s                32      1.208215   2 C  s         
    67     -1.160744   3 C  s                97      0.726887   4 C  s         
    95      0.716732   4 C  s                96     -0.654101   4 C  s         
 
 Vector  160  Occ=0.000000D+00  E= 4.341118D+01
              MO Center= -8.8D-01, -1.8D-01,  2.1D-01, r^2= 1.2D-01
   Bfn.  Coefficient  Atom+Function         Bfn.  Coefficient  Atom+Function  
  ----- ------------  ---------------      ----- ------------  ---------------
     4      2.496464   1 O  s                 3     -1.871694   1 O  s         
     2      1.731311   1 O  s                 1     -1.395806   1 O  s         
     5     -0.878377   1 O  s                36      0.822325   2 C  s         
     9      0.556187   1 O  px               66     -0.505833   3 C  s         
    40      0.458671   2 C  px               72      0.453511   3 C  py        
 

 center of mass
 --------------
 x =   0.30619362 y =   0.09486552 z =  -0.27792479

 moments of inertia (a.u.)
 ------------------
         200.256264102962          45.639414906882          83.706973904615
          45.639414906882         248.059368454854         -52.624933215528
          83.706973904615         -52.624933215528         239.236113495618
 
     Multipole analysis of the density
     ---------------------------------
 
     L   x y z        total         alpha         beta         nuclear
     -   - - -        -----         -----         ----         -------
     0   0 0 0     -0.000000    -16.000000    -16.000000     32.000000
 
     1   1 0 0      0.693998     -6.209495     -6.209495     13.112988
     1   0 1 0      0.323483     -1.631598     -1.631598      3.586679
     1   0 0 1     -0.054976      5.295937      5.295937    -10.646850
 
     2   2 0 0    -20.031823    -54.330611    -54.330611     88.629398
     2   1 1 0     -1.100259     13.871238     13.871238    -28.842735
     2   1 0 1      0.192747     26.393052     26.393052    -52.593356
     2   0 2 0    -17.829802    -40.564220    -40.564220     63.298638
     2   0 1 1      0.233788    -15.374972    -15.374972     30.983733
     2   0 0 2    -18.240782    -45.651823    -45.651823     73.062865
 
 *** CALLING NEW AORESP DRIVER FOR CLOSED AND OPEN SHELLS ***
 Entering AOResponse driver routine


--------------------------------------------------------------------------------

          ****************
          *** RESPONSE ***
          ****************

 Response module for NWChem and dynamic CPKS solver
 developed by J. Autschbach and coworkers, SUNY Buffalo
 The methodology used in this program is described in 
 ChemPhysChem 12 (2011), 3224-3235 (main reference)
 J. Chem. Phys. 123 (2005), 114103
 J. Chem. Phys. 122 (2005), 224115
 J. Chem. Phys. 122 (2005), 074105
 Comp. Lett. 3 (2007), 131-150 (contact JA for a copy)
 Please cite this work in publications based on results
 obtained with this code. Thank you!

 For extension of response module to open shell
 calculations please acknowledge:
 F. Aquino, Northwestern University, Schatz Rsrch Group
 The update to the methodology is described in
 J. Phys. Chem. A 118 (2014) 517-525



          -----------------------------------------------
          Solving response equations for perturbing field
          -----------------------------------------------

 number of frequencies:     1
 frequency in a.u.:  0.9319600E-01
 Perturbing field: electric
 Using GIAO formalism for OptRot
 Adding quadrupole terms to OptRot
 to create an origin in dependent tensor.
 Using El. Dipole Length Gauge
 
 Applying DAMPING constant of  0.003700 a.u.
 
 Setting up CPKS
 with frequency omega =      0.09319600 a.u.
 and a damping of            0.00370000 a.u.

 
                            NWChem Dynamic CPHF Module
                            --------------------------
 
 
    scftype = RHF 
    nclosed =   16
      nopen =    0
  variables =     9216
  num. vecs =        3
  tolerance =   1.0D-07
  max. iter =  100

 SCF residual:   5.430206624866671E-006


Iterative solution of linear equations
  No. of variables     4608
  No. of equations        3
  Maximum subspace       99
       Convergence  1.0D-07
        Start time     93.8


   iter   nsub   residual    time 
   ----  ------  --------  --------- 
 dft_CPHF2_read: failed to open
 ./methyloxirane_blyp-def2-tzvp_488.9_14.inp.aoresp_fiao_f1
     1      3    3.91D+00     143.6
     2      6    2.73D+00     193.4
     3      9    2.43D-01     243.2
     4     12    5.34D-02     293.1
     5     15    1.07D-02     343.0
     6     18    1.31D-03     392.7
     7     21    1.49D-04     442.8
     8     24    1.45D-05     492.5
     9     27    1.28D-06     542.1
    10     30    4.93D-07     591.8
    11     33    1.42D-08     641.7

 Calculating some arrays needed for GIAO optical rotation

    0 giaofock schwarz done =      93.11%
    0 giaofock schwarz done =      93.11%
 aor_r1_tensor_giao: roadata output requested
 dip-quad polarizability Re:

              1        2        3        4        5        6      
    1   76.9591  -6.0867 -27.2521  -4.6056   1.2262   9.0013
    2  -11.7296  25.3296   3.4493  24.1465 -21.2624   4.0419
    3   -6.4812   1.1461  39.0309  -0.0727  14.1763 -40.2260
 traceless dip-quad polarizability:

              1        2        3      
    1   74.7612  -9.1300 -40.8781
    2   -9.1300 -47.5858   1.8393
    3  -40.8781   1.8393 -27.1754

              1        2        3      
    1  -25.8238  37.9944   5.1739
    2   37.9944  27.9904 -31.8936
    3    5.1739 -31.8936  -2.1665

              1        2        3      
    1   13.6682   1.7191  58.5464
    2    1.7191  23.2808  21.2645
    3   58.5464  21.2645 -36.9490

 roa begin

 alpha real:
 XX       0.4099567604453E+02
 XY      -0.5195756039536E+01
 XZ      -0.2995148424385E+01
 YX      -0.5195756041666E+01
 YY       0.4415123279472E+02
 YZ       0.3198552421955E+01
 ZX      -0.2995148432186E+01
 ZY       0.3198552421153E+01
 ZZ       0.4147525046012E+02

 alpha im:
 XX       0.1107925173647E+00
 XY      -0.3014284492157E-01
 XZ      -0.1101972623819E-01
 YX      -0.3014283999161E-01
 YY       0.1297873970932E+00
 YZ       0.1863226725282E-01
 ZX      -0.1101972303008E-01
 ZY       0.1863226812536E-01
 ZZ       0.1227218222741E+00

 beta real:
 XX      -0.1400488180880E+00
 XY       0.9423670255159E+00
 XZ       0.2057492764138E+00
 YX      -0.8809237686122E+00
 YY       0.1473865238094E+00
 YZ      -0.1544823791500E+01
 ZX      -0.4879967153735E+00
 ZY       0.1873669896096E+01
 ZZ      -0.1002741800130E-01

 G-prime = -omega beta(real):
 XX      -0.1400488180880E+00
 XY       0.9423670255159E+00
 XZ       0.2057492764138E+00
 YX      -0.8809237686122E+00
 YY       0.1473865238094E+00
 YZ      -0.1544823791500E+01
 ZX      -0.4879967153735E+00
 ZY       0.1873669896096E+01
 ZZ      -0.1002741800130E-01

 beta im:
 XX      -0.5983484325444E-02
 XY       0.1377237611734E-01
 XZ       0.2905198861526E-02
 YX      -0.7581212371924E-02
 YY       0.4812921600901E-02
 YZ      -0.2363218045889E-01
 ZX      -0.1365251855034E-01
 ZY       0.4043082774164E-01
 ZZ       0.3777915077709E-03

 G-prime = -omega beta(imag):
 XX      -0.5983484325444E-02
 XY       0.1377237611734E-01
 XZ       0.2905198861526E-02
 YX      -0.7581212371924E-02
 YY       0.4812921600901E-02
 YZ      -0.2363218045889E-01
 ZX      -0.1365251855034E-01
 ZY       0.4043082774164E-01
 ZZ       0.3777915077709E-03

 dipole-quadrupole real (Cartesian):
 XXX      0.7695909141281E+02
 XXY     -0.6086669264543E+01
 XXZ     -0.2725209896277E+02
 XYY     -0.4605624574094E+01
 XYZ      0.1226213831262E+01
 XZZ      0.9001331761888E+01
 YXX     -0.1172961912555E+02
 YXY      0.2532962055200E+02
 YXZ      0.3449279994192E+01
 YYY      0.2414651864252E+02
 YYZ     -0.2126241324439E+02
 YZZ      0.4041923357976E+01
 ZXX     -0.6481163388834E+01
 ZXY      0.1146073353315E+01
 ZXZ      0.3903093881670E+02
 ZYY     -0.7272314459833E-01
 ZYZ      0.1417632390964E+02
 ZZZ     -0.4022595470439E+02

 dipole-quadrupole imag (Cartesian):
 XXX      0.2678286559827E+00
 XXY     -0.3407148803455E-01
 XXZ     -0.7445431945757E-01
 XYY     -0.2958373701035E-01
 XYZ      0.2296147661772E-02
 XZZ      0.6096150376525E-01
 YXX     -0.5706226746850E-01
 YXY      0.6038803710774E-01
 YXZ      0.1967723440504E-01
 YYY      0.9714421821696E-01
 YYZ     -0.5899863534174E-01
 YZZ      0.8887993451926E-02
 ZXX     -0.3371184290793E-01
 ZXY      0.4563117728459E-03
 ZXZ      0.1443435956269E+00
 ZYY      0.5102715520619E-02
 ZYZ      0.6776454468107E-01
 ZZZ     -0.9064616145521E-01

 dipole-quadrupole (traceless):
 XXX      0.7476123781891E+02
 XXY     -0.9130003896815E+01
 XXZ     -0.4087814844416E+02
 XYY     -0.4758583616144E+02
 XYZ      0.1839320746893E+01
 XZZ     -0.2717540165747E+02
 YXX     -0.2582384012579E+02
 YXY      0.3799443082799E+02
 YXZ      0.5173919991287E+01
 YYY      0.2799036652631E+02
 YYZ     -0.3189361986659E+02
 YZZ     -0.2166526400512E+01
 ZXX      0.1366817553566E+02
 ZXY      0.1719110029973E+01
 ZXZ      0.5854640822505E+02
 ZYY      0.2328083590201E+02
 ZYZ      0.2126448586446E+02
 ZZZ     -0.3694901143767E+02

 roa end


 Electric Dipole Response Matrix (nonzero elements):

              1        2        3      
    1   40.9957  -5.1958  -2.9951
    2   -5.1958  44.1512   3.1986
    3   -2.9951   3.1986  41.4753
 
 Imaginary part:

              1        2        3      
    1    0.1108  -0.0301  -0.0110
    2   -0.0301   0.1298   0.0186
    3   -0.0110   0.0186   0.1227

 ------------------------------------------
 average:        42.20739 + I       0.12110


 DFT Linear Response polarizability / au 
 Frequency  =       0.0931960 / au
 Wavelength =     488.8981609 / nm
              X              Y              Z
 -----------------------------------------------
 X      40.9956760     -5.1957560     -2.9951484
 Y      -5.1957560     44.1512328      3.1985524
 Z      -2.9951484      3.1985524     41.4752505
 -----------------------------------------------
 Eigenvalues =      37.0502831     50.1842849     39.3875913
 Isotropic   =      42.2073864
 Anisotropic =       9.9084746
 -----------------------------------------------
 *************************

 DFT Linear Response IMAG polarizability / au 
 Frequency  =       0.0931960 / au
 Wavelength =     488.8981609 / nm
              X              Y              Z
 -----------------------------------------------
 X       0.1107925     -0.0301428     -0.0110197
 Y      -0.0301428      0.1297874      0.0186323
 Z      -0.0110197      0.0186323      0.1227218
 -----------------------------------------------
 Eigenvalues =       0.0885171      0.1633364      0.1114482
 Isotropic   =       0.1211006
 Anisotropic =       0.0542100
 -----------------------------------------------
 *************************

 Magnetic Dipole Response Matrix (nonzero elements):
 Optical rotation tensor Beta
 (Buckingham-Dunn version including dipole-quadrupole terms)

              1        2        3      
    1    2.6543  -0.4343   0.3914
    2   -0.4343  -1.6215  -1.7407
    3    0.3914  -1.7407  -1.0039
 
 Imaginary part:

              1        2        3      
    1    0.0642  -0.1478  -0.0312
    2    0.0813  -0.0516   0.2536
    3    0.1465  -0.4338  -0.0041

 ------------------------------------------
 average:         0.00962 + I       0.00284

 Principal components and PAS (Real part)
                 -3.08177
                  2.79851
                  0.31212
 ------------------------
 average:         0.00962

              1        2        3      
    1    0.0144   0.9707  -0.2398
    2    0.7678  -0.1644  -0.6192
    3    0.6405   0.1752   0.7477

 Chiral response tensor (Real part):

              1        2        3      
    1   -1.3127   0.2172  -0.1957
    2    0.2172   0.8252   0.8703
    3   -0.1957   0.8703   0.5164
 
 Principal components and PAS (Real part)
                  1.55532
                 -1.38483
                 -0.14163
 ------------------------
 average:         0.00962

              1        2        3      
    1    0.0144   0.9707  -0.2398
    2    0.7678  -0.1644  -0.6192
    3    0.6405   0.1752   0.7477
 Exiting AOResponse driver routine

 Task  times  cpu:      618.8s     wall:      634.8s
 
 
                                NWChem Input Module
                                -------------------
 
 
 Summary of allocated global arrays
-----------------------------------
  No active global arrays



                         GA Statistics for process    0
                         ------------------------------

       create   destroy   get      put      acc     scatter   gather  read&inc
calls: 3294     3294     7.64e+06 3.14e+06 7.69e+05 2694        0     1121     
number of processes/call 1.01e+00 1.03e+00 1.44e+00 0.00e+00 0.00e+00
bytes total:             1.81e+09 1.26e+08 1.83e+09 1.84e+02 0.00e+00 8.97e+03
bytes remote:            7.96e+08 3.29e+07 1.08e+09 0.00e+00 0.00e+00 0.00e+00
Max memory consumed for GA by this process: 11242192 bytes
 
MA_summarize_allocated_blocks: starting scan ...
MA_summarize_allocated_blocks: scan completed: 0 heap blocks, 0 stack blocks
MA usage statistics:

	allocation statistics:
					      heap	     stack
					      ----	     -----
	current number of blocks	         0	         0
	maximum number of blocks	        24	        52
	current total bytes		         0	         0
	maximum total bytes		   7519840	  48940600
	maximum total K-bytes		      7520	     48941
	maximum total M-bytes		         8	        49
 
 
                                     CITATION
                                     --------
                Please cite the following reference when publishing
                           results obtained with NWChem:
 
                 M. Valiev, E.J. Bylaska, N. Govind, K. Kowalski,
              T.P. Straatsma, H.J.J. van Dam, D. Wang, J. Nieplocha,
                        E. Apra, T.L. Windus, W.A. de Jong
                 "NWChem: a comprehensive and scalable open-source
                  solution for large scale molecular simulations"
                      Comput. Phys. Commun. 181, 1477 (2010)
                           doi:10.1016/j.cpc.2010.04.018
 
                                      AUTHORS
                                      -------
          E. Apra, E. J. Bylaska, W. A. de Jong, N. Govind, K. Kowalski,
       T. P. Straatsma, M. Valiev, H. J. J. van Dam, D. Wang, T. L. Windus,
        J. Hammond, J. Autschbach, K. Bhaskaran-Nair, J. Brabec, K. Lopata,
    S. A. Fischer, S. Krishnamoorthy, M. Jacquelin, W. Ma, M. Klemm, O. Villa,
      Y. Chen, V. Anisimov, F. Aquino, S. Hirata, M. T. Hackler, V. Konjkov,
            D. Mejia-Rodriguez, T. Risthaus, M. Malagoli, A. Marenich,
   A. Otero-de-la-Roza, J. Mullin, P. Nichols, R. Peverati, J. Pittner, Y. Zhao,
        P.-D. Fan, A. Fonari, M. J. Williamson, R. J. Harrison, J. R. Rehr,
      M. Dupuis, D. Silverstein, D. M. A. Smith, J. Nieplocha, V. Tipparaju,
    M. Krishnan, B. E. Van Kuiken, A. Vazquez-Mayagoitia, L. Jensen, M. Swart,
      Q. Wu, T. Van Voorhis, A. A. Auer, M. Nooijen, L. D. Crosby, E. Brown,
      G. Cisneros, G. I. Fann, H. Fruchtl, J. Garza, K. Hirao, R. A. Kendall,
      J. A. Nichols, K. Tsemekhman, K. Wolinski, J. Anchell, D. E. Bernholdt,
      P. Borowski, T. Clark, D. Clerc, H. Dachsel, M. J. O. Deegan, K. Dyall,
    D. Elwood, E. Glendening, M. Gutowski, A. C. Hess, J. Jaffe, B. G. Johnson,
     J. Ju, R. Kobayashi, R. Kutteh, Z. Lin, R. Littlefield, X. Long, B. Meng,
      T. Nakajima, S. Niu, L. Pollack, M. Rosing, K. Glaesemann, G. Sandrone,
      M. Stave, H. Taylor, G. Thomas, J. H. van Lenthe, A. T. Wong, Z. Zhang.

 Total times  cpu:      691.4s     wall:      709.5s
