 argument  1 = methyloxirane_blyp-def2-tzvp_488.9_21.inp
 


============================== echo of input deck ==============================
echo
start methyloxirane_blyp-def2-tzvp_488.9_21.inp
title "methyloxirane roa calculations at 488.9 nm, input generated in va  with delta_type=2"
charge 0



geometry units angstrom nocenter noautoz noautosym nucleus point;symmetry c1
 O -0.879135 -0.180285  0.205279
 C  0.573472 -0.156891  0.121127
 C -0.185459  1.088053  0.340262
 C  1.185966 -0.520680 -1.210926
 H  1.067649 -0.612531  1.015182
 H -0.228196  1.538570  1.336791
 H -0.325760  1.784851 -0.496290
 H  2.238661 -0.217127 -1.245657
 H  1.142694 -1.605351 -1.374089
 H  0.647887 -0.023591 -2.039274
end

basis spherical
* library def2-TZVP
end

 set prop:newaoresp 1
 set aor:roadata T
 set cphf:maxsub 100
 set cphf:acc 1.0d-10
 set cphf:maxiter 100

property
    response 1   0.093196
    bdtensor
    convergence 1e-7
    damping 0.0037
    giao
end

dft
 direct
 mult 1
 xc becke88 lyp
 iterations 250
 tolerances tight
 grid xfine
 convergence nolevelshifting
 convergence energy 1e-8
 convergence gradient 1e-7


end

task dft gradient
task dft property
================================================================================


                                         
                                         
 
 
              Northwest Computational Chemistry Package (NWChem) 6.8
              ------------------------------------------------------
 
 
                    Environmental Molecular Sciences Laboratory
                       Pacific Northwest National Laboratory
                                Richland, WA 99352
 
                              Copyright (c) 1994-2017
                       Pacific Northwest National Laboratory
                            Battelle Memorial Institute
 
             NWChem is an open-source computational chemistry package
                        distributed under the terms of the
                      Educational Community License (ECL) 2.0
             A copy of the license is included with this distribution
                              in the LICENSE.TXT file
 
                                  ACKNOWLEDGMENT
                                  --------------

            This software and its documentation were developed at the
            EMSL at Pacific Northwest National Laboratory, a multiprogram
            national laboratory, operated for the U.S. Department of Energy
            by Battelle under Contract Number DE-AC05-76RL01830. Support
            for this work was provided by the Department of Energy Office
            of Biological and Environmental Research, Office of Basic
            Energy Sciences, and the Office of Advanced Scientific Computing.


           Job information
           ---------------

    hostname        = cpn-f11-17-02.cbls.ccr.buffalo.edu
    program         = /util/academic/nwchem/nwchem-6.8/bin/LINUX64/nwchem
    date            = Fri Mar  1 10:16:35 2019

    compiled        = Tue_Nov_06_14:59:08_2018
    source          = /util/academic/nwchem/nwchem-6.8
    nwchem branch   = 6.8
    nwchem revision = v6.8-47-gdf6c956
    ga revision     = ga-5.6.3
    use scalapack   = F
    input           = methyloxirane_blyp-def2-tzvp_488.9_21.inp
    prefix          = methyloxirane_blyp-def2-tzvp_488.9_21.inp.
    data base       = ./methyloxirane_blyp-def2-tzvp_488.9_21.inp.db
    status          = startup
    nproc           =        7
    time left       =     -1s



           Memory information
           ------------------

    heap     =   13107194 doubles =    100.0 Mbytes
    stack    =   13107199 doubles =    100.0 Mbytes
    global   =   26214400 doubles =    200.0 Mbytes (distinct from heap & stack)
    total    =   52428793 doubles =    400.0 Mbytes
    verify   = yes
    hardfail = no 


           Directory information
           ---------------------
 
  0 permanent = .
  0 scratch   = .
 
 
 
 
                                NWChem Input Module
                                -------------------
 
 
                    methyloxirane roa calculations at 488.9 nm, input generated in va  with delta_type=2
                    ------------------------------------------

 Scaling coordinates for geometry "geometry" by  1.889725989
 (inverse scale =  0.529177249)

 
 
                             Geometry "geometry" -> ""
                             -------------------------
 
 Output coordinates in angstroms (scale by  1.889725989 to convert to a.u.)
 
  No.       Tag          Charge          X              Y              Z
 ---- ---------------- ---------- -------------- -------------- --------------
    1 O                    8.0000    -0.87913500    -0.18028500     0.20527900
    2 C                    6.0000     0.57347200    -0.15689100     0.12112700
    3 C                    6.0000    -0.18545900     1.08805300     0.34026200
    4 C                    6.0000     1.18596600    -0.52068000    -1.21092600
    5 H                    1.0000     1.06764900    -0.61253100     1.01518200
    6 H                    1.0000    -0.22819600     1.53857000     1.33679100
    7 H                    1.0000    -0.32576000     1.78485100    -0.49629000
    8 H                    1.0000     2.23866100    -0.21712700    -1.24565700
    9 H                    1.0000     1.14269400    -1.60535100    -1.37408900
   10 H                    1.0000     0.64788700    -0.02359100    -2.03927400
 
      Atomic Mass 
      ----------- 
 
      O                 15.994910
      C                 12.000000
      H                  1.007825
 

 Effective nuclear repulsion energy (a.u.)     123.4232616674

            Nuclear Dipole moment (a.u.) 
            ----------------------------
        X                 Y               Z
 ---------------- ---------------- ----------------
    13.1406424088     3.5629517398   -10.6926875838
 
 
            XYZ format geometry
            -------------------
    10
 geometry
 O                    -0.87913500    -0.18028500     0.20527900
 C                     0.57347200    -0.15689100     0.12112700
 C                    -0.18545900     1.08805300     0.34026200
 C                     1.18596600    -0.52068000    -1.21092600
 H                     1.06764900    -0.61253100     1.01518200
 H                    -0.22819600     1.53857000     1.33679100
 H                    -0.32576000     1.78485100    -0.49629000
 H                     2.23866100    -0.21712700    -1.24565700
 H                     1.14269400    -1.60535100    -1.37408900
 H                     0.64788700    -0.02359100    -2.03927400
 
 ==============================================================================
                                internuclear distances
 ------------------------------------------------------------------------------
       center one      |      center two      | atomic units |  angstroms
 ------------------------------------------------------------------------------
    2 C                |   1 O                |     2.74999  |     1.45523
    3 C                |   1 O                |     2.74374  |     1.45193
    3 C                |   2 C                |     2.78623  |     1.47441
    4 C                |   2 C                |     2.85459  |     1.51058
    5 H                |   2 C                |     2.11375  |     1.11855
    6 H                |   3 C                |     2.06825  |     1.09447
    7 H                |   3 C                |     2.07443  |     1.09774
    8 H                |   4 C                |     2.07140  |     1.09614
    9 H                |   4 C                |     2.07440  |     1.09773
   10 H                |   4 C                |     2.08965  |     1.10580
 ------------------------------------------------------------------------------
                         number of included internuclear distances:         10
 ==============================================================================



 ==============================================================================
                                 internuclear angles
 ------------------------------------------------------------------------------
        center 1       |       center 2       |       center 3       |  degrees
 ------------------------------------------------------------------------------
    2 C                |   1 O                |   3 C                |    60.95
    2 C                |   1 O                |   3 C                |    60.95
    1 O                |   2 C                |   4 C                |   116.86
    1 O                |   2 C                |   5 H                |   112.84
    3 C                |   2 C                |   4 C                |   122.90
    3 C                |   2 C                |   5 H                |   116.91
    4 C                |   2 C                |   5 H                |   115.32
    3 C                |   1 O                |   2 C                |    60.95
    1 O                |   3 C                |   6 H                |   115.19
    1 O                |   3 C                |   7 H                |   115.00
    2 C                |   3 C                |   6 H                |   120.20
    2 C                |   3 C                |   7 H                |   119.24
    6 H                |   3 C                |   7 H                |   115.32
    2 C                |   4 C                |   8 H                |   110.53
    2 C                |   4 C                |   9 H                |   110.67
    2 C                |   4 C                |  10 H                |   110.79
    8 H                |   4 C                |   9 H                |   107.87
    8 H                |   4 C                |  10 H                |   108.61
    9 H                |   4 C                |  10 H                |   108.28
 ------------------------------------------------------------------------------
                            number of included internuclear angles:         19
 ==============================================================================



  warning:::::::::::::: from_environment
  NWCHEM_BASIS_LIBRARY set to: <
 /util/academic/nwchem/nwchem-6.8/src/basis/libraries>
  but file does not exist !
  using .nwchemrc or compiled library


 Summary of "ao basis" -> "" (spherical)
 ------------------------------------------------------------------------------
       Tag                 Description            Shells   Functions and Types
 ---------------- ------------------------------  ------  ---------------------
 *                         def2-TZVP                  on all atoms 


 
                                 NWChem DFT Module
                                 -----------------
 
 
                    methyloxirane roa calculations at 488.9 nm, input generated in va  with delta_type=2
 
 
                      Basis "ao basis" -> "ao basis" (spherical)
                      -----
  O (Oxygen)
  ----------
            Exponent  Coefficients 
       -------------- ---------------------------------------------------------
  1 S  2.70323826E+04  0.000217
  1 S  4.05238714E+03  0.001684
  1 S  9.22327227E+02  0.008740
  1 S  2.61240710E+02  0.035240
  1 S  8.53546414E+01  0.111535
  1 S  3.10350352E+01  0.255890
 
  2 S  1.22608607E+01  0.397687
  2 S  4.99870760E+00  0.246278
 
  3 S  1.17031082E+00  1.000000
 
  4 S  4.64747410E-01  1.000000
 
  5 S  1.85045364E-01  1.000000
 
  6 P  6.32749548E+01  0.006069
  6 P  1.46270494E+01  0.041913
  6 P  4.45012235E+00  0.161538
  6 P  1.52757996E+00  0.357070
 
  7 P  5.29351179E-01  1.000000
 
  8 P  1.74784213E-01  1.000000
 
  9 D  2.31400000E+00  1.000000
 
 10 D  6.45000000E-01  1.000000
 
 11 F  1.42800000E+00  1.000000
 
  C (Carbon)
  ----------
            Exponent  Coefficients 
       -------------- ---------------------------------------------------------
  1 S  1.35753497E+04  0.000222
  1 S  2.03523337E+03  0.001723
  1 S  4.63225624E+02  0.008926
  1 S  1.31200196E+02  0.035728
  1 S  4.28530159E+01  0.110763
  1 S  1.55841858E+01  0.242956
 
  2 S  6.20671385E+00  0.414403
  2 S  2.57648965E+00  0.237450
 
  3 S  5.76963394E-01  1.000000
 
  4 S  2.29728314E-01  1.000000
 
  5 S  9.51644400E-02  1.000000
 
  6 P  3.46972322E+01  0.005333
  6 P  7.95826228E+00  0.035864
  6 P  2.37808269E+00  0.142159
  6 P  8.14332082E-01  0.342705
 
  7 P  2.88875473E-01  1.000000
 
  8 P  1.00568237E-01  1.000000
 
  9 D  1.09700000E+00  1.000000
 
 10 D  3.18000000E-01  1.000000
 
 11 F  7.61000000E-01  1.000000
 
  H (Hydrogen)
  ------------
            Exponent  Coefficients 
       -------------- ---------------------------------------------------------
  1 S  3.40613410E+01  0.006025
  1 S  5.12357460E+00  0.045021
  1 S  1.16466260E+00  0.201897
 
  2 S  3.27230410E-01  1.000000
 
  3 S  1.03072410E-01  1.000000
 
  4 P  8.00000000E-01  1.000000
 


 Summary of "ao basis" -> "ao basis" (spherical)
 ------------------------------------------------------------------------------
       Tag                 Description            Shells   Functions and Types
 ---------------- ------------------------------  ------  ---------------------
 O                         def2-TZVP                11       31   5s3p2d1f
 C                         def2-TZVP                11       31   5s3p2d1f
 H                         def2-TZVP                 4        6   3s1p




 Summary of "ao basis" -> "ao basis" (spherical)
 ------------------------------------------------------------------------------
       Tag                 Description            Shells   Functions and Types
 ---------------- ------------------------------  ------  ---------------------
 O                         def2-TZVP                11       31   5s3p2d1f
 C                         def2-TZVP                11       31   5s3p2d1f
 H                         def2-TZVP                 4        6   3s1p


  Caching 1-el integrals 
  itol2e modified to match energy
  convergence criterion.
  tol_rho modified to match energy
  convergence criterion.
 
            General Information
            -------------------
          SCF calculation type: DFT
          Wavefunction type:  closed shell.
          No. of atoms     :    10
          No. of electrons :    32
           Alpha electrons :    16
            Beta electrons :    16
          Charge           :     0
          Spin multiplicity:     1
          Use of symmetry is: off; symmetry adaption is: off
          Maximum number of iterations: 250
          This is a Direct SCF calculation.
          AO basis - number of functions:   160
                     number of shells:    68
          Convergence on energy requested:  1.00D-08
          Convergence on density requested:  1.00D-05
          Convergence on gradient requested:  1.00D-07
 
              XC Information
              --------------
                    Becke 1988 Exchange Functional  1.000          
              Lee-Yang-Parr Correlation Functional  1.000          
 
             Grid Information
             ----------------
          Grid used for XC integration:  xfine     
          Radial quadrature: Mura-Knowles        
          Angular quadrature: Lebedev. 
          Tag              B.-S. Rad. Rad. Pts. Rad. Cut. Ang. Pts.
          ---              ---------- --------- --------- ---------
          O                   0.60      100          11.0      1454
          C                   0.70      100          11.0      1454
          H                   0.35      100          12.0      1202
          Grid pruning is: on 
          Number of quadrature shells:  1000
          Spatial weights used:  Erf1
 
          Convergence Information
          -----------------------
          Convergence aids based upon iterative change in 
          total energy or number of iterations. 
          Levelshifting, if invoked, occurs when the 
          HOMO/LUMO gap drops below (HL_TOL):  1.00D-02
          DIIS, if invoked, will attempt to extrapolate 
          using up to (NFOCK): 10 stored Fock matrices.

                    Damping( 0%)  Levelshifting(0.0)       DIIS
                  --------------- ------------------- ---------------
          dE  on:    start             N/A                start   
          dE off:    2 iters           N/A              250 iters 

 
      Screening Tolerance Information
      -------------------------------
          Density screening/tol_rho:  1.00D-11
          AO Gaussian exp screening on grid/accAOfunc:  18
          CD Gaussian exp screening on grid/accCDfunc:  20
          XC Gaussian exp screening on grid/accXCfunc:  20
          Schwarz screening/accCoul:  1.00D-09

 
      Superposition of Atomic Density Guess
      -------------------------------------
 
 Sum of atomic energies:        -190.79714706
 
      Non-variational initial energy
      ------------------------------

 Total energy =    -193.142128
 1-e energy   =    -501.838335
 2-e energy   =     185.272946
 HOMO         =      -0.350679
 LUMO         =       0.090281
 
   Time after variat. SCF:      0.6
   Time prior to 1st pass:      0.6

 Grid_pts file          = ./methyloxirane_blyp-def2-tzvp_488.9_21.inp.gridpts.0
 Record size in doubles =  12289        No. of grid_pts per rec  =   3070
 Max. records in memory =     76        Max. recs in file   =    554552


           Memory utilization after 1st SCF pass: 
           Heap Space remaining (MW):       12.17            12167538
          Stack Space remaining (MW):       13.11            13106116

   convergence    iter        energy       DeltaE   RMS-Dens  Diis-err    time
 ---------------- ----- ----------------- --------- --------- ---------  ------
 d= 0,ls=0.0,diis     1   -193.0191710914 -3.16D+02  9.22D-03  1.06D+00     6.4
 d= 0,ls=0.0,diis     2   -192.8536278813  1.66D-01  7.62D-03  2.60D+00    12.0
 d= 0,ls=0.0,diis     3   -193.0769716947 -2.23D-01  1.83D-03  3.85D-01    17.5
 d= 0,ls=0.0,diis     4   -193.1069029098 -2.99D-02  6.97D-04  1.87D-02    23.0
 d= 0,ls=0.0,diis     5   -193.1086186963 -1.72D-03  2.98D-04  2.77D-03    28.5
 d= 0,ls=0.0,diis     6   -193.1089646644 -3.46D-04  3.10D-05  3.68D-05    34.0
 d= 0,ls=0.0,diis     7   -193.1089689185 -4.25D-06  8.57D-06  5.07D-06    39.4
 d= 0,ls=0.0,diis     8   -193.1089694606 -5.42D-07  2.75D-06  4.39D-07    44.9
 d= 0,ls=0.0,diis     9   -193.1089695081 -4.75D-08  7.82D-07  2.97D-08    50.4
 d= 0,ls=0.0,diis    10   -193.1089695115 -3.40D-09  2.30D-07  3.35D-09    55.9


         Total DFT energy =     -193.108969511547
      One electron energy =     -505.469974720365
           Coulomb energy =      215.947931001543
    Exchange-Corr. energy =      -27.010187460085
 Nuclear repulsion energy =      123.423261667360

 Numeric. integr. density =       31.999999972101

     Total iterative time =     55.3s


 
                       DFT Final Molecular Orbital Analysis
                       ------------------------------------
 
 Vector    1  Occ=2.000000D+00  E=-1.878015D+01
              MO Center= -8.8D-01, -1.8D-01,  2.1D-01, r^2= 1.5D-02
   Bfn.  Coefficient  Atom+Function         Bfn.  Coefficient  Atom+Function  
  ----- ------------  ---------------      ----- ------------  ---------------
     2      0.638477   1 O  s                 1      0.435422   1 O  s         
     3      0.039890   1 O  s                 4     -0.033254   1 O  s         
 
 Vector    2  Occ=2.000000D+00  E=-9.965348D+00
              MO Center=  5.7D-01, -1.6D-01,  1.2D-01, r^2= 2.8D-02
   Bfn.  Coefficient  Atom+Function         Bfn.  Coefficient  Atom+Function  
  ----- ------------  ---------------      ----- ------------  ---------------
    33      0.606959   2 C  s                32      0.467280   2 C  s         
    34      0.042444   2 C  s                36      0.037607   2 C  s         
    35     -0.027888   2 C  s         
 
 Vector    3  Occ=2.000000D+00  E=-9.956262D+00
              MO Center= -1.9D-01,  1.1D+00,  3.4D-01, r^2= 2.8D-02
   Bfn.  Coefficient  Atom+Function         Bfn.  Coefficient  Atom+Function  
  ----- ------------  ---------------      ----- ------------  ---------------
    64      0.607048   3 C  s                63      0.467234   3 C  s         
    65      0.039669   3 C  s         
 
 Vector    4  Occ=2.000000D+00  E=-9.908647D+00
              MO Center=  1.2D+00, -5.2D-01, -1.2D+00, r^2= 2.8D-02
   Bfn.  Coefficient  Atom+Function         Bfn.  Coefficient  Atom+Function  
  ----- ------------  ---------------      ----- ------------  ---------------
    95      0.606966   4 C  s                94      0.467217   4 C  s         
    96      0.040579   4 C  s                98      0.035730   4 C  s         
 
 Vector    5  Occ=2.000000D+00  E=-9.630259D-01
              MO Center= -4.7D-01,  5.6D-02,  2.1D-01, r^2= 6.5D-01
   Bfn.  Coefficient  Atom+Function         Bfn.  Coefficient  Atom+Function  
  ----- ------------  ---------------      ----- ------------  ---------------
     4      0.375457   1 O  s                 3      0.277475   1 O  s         
     2     -0.192831   1 O  s                34      0.139786   2 C  s         
    65      0.139176   3 C  s                 5      0.122692   1 O  s         
    35      0.104984   2 C  s                 6      0.093371   1 O  px        
    66      0.093773   3 C  s                69     -0.091569   3 C  py        
 
 Vector    6  Occ=2.000000D+00  E=-6.696119D-01
              MO Center=  9.5D-01, -3.9D-01, -7.8D-01, r^2= 1.5D+00
   Bfn.  Coefficient  Atom+Function         Bfn.  Coefficient  Atom+Function  
  ----- ------------  ---------------      ----- ------------  ---------------
    97      0.286723   4 C  s                96      0.277270   4 C  s         
    35      0.184202   2 C  s                95     -0.174561   4 C  s         
    34      0.173523   2 C  s                 4     -0.146671   1 O  s         
    33     -0.108270   2 C  s                 3     -0.102554   1 O  s         
    94     -0.083635   4 C  s                 5     -0.072651   1 O  s         
 
 Vector    7  Occ=2.000000D+00  E=-5.896001D-01
              MO Center= -1.3D-01,  7.2D-01,  2.2D-01, r^2= 2.0D+00
   Bfn.  Coefficient  Atom+Function         Bfn.  Coefficient  Atom+Function  
  ----- ------------  ---------------      ----- ------------  ---------------
    66      0.327027   3 C  s                65      0.278590   3 C  s         
     4     -0.238703   1 O  s                64     -0.172110   3 C  s         
     3     -0.168684   1 O  s                 5     -0.148155   1 O  s         
     2      0.111346   1 O  s                38      0.106122   2 C  py        
   132      0.102652   6 H  s                97     -0.098453   4 C  s         
 
 Vector    8  Occ=2.000000D+00  E=-5.275070D-01
              MO Center=  4.0D-01,  2.5D-02, -1.0D-01, r^2= 2.7D+00
   Bfn.  Coefficient  Atom+Function         Bfn.  Coefficient  Atom+Function  
  ----- ------------  ---------------      ----- ------------  ---------------
    35      0.306812   2 C  s                34      0.226947   2 C  s         
    97     -0.153748   4 C  s                66     -0.152010   3 C  s         
    33     -0.139265   2 C  s                96     -0.127439   4 C  s         
   126      0.127313   5 H  s                 6      0.111216   1 O  px        
   125      0.101228   5 H  s                65     -0.098330   3 C  s         
 
 Vector    9  Occ=2.000000D+00  E=-4.471058D-01
              MO Center=  1.2D-01,  2.9D-01,  2.5D-01, r^2= 2.5D+00
   Bfn.  Coefficient  Atom+Function         Bfn.  Coefficient  Atom+Function  
  ----- ------------  ---------------      ----- ------------  ---------------
    70      0.213086   3 C  pz               39      0.156353   2 C  pz        
   132      0.145324   6 H  s                73      0.134108   3 C  pz        
     8      0.129425   1 O  pz              126      0.116012   5 H  s         
   131      0.107620   6 H  s                 6     -0.105153   1 O  px        
    11      0.104864   1 O  pz               38     -0.104862   2 C  py        
 
 Vector   10  Occ=2.000000D+00  E=-4.133465D-01
              MO Center=  5.7D-02,  2.7D-01, -2.4D-01, r^2= 2.6D+00
   Bfn.  Coefficient  Atom+Function         Bfn.  Coefficient  Atom+Function  
  ----- ------------  ---------------      ----- ------------  ---------------
    69      0.217000   3 C  py              101      0.155422   4 C  pz        
   138      0.151331   7 H  s                 6     -0.143835   1 O  px        
    38     -0.141129   2 C  py               37      0.129433   2 C  px        
     7     -0.125074   1 O  py               72      0.122758   3 C  py        
     9     -0.114990   1 O  px               70     -0.110062   3 C  pz        
 
 Vector   11  Occ=2.000000D+00  E=-3.772558D-01
              MO Center=  9.2D-01, -3.3D-01, -7.6D-01, r^2= 2.6D+00
   Bfn.  Coefficient  Atom+Function         Bfn.  Coefficient  Atom+Function  
  ----- ------------  ---------------      ----- ------------  ---------------
    99      0.208730   4 C  px              144      0.184940   8 H  s         
   100      0.169812   4 C  py              150     -0.144564   9 H  s         
   102      0.133605   4 C  px              143      0.129564   8 H  s         
    37      0.128812   2 C  px                6     -0.119148   1 O  px        
   103      0.111758   4 C  py                7      0.109797   1 O  py        
 
 Vector   12  Occ=2.000000D+00  E=-3.557162D-01
              MO Center=  5.9D-01, -3.2D-01, -8.7D-01, r^2= 2.9D+00
   Bfn.  Coefficient  Atom+Function         Bfn.  Coefficient  Atom+Function  
  ----- ------------  ---------------      ----- ------------  ---------------
   100      0.253027   4 C  py              150     -0.183188   9 H  s         
   156      0.177230  10 H  s                 7     -0.169467   1 O  py        
   103      0.164219   4 C  py               10     -0.135770   1 O  py        
   149     -0.127622   9 H  s               155      0.125026  10 H  s         
    70      0.120450   3 C  pz              106      0.102567   4 C  py        
 
 Vector   13  Occ=2.000000D+00  E=-3.290243D-01
              MO Center=  2.9D-01,  2.3D-01, -2.3D-01, r^2= 2.7D+00
   Bfn.  Coefficient  Atom+Function         Bfn.  Coefficient  Atom+Function  
  ----- ------------  ---------------      ----- ------------  ---------------
    39     -0.199597   2 C  pz                7      0.193360   1 O  py        
   101      0.177266   4 C  pz               70      0.160023   3 C  pz        
   138     -0.159506   7 H  s                10      0.156316   1 O  py        
    99     -0.147602   4 C  px               42     -0.135935   2 C  pz        
   104      0.125143   4 C  pz              137     -0.107034   7 H  s         
 
 Vector   14  Occ=2.000000D+00  E=-3.198628D-01
              MO Center=  4.4D-01, -4.1D-02, -2.1D-01, r^2= 3.0D+00
   Bfn.  Coefficient  Atom+Function         Bfn.  Coefficient  Atom+Function  
  ----- ------------  ---------------      ----- ------------  ---------------
     7      0.179668   1 O  py              126      0.173906   5 H  s         
   156      0.157977  10 H  s                39      0.154466   2 C  pz        
    10      0.147698   1 O  py               99     -0.141587   4 C  px        
   101     -0.140568   4 C  pz                6     -0.139670   1 O  px        
    37      0.123550   2 C  px              144     -0.120264   8 H  s         
 
 Vector   15  Occ=2.000000D+00  E=-2.637359D-01
              MO Center=  1.5D-02,  1.5D-01,  3.5D-02, r^2= 2.3D+00
   Bfn.  Coefficient  Atom+Function         Bfn.  Coefficient  Atom+Function  
  ----- ------------  ---------------      ----- ------------  ---------------
    68      0.264711   3 C  px               38      0.256817   2 C  py        
     6     -0.236682   1 O  px               41      0.200098   2 C  py        
    71      0.196559   3 C  px                9     -0.185115   1 O  px        
    12     -0.156705   1 O  px              150      0.114740   9 H  s         
   100     -0.110971   4 C  py               67      0.105686   3 C  s         
 
 Vector   16  Occ=2.000000D+00  E=-2.199013D-01
              MO Center= -5.7D-01, -2.7D-02,  2.0D-01, r^2= 1.6D+00
   Bfn.  Coefficient  Atom+Function         Bfn.  Coefficient  Atom+Function  
  ----- ------------  ---------------      ----- ------------  ---------------
     8      0.448222   1 O  pz               11      0.357004   1 O  pz        
    14      0.295551   1 O  pz              133     -0.130597   6 H  s         
   139      0.116388   7 H  s               132     -0.103676   6 H  s         
   138      0.103986   7 H  s               145     -0.102477   8 H  s         
   126     -0.099017   5 H  s                98      0.090268   4 C  s         
 
 Vector   17  Occ=0.000000D+00  E= 2.522372D-02
              MO Center=  1.2D+00, -9.6D-02, -5.3D-01, r^2= 7.3D+00
   Bfn.  Coefficient  Atom+Function         Bfn.  Coefficient  Atom+Function  
  ----- ------------  ---------------      ----- ------------  ---------------
    98      4.377432   4 C  s               145     -1.496741   8 H  s         
   151     -1.476355   9 H  s               157     -1.304535  10 H  s         
   127     -1.259643   5 H  s                45      1.127262   2 C  pz        
   139     -0.859201   7 H  s                67      0.702630   3 C  s         
   133     -0.628998   6 H  s                75      0.327102   3 C  py        
 
 Vector   18  Occ=0.000000D+00  E= 4.274606D-02
              MO Center= -1.2D-01,  6.5D-01,  9.2D-02, r^2= 4.5D+00
   Bfn.  Coefficient  Atom+Function         Bfn.  Coefficient  Atom+Function  
  ----- ------------  ---------------      ----- ------------  ---------------
    98     -2.204690   4 C  s                36      2.013597   2 C  s         
     5     -1.268179   1 O  s                74     -0.938986   3 C  px        
   151      0.832857   9 H  s                45     -0.499493   2 C  pz        
   157      0.450780  10 H  s                13     -0.434876   1 O  py        
    67     -0.424246   3 C  s                44      0.399357   2 C  py        
 
 Vector   19  Occ=0.000000D+00  E= 4.765335D-02
              MO Center=  5.8D-01,  1.5D-01, -1.9D-02, r^2= 7.0D+00
   Bfn.  Coefficient  Atom+Function         Bfn.  Coefficient  Atom+Function  
  ----- ------------  ---------------      ----- ------------  ---------------
    36      2.667583   2 C  s                98     -2.118522   4 C  s         
   127     -2.055513   5 H  s               157      1.296011  10 H  s         
   139      1.268563   7 H  s                67     -1.050496   3 C  s         
    76      0.685296   3 C  pz               43      0.667727   2 C  px        
   133     -0.645056   6 H  s                 5      0.352379   1 O  s         
 
 Vector   20  Occ=0.000000D+00  E= 5.053358D-02
              MO Center=  3.9D-01,  9.0D-01,  2.3D-01, r^2= 7.1D+00
   Bfn.  Coefficient  Atom+Function         Bfn.  Coefficient  Atom+Function  
  ----- ------------  ---------------      ----- ------------  ---------------
    67      3.688633   3 C  s                98     -2.755034   4 C  s         
   133     -1.704517   6 H  s               145      1.264105   8 H  s         
    44     -1.161195   2 C  py              139     -1.101707   7 H  s         
   151      0.667132   9 H  s                45     -0.622813   2 C  pz        
    36     -0.599372   2 C  s                74      0.530418   3 C  px        
 
 Vector   21  Occ=0.000000D+00  E= 6.458371D-02
              MO Center=  2.7D-01,  7.5D-02, -1.5D-01, r^2= 4.7D+00
   Bfn.  Coefficient  Atom+Function         Bfn.  Coefficient  Atom+Function  
  ----- ------------  ---------------      ----- ------------  ---------------
    98      1.243130   4 C  s               139      1.168385   7 H  s         
   151     -0.956170   9 H  s                 5     -0.906127   1 O  s         
    43     -0.852908   2 C  px               67     -0.847327   3 C  s         
    75     -0.588635   3 C  py              133      0.573583   6 H  s         
    12     -0.490687   1 O  px               35      0.385238   2 C  s         
 
 Vector   22  Occ=0.000000D+00  E= 8.560443D-02
              MO Center=  1.2D+00,  2.6D-01, -4.6D-01, r^2= 7.2D+00
   Bfn.  Coefficient  Atom+Function         Bfn.  Coefficient  Atom+Function  
  ----- ------------  ---------------      ----- ------------  ---------------
    36      2.963043   2 C  s               145      1.931188   8 H  s         
    67     -1.441558   3 C  s               157     -1.337353  10 H  s         
   127     -1.292377   5 H  s               133      1.234401   6 H  s         
   107     -1.157085   4 C  pz               98     -1.119038   4 C  s         
   105     -0.946529   4 C  px               75      0.786998   3 C  py        
 
 Vector   23  Occ=0.000000D+00  E= 9.149679D-02
              MO Center=  1.3D+00, -6.8D-01, -6.0D-01, r^2= 6.4D+00
   Bfn.  Coefficient  Atom+Function         Bfn.  Coefficient  Atom+Function  
  ----- ------------  ---------------      ----- ------------  ---------------
    36      2.237002   2 C  s               151      2.095993   9 H  s         
   145     -1.720681   8 H  s                98     -1.189205   4 C  s         
   105      1.177601   4 C  px              106      1.171098   4 C  py        
   133      0.869766   6 H  s                67     -0.793460   3 C  s         
   127     -0.697283   5 H  s                44     -0.651401   2 C  py        
 
 Vector   24  Occ=0.000000D+00  E= 1.017134D-01
              MO Center=  4.1D-01,  4.6D-01, -1.0D+00, r^2= 6.9D+00
   Bfn.  Coefficient  Atom+Function         Bfn.  Coefficient  Atom+Function  
  ----- ------------  ---------------      ----- ------------  ---------------
   157      1.962076  10 H  s               133      1.639671   6 H  s         
   139     -1.528923   7 H  s               106     -1.459448   4 C  py        
   151     -1.424132   9 H  s                98     -1.346295   4 C  s         
    36      1.284571   2 C  s                76     -1.193521   3 C  pz        
   105      0.954643   4 C  px               45     -0.483912   2 C  pz        
 
 Vector   25  Occ=0.000000D+00  E= 1.383625D-01
              MO Center=  8.0D-01,  1.9D-01, -4.7D-01, r^2= 7.8D+00
   Bfn.  Coefficient  Atom+Function         Bfn.  Coefficient  Atom+Function  
  ----- ------------  ---------------      ----- ------------  ---------------
    36      4.858927   2 C  s                98     -3.566144   4 C  s         
    45     -3.357513   2 C  pz               67     -2.798078   3 C  s         
   127      2.555982   5 H  s                76      2.153828   3 C  pz        
   105      2.096052   4 C  px              133     -1.774841   6 H  s         
   139      1.674895   7 H  s               107     -1.596414   4 C  pz        
 
 Vector   26  Occ=0.000000D+00  E= 1.700371D-01
              MO Center=  4.3D-01,  5.6D-01, -1.2D-01, r^2= 7.3D+00
   Bfn.  Coefficient  Atom+Function         Bfn.  Coefficient  Atom+Function  
  ----- ------------  ---------------      ----- ------------  ---------------
    75      2.334321   3 C  py              107      1.600657   4 C  pz        
    67     -1.579363   3 C  s                36      1.536609   2 C  s         
   139     -1.157932   7 H  s               157      1.017899  10 H  s         
    74     -0.981648   3 C  px               44      0.742580   2 C  py        
    43     -0.620971   2 C  px              106     -0.565606   4 C  py        
 
 Vector   27  Occ=0.000000D+00  E= 1.971552D-01
              MO Center=  8.2D-01, -7.8D-02, -9.9D-01, r^2= 5.1D+00
   Bfn.  Coefficient  Atom+Function         Bfn.  Coefficient  Atom+Function  
  ----- ------------  ---------------      ----- ------------  ---------------
    67      3.066530   3 C  s                44     -2.593642   2 C  py        
   106      1.991518   4 C  py               36     -1.786172   2 C  s         
    43      0.971145   2 C  px               74      0.743212   3 C  px        
   105      0.740680   4 C  px               45     -0.707307   2 C  pz        
   157     -0.652419  10 H  s               150      0.641510   9 H  s         
 
 Vector   28  Occ=0.000000D+00  E= 2.019431D-01
              MO Center=  9.7D-01, -4.5D-01, -7.2D-01, r^2= 6.6D+00
   Bfn.  Coefficient  Atom+Function         Bfn.  Coefficient  Atom+Function  
  ----- ------------  ---------------      ----- ------------  ---------------
    36      2.563656   2 C  s                75      1.683962   3 C  py        
   105     -1.430124   4 C  px              133     -1.226916   6 H  s         
   107     -0.881760   4 C  pz              106      0.864150   4 C  py        
    45      0.758165   2 C  pz              139     -0.737852   7 H  s         
   156     -0.720945  10 H  s                76      0.683570   3 C  pz        
 
 Vector   29  Occ=0.000000D+00  E= 2.361991D-01
              MO Center= -3.1D-01,  4.0D-01, -4.5D-02, r^2= 5.4D+00
   Bfn.  Coefficient  Atom+Function         Bfn.  Coefficient  Atom+Function  
  ----- ------------  ---------------      ----- ------------  ---------------
    67      4.505438   3 C  s                36     -3.092659   2 C  s         
   139     -1.495209   7 H  s                66     -1.448187   3 C  s         
    98      1.292726   4 C  s               133     -1.238312   6 H  s         
   107      0.985079   4 C  pz               74     -0.798555   3 C  px        
     5     -0.764527   1 O  s               106      0.753574   4 C  py        
 
 Vector   30  Occ=0.000000D+00  E= 2.476437D-01
              MO Center=  5.7D-01, -9.0D-03, -8.9D-02, r^2= 5.8D+00
   Bfn.  Coefficient  Atom+Function         Bfn.  Coefficient  Atom+Function  
  ----- ------------  ---------------      ----- ------------  ---------------
    67      6.043311   3 C  s                43      4.219352   2 C  px        
    75     -3.002130   3 C  py               44     -2.654794   2 C  py        
    36     -2.214574   2 C  s               107     -2.081521   4 C  pz        
   157     -1.805095  10 H  s                45     -1.567522   2 C  pz        
    98     -1.456994   4 C  s               105     -1.198088   4 C  px        
 
 Vector   31  Occ=0.000000D+00  E= 2.679638D-01
              MO Center=  2.7D-01, -1.4D-01,  2.6D-01, r^2= 5.6D+00
   Bfn.  Coefficient  Atom+Function         Bfn.  Coefficient  Atom+Function  
  ----- ------------  ---------------      ----- ------------  ---------------
    36      4.200210   2 C  s                 5     -2.219000   1 O  s         
    67      2.225187   3 C  s                43     -1.559853   2 C  px        
   105      1.505573   4 C  px               66     -1.162042   3 C  s         
    98     -1.124982   4 C  s               133     -0.939047   6 H  s         
   139     -0.895099   7 H  s               106     -0.782934   4 C  py        
 
 Vector   32  Occ=0.000000D+00  E= 2.776700D-01
              MO Center=  4.0D-01,  3.1D-01,  3.0D-01, r^2= 4.2D+00
   Bfn.  Coefficient  Atom+Function         Bfn.  Coefficient  Atom+Function  
  ----- ------------  ---------------      ----- ------------  ---------------
    36      2.550949   2 C  s                 5     -1.735845   1 O  s         
    67     -1.574677   3 C  s                43     -1.225049   2 C  px        
    74     -0.721194   3 C  px               98     -0.691762   4 C  s         
    45     -0.601689   2 C  pz              145      0.582182   8 H  s         
     4      0.493600   1 O  s               157     -0.388741  10 H  s         
 
 Vector   33  Occ=0.000000D+00  E= 3.002371D-01
              MO Center=  4.6D-01,  3.6D-01, -3.8D-01, r^2= 5.0D+00
   Bfn.  Coefficient  Atom+Function         Bfn.  Coefficient  Atom+Function  
  ----- ------------  ---------------      ----- ------------  ---------------
    43      1.846215   2 C  px              106      1.779588   4 C  py        
   151      1.689444   9 H  s                98     -1.631471   4 C  s         
    36     -1.451187   2 C  s                76      1.333322   3 C  pz        
    44     -1.231356   2 C  py               66      1.054184   3 C  s         
   107     -1.010374   4 C  pz              139      0.934367   7 H  s         
 
 Vector   34  Occ=0.000000D+00  E= 3.370669D-01
              MO Center=  1.1D-01,  4.2D-01, -4.1D-01, r^2= 5.8D+00
   Bfn.  Coefficient  Atom+Function         Bfn.  Coefficient  Atom+Function  
  ----- ------------  ---------------      ----- ------------  ---------------
    67      4.497001   3 C  s                76     -3.948232   3 C  pz        
   139     -3.128756   7 H  s                36     -2.148055   2 C  s         
   133      1.998881   6 H  s               107     -1.766834   4 C  pz        
   157     -1.697819  10 H  s                98      1.517557   4 C  s         
    43      1.395140   2 C  px               44     -1.125577   2 C  py        
 
 Vector   35  Occ=0.000000D+00  E= 3.612670D-01
              MO Center=  7.6D-01,  6.9D-03, -9.8D-02, r^2= 6.6D+00
   Bfn.  Coefficient  Atom+Function         Bfn.  Coefficient  Atom+Function  
  ----- ------------  ---------------      ----- ------------  ---------------
    98      6.116815   4 C  s                36      3.511419   2 C  s         
    76      3.101594   3 C  pz              145     -2.959076   8 H  s         
    97     -2.618661   4 C  s                67     -2.530211   3 C  s         
   133     -2.097363   6 H  s               139      1.825885   7 H  s         
    44      1.580738   2 C  py              151     -1.578274   9 H  s         
 
 Vector   36  Occ=0.000000D+00  E= 3.699762D-01
              MO Center=  6.6D-01,  1.0D-01, -2.6D-01, r^2= 6.8D+00
   Bfn.  Coefficient  Atom+Function         Bfn.  Coefficient  Atom+Function  
  ----- ------------  ---------------      ----- ------------  ---------------
    36     11.877320   2 C  s                98    -10.413485   4 C  s         
    67     -7.186874   3 C  s               127     -3.253624   5 H  s         
    97      3.073465   4 C  s               157      2.571366  10 H  s         
   151      2.033090   9 H  s               145      1.869246   8 H  s         
    35     -1.735322   2 C  s               133      1.457816   6 H  s         
 
 Vector   37  Occ=0.000000D+00  E= 3.848542D-01
              MO Center=  8.3D-01, -3.0D-01, -1.5D-01, r^2= 5.9D+00
   Bfn.  Coefficient  Atom+Function         Bfn.  Coefficient  Atom+Function  
  ----- ------------  ---------------      ----- ------------  ---------------
    36      4.733014   2 C  s               127     -3.807392   5 H  s         
    98      3.334933   4 C  s                45      2.545090   2 C  pz        
   151     -2.113779   9 H  s                35     -2.025583   2 C  s         
    43      1.852791   2 C  px               76     -1.825436   3 C  pz        
   145     -1.759319   8 H  s                44     -1.727179   2 C  py        
 
 Vector   38  Occ=0.000000D+00  E= 3.937210D-01
              MO Center=  2.2D-01,  2.4D-01, -3.5D-03, r^2= 6.7D+00
   Bfn.  Coefficient  Atom+Function         Bfn.  Coefficient  Atom+Function  
  ----- ------------  ---------------      ----- ------------  ---------------
    98     11.587965   4 C  s                67     -7.797888   3 C  s         
    45      5.117579   2 C  pz               76     -3.057778   3 C  pz        
   133      2.859403   6 H  s                44      2.746218   2 C  py        
   157     -2.519307  10 H  s                75      2.069892   3 C  py        
    43     -2.002037   2 C  px               97     -1.845742   4 C  s         
 
 Vector   39  Occ=0.000000D+00  E= 4.005440D-01
              MO Center= -2.0D-01,  1.9D-01,  8.8D-02, r^2= 6.6D+00
   Bfn.  Coefficient  Atom+Function         Bfn.  Coefficient  Atom+Function  
  ----- ------------  ---------------      ----- ------------  ---------------
    36     12.910639   2 C  s                67    -12.085422   3 C  s         
    98     -6.076536   4 C  s                45     -5.592387   2 C  pz        
    44      3.768502   2 C  py              127      2.740846   5 H  s         
   105      2.649948   4 C  px               66      2.626958   3 C  s         
   139      2.537372   7 H  s                43     -2.326903   2 C  px        
 
 Vector   40  Occ=0.000000D+00  E= 4.148951D-01
              MO Center=  6.8D-01, -3.0D-01, -7.7D-01, r^2= 6.0D+00
   Bfn.  Coefficient  Atom+Function         Bfn.  Coefficient  Atom+Function  
  ----- ------------  ---------------      ----- ------------  ---------------
    98      6.118072   4 C  s                45      2.618691   2 C  pz        
   105     -2.374980   4 C  px               36     -2.264979   2 C  s         
   151     -2.125704   9 H  s               157     -1.996039  10 H  s         
   145      1.768553   8 H  s                67     -1.117868   3 C  s         
    97     -1.074268   4 C  s               144     -0.949123   8 H  s         
 
 Vector   41  Occ=0.000000D+00  E= 4.259760D-01
              MO Center=  5.3D-01,  1.1D-01, -2.0D-01, r^2= 6.9D+00
   Bfn.  Coefficient  Atom+Function         Bfn.  Coefficient  Atom+Function  
  ----- ------------  ---------------      ----- ------------  ---------------
    36     10.050092   2 C  s                98     -5.155958   4 C  s         
    67     -4.771635   3 C  s               151      2.590258   9 H  s         
    44      2.568833   2 C  py               75      2.554561   3 C  py        
    45     -1.880435   2 C  pz               43     -1.728969   2 C  px        
   105      1.511013   4 C  px               74     -1.456109   3 C  px        
 
 Vector   42  Occ=0.000000D+00  E= 4.450331D-01
              MO Center=  1.4D-01, -8.7D-02, -1.2D-01, r^2= 6.2D+00
   Bfn.  Coefficient  Atom+Function         Bfn.  Coefficient  Atom+Function  
  ----- ------------  ---------------      ----- ------------  ---------------
    36      9.008888   2 C  s                98     -8.117531   4 C  s         
    45     -5.086739   2 C  pz               76      2.631397   3 C  pz        
   127      2.629378   5 H  s                67     -2.575270   3 C  s         
   133     -2.275768   6 H  s                44      2.114842   2 C  py        
   106     -2.064576   4 C  py              157      2.063844  10 H  s         
 
 Vector   43  Occ=0.000000D+00  E= 4.576771D-01
              MO Center=  3.1D-02,  8.9D-01, -4.8D-01, r^2= 5.0D+00
   Bfn.  Coefficient  Atom+Function         Bfn.  Coefficient  Atom+Function  
  ----- ------------  ---------------      ----- ------------  ---------------
   139      3.077279   7 H  s               157     -2.346534  10 H  s         
    75     -2.211178   3 C  py              107     -2.051321   4 C  pz        
    44     -1.751120   2 C  py               43      1.684347   2 C  px        
   138     -1.492953   7 H  s                45     -1.089332   2 C  pz        
    36     -1.075552   2 C  s                74      0.871725   3 C  px        
 
 Vector   44  Occ=0.000000D+00  E= 4.671702D-01
              MO Center=  4.6D-01,  1.2D-01, -1.5D-01, r^2= 5.8D+00
   Bfn.  Coefficient  Atom+Function         Bfn.  Coefficient  Atom+Function  
  ----- ------------  ---------------      ----- ------------  ---------------
    98      6.575215   4 C  s                36     -5.896513   2 C  s         
    45      3.195138   2 C  pz              107      2.075502   4 C  pz        
   145     -1.875938   8 H  s                67      1.730912   3 C  s         
    35      1.416053   2 C  s               133     -1.279274   6 H  s         
   132      1.032030   6 H  s               157      0.997829  10 H  s         
 
 Vector   45  Occ=0.000000D+00  E= 5.073075D-01
              MO Center=  9.3D-01, -3.9D-01, -9.4D-01, r^2= 4.7D+00
   Bfn.  Coefficient  Atom+Function         Bfn.  Coefficient  Atom+Function  
  ----- ------------  ---------------      ----- ------------  ---------------
    98     11.532447   4 C  s                36     -7.590214   2 C  s         
    45      4.624254   2 C  pz              107      3.049311   4 C  pz        
   144     -1.374187   8 H  s               106      1.351980   4 C  py        
   156     -1.186712  10 H  s               127     -1.124623   5 H  s         
   150     -1.112688   9 H  s               105     -1.103089   4 C  px        
 
 Vector   46  Occ=0.000000D+00  E= 5.362706D-01
              MO Center=  6.9D-02, -4.0D-01, -4.7D-01, r^2= 4.4D+00
   Bfn.  Coefficient  Atom+Function         Bfn.  Coefficient  Atom+Function  
  ----- ------------  ---------------      ----- ------------  ---------------
    98     -6.983225   4 C  s                36      6.642033   2 C  s         
    45     -3.570048   2 C  pz               76      3.266871   3 C  pz        
   133     -1.831438   6 H  s               105      1.518846   4 C  px        
   139      1.451373   7 H  s               107     -1.389357   4 C  pz        
    14     -1.185502   1 O  pz                5     -1.131753   1 O  s         
 
 Vector   47  Occ=0.000000D+00  E= 6.578179D-01
              MO Center= -3.7D-01,  3.5D-02, -2.0D-02, r^2= 4.3D+00
   Bfn.  Coefficient  Atom+Function         Bfn.  Coefficient  Atom+Function  
  ----- ------------  ---------------      ----- ------------  ---------------
    36     11.568841   2 C  s                67     -8.964779   3 C  s         
    98     -4.021112   4 C  s                43     -2.603231   2 C  px        
    75      2.436664   3 C  py               13      2.218161   1 O  py        
    76      2.057123   3 C  pz              105      1.589038   4 C  px        
   139      1.500644   7 H  s                44      1.481308   2 C  py        
 
 Vector   48  Occ=0.000000D+00  E= 6.736159D-01
              MO Center= -2.7D-01,  3.5D-01,  1.1D-01, r^2= 3.9D+00
   Bfn.  Coefficient  Atom+Function         Bfn.  Coefficient  Atom+Function  
  ----- ------------  ---------------      ----- ------------  ---------------
    36      8.149296   2 C  s                67     -7.786178   3 C  s         
     5      2.970483   1 O  s                75      2.549671   3 C  py        
    98     -2.257280   4 C  s                13      2.099662   1 O  py        
    45     -1.242302   2 C  pz               43     -1.195428   2 C  px        
     4     -1.097648   1 O  s                44      0.907681   2 C  py        
 
 Vector   49  Occ=0.000000D+00  E= 7.072959D-01
              MO Center=  1.6D-01, -3.1D-01, -2.6D-01, r^2= 4.5D+00
   Bfn.  Coefficient  Atom+Function         Bfn.  Coefficient  Atom+Function  
  ----- ------------  ---------------      ----- ------------  ---------------
    67      9.557247   3 C  s                36     -7.396163   2 C  s         
    43      3.670152   2 C  px               44     -3.493354   2 C  py        
    75     -2.771846   3 C  py               98     -2.530765   4 C  s         
     5      2.213758   1 O  s                12      1.680970   1 O  px        
   106      1.650787   4 C  py               13     -1.332142   1 O  py        
 
 Vector   50  Occ=0.000000D+00  E= 7.595898D-01
              MO Center=  6.2D-01, -1.1D-02, -3.4D-01, r^2= 4.1D+00
   Bfn.  Coefficient  Atom+Function         Bfn.  Coefficient  Atom+Function  
  ----- ------------  ---------------      ----- ------------  ---------------
    45      2.400070   2 C  pz              105     -1.636116   4 C  px        
   127     -1.626513   5 H  s                 5     -1.542485   1 O  s         
    43      1.421884   2 C  px               36      1.397390   2 C  s         
   144      1.277462   8 H  s               126     -1.251138   5 H  s         
    76     -1.013215   3 C  pz               66      0.990670   3 C  s         
 
 Vector   51  Occ=0.000000D+00  E= 7.941733D-01
              MO Center=  2.7D-01,  5.4D-02, -1.9D-01, r^2= 4.4D+00
   Bfn.  Coefficient  Atom+Function         Bfn.  Coefficient  Atom+Function  
  ----- ------------  ---------------      ----- ------------  ---------------
     5      4.156475   1 O  s                36     -2.853348   2 C  s         
    76     -2.527572   3 C  pz                4     -1.611288   1 O  s         
    45      1.574507   2 C  pz               12      1.358752   1 O  px        
   133      1.329998   6 H  s                43      1.259092   2 C  px        
    66     -1.030912   3 C  s                35     -1.019400   2 C  s         
 
 Vector   52  Occ=0.000000D+00  E= 8.320010D-01
              MO Center=  3.2D-01,  1.6D-01, -9.1D-03, r^2= 4.4D+00
   Bfn.  Coefficient  Atom+Function         Bfn.  Coefficient  Atom+Function  
  ----- ------------  ---------------      ----- ------------  ---------------
    36      6.688197   2 C  s                98     -4.060702   4 C  s         
     5     -3.962806   1 O  s                43     -2.585647   2 C  px        
   105      1.954309   4 C  px               35     -1.856863   2 C  s         
    45     -1.775950   2 C  pz               44      1.484017   2 C  py        
    66     -1.165638   3 C  s                97      1.055152   4 C  s         
 
 Vector   53  Occ=0.000000D+00  E= 8.541873D-01
              MO Center=  6.0D-01,  1.3D-01, -3.9D-01, r^2= 4.2D+00
   Bfn.  Coefficient  Atom+Function         Bfn.  Coefficient  Atom+Function  
  ----- ------------  ---------------      ----- ------------  ---------------
    36      4.659166   2 C  s                98     -4.630008   4 C  s         
    45     -4.505498   2 C  pz               76      2.044743   3 C  pz        
   127      1.698471   5 H  s               106     -1.559344   4 C  py        
    44      1.459301   2 C  py              105      1.332168   4 C  px        
   150     -1.238503   9 H  s               139      1.065742   7 H  s         
 
 Vector   54  Occ=0.000000D+00  E= 8.714726D-01
              MO Center=  1.8D-01, -4.0D-02, -1.2D-01, r^2= 4.2D+00
   Bfn.  Coefficient  Atom+Function         Bfn.  Coefficient  Atom+Function  
  ----- ------------  ---------------      ----- ------------  ---------------
     5      4.584925   1 O  s                36     -1.686408   2 C  s         
     4     -1.560424   1 O  s               138      1.422620   7 H  s         
    76      1.321726   3 C  pz               67     -1.235047   3 C  s         
    12      1.187510   1 O  px               66     -1.136045   3 C  s         
    98     -0.974459   4 C  s                43      0.851522   2 C  px        
 
 Vector   55  Occ=0.000000D+00  E= 9.197941D-01
              MO Center=  5.0D-01,  3.1D-01, -4.7D-01, r^2= 4.5D+00
   Bfn.  Coefficient  Atom+Function         Bfn.  Coefficient  Atom+Function  
  ----- ------------  ---------------      ----- ------------  ---------------
    35      4.940357   2 C  s                36     -1.741158   2 C  s         
    67      1.477658   3 C  s               132     -1.329570   6 H  s         
    72      1.273319   3 C  py               66     -1.251449   3 C  s         
    84      1.159345   3 C  d  0             41      1.147227   2 C  py        
   156     -1.123169  10 H  s               116     -1.076351   4 C  d  1      
 
 Vector   56  Occ=0.000000D+00  E= 9.610477D-01
              MO Center=  4.6D-01,  2.9D-01, -5.5D-01, r^2= 4.7D+00
   Bfn.  Coefficient  Atom+Function         Bfn.  Coefficient  Atom+Function  
  ----- ------------  ---------------      ----- ------------  ---------------
    35      4.225813   2 C  s                67      2.639481   3 C  s         
   138     -2.308961   7 H  s                76     -1.843372   3 C  pz        
    42     -1.739958   2 C  pz               36     -1.672364   2 C  s         
    83     -1.632523   3 C  d -1            115     -1.480587   4 C  d  0      
   132      1.350399   6 H  s                98     -1.300477   4 C  s         
 
 Vector   57  Occ=0.000000D+00  E= 9.922283D-01
              MO Center=  3.2D-01,  5.2D-01, -9.6D-02, r^2= 4.0D+00
   Bfn.  Coefficient  Atom+Function         Bfn.  Coefficient  Atom+Function  
  ----- ------------  ---------------      ----- ------------  ---------------
    36      7.309632   2 C  s                98     -4.747809   4 C  s         
    67     -3.761753   3 C  s                45     -3.594948   2 C  pz        
    43     -2.240828   2 C  px               44      2.057469   2 C  py        
    66     -1.620571   3 C  s               127      1.452655   5 H  s         
    75      1.426496   3 C  py              126      1.213348   5 H  s         
 
 Vector   58  Occ=0.000000D+00  E= 1.012490D+00
              MO Center=  3.9D-01,  5.2D-01, -7.1D-02, r^2= 4.3D+00
   Bfn.  Coefficient  Atom+Function         Bfn.  Coefficient  Atom+Function  
  ----- ------------  ---------------      ----- ------------  ---------------
    36      5.753121   2 C  s                67     -4.607849   3 C  s         
    45     -2.210713   2 C  pz               44      1.906101   2 C  py        
    98     -1.843248   4 C  s               156     -1.474356  10 H  s         
   144      1.393174   8 H  s                43     -1.375206   2 C  px        
    74     -1.332730   3 C  px               82      1.328290   3 C  d -2      
 
 Vector   59  Occ=0.000000D+00  E= 1.041473D+00
              MO Center=  7.0D-01, -1.7D-01, -4.6D-01, r^2= 4.2D+00
   Bfn.  Coefficient  Atom+Function         Bfn.  Coefficient  Atom+Function  
  ----- ------------  ---------------      ----- ------------  ---------------
    36      2.743303   2 C  s                35      2.717008   2 C  s         
    66     -2.341699   3 C  s               150      1.971358   9 H  s         
   144     -1.923913   8 H  s                 5     -1.882491   1 O  s         
   117      1.728585   4 C  d  2             41      1.529526   2 C  py        
    44      1.367796   2 C  py               67     -1.329485   3 C  s         
 
 Vector   60  Occ=0.000000D+00  E= 1.078749D+00
              MO Center=  6.7D-01,  1.4D-02, -6.8D-02, r^2= 4.1D+00
   Bfn.  Coefficient  Atom+Function         Bfn.  Coefficient  Atom+Function  
  ----- ------------  ---------------      ----- ------------  ---------------
    98      4.146269   4 C  s                66     -4.047898   3 C  s         
    45      3.772526   2 C  pz               97      3.734183   4 C  s         
    36     -3.396069   2 C  s                41      2.578929   2 C  py        
   104      2.499317   4 C  pz               42      2.358042   2 C  pz        
    72      2.347133   3 C  py               53     -2.225157   2 C  d  0      
 
 Vector   61  Occ=0.000000D+00  E= 1.105846D+00
              MO Center=  3.7D-01,  6.2D-02,  5.8D-02, r^2= 3.8D+00
   Bfn.  Coefficient  Atom+Function         Bfn.  Coefficient  Atom+Function  
  ----- ------------  ---------------      ----- ------------  ---------------
    36      7.591953   2 C  s                67     -5.278732   3 C  s         
    98     -2.941181   4 C  s                66      2.164940   3 C  s         
    45     -1.921957   2 C  pz              126     -1.889665   5 H  s         
   132      1.652302   6 H  s                72     -1.599295   3 C  py        
    41     -1.453876   2 C  py               53      1.439575   2 C  d  0      
 
 Vector   62  Occ=0.000000D+00  E= 1.147826D+00
              MO Center=  6.3D-01,  6.2D-03, -3.8D-02, r^2= 3.5D+00
   Bfn.  Coefficient  Atom+Function         Bfn.  Coefficient  Atom+Function  
  ----- ------------  ---------------      ----- ------------  ---------------
    67      5.100089   3 C  s                36     -3.892862   2 C  s         
    44     -2.360776   2 C  py               97     -1.787471   4 C  s         
   126      1.725199   5 H  s                54      1.572106   2 C  d  1      
    43      1.526477   2 C  px               55      1.478751   2 C  d  2      
    75     -1.411773   3 C  py               42     -1.381174   2 C  pz        
 
 Vector   63  Occ=0.000000D+00  E= 1.215089D+00
              MO Center=  5.6D-01,  2.0D-01, -1.4D-01, r^2= 3.8D+00
   Bfn.  Coefficient  Atom+Function         Bfn.  Coefficient  Atom+Function  
  ----- ------------  ---------------      ----- ------------  ---------------
    36      6.739023   2 C  s                66     -5.060991   3 C  s         
    97     -3.377729   4 C  s                67     -3.311963   3 C  s         
    35      3.263230   2 C  s                72      1.965203   3 C  py        
    51     -1.778249   2 C  d -2             52      1.699638   2 C  d -1      
   138      1.630979   7 H  s               104     -1.516602   4 C  pz        
 
 Vector   64  Occ=0.000000D+00  E= 1.349923D+00
              MO Center=  3.3D-01,  5.7D-01,  2.3D-01, r^2= 3.5D+00
   Bfn.  Coefficient  Atom+Function         Bfn.  Coefficient  Atom+Function  
  ----- ------------  ---------------      ----- ------------  ---------------
    66      4.807733   3 C  s                35      3.752378   2 C  s         
    67     -3.215584   3 C  s                36     -2.584824   2 C  s         
    65     -2.456151   3 C  s               132     -2.061558   6 H  s         
   133      1.444054   6 H  s                34     -1.389273   2 C  s         
    72      1.339879   3 C  py              139      1.097764   7 H  s         
 
 Vector   65  Occ=0.000000D+00  E= 1.417505D+00
              MO Center=  1.2D-01,  5.3D-01, -7.7D-02, r^2= 3.3D+00
   Bfn.  Coefficient  Atom+Function         Bfn.  Coefficient  Atom+Function  
  ----- ------------  ---------------      ----- ------------  ---------------
    36      3.952866   2 C  s                67     -3.555608   3 C  s         
    35     -3.425044   2 C  s                66      3.409988   3 C  s         
    73     -2.392639   3 C  pz              139      2.180602   7 H  s         
   138     -2.159381   7 H  s                76      1.848048   3 C  pz        
   126      1.470087   5 H  s                34      1.435880   2 C  s         
 
 Vector   66  Occ=0.000000D+00  E= 1.432889D+00
              MO Center=  1.1D+00, -5.1D-01, -1.1D+00, r^2= 3.4D+00
   Bfn.  Coefficient  Atom+Function         Bfn.  Coefficient  Atom+Function  
  ----- ------------  ---------------      ----- ------------  ---------------
    98     10.231104   4 C  s                97     -7.592070   4 C  s         
    96      3.081170   4 C  s                36     -2.485896   2 C  s         
   145     -2.472448   8 H  s               151     -2.406107   9 H  s         
   157     -1.961740  10 H  s               144      1.798998   8 H  s         
   150      1.774896   9 H  s               104      1.362763   4 C  pz        
 
 Vector   67  Occ=0.000000D+00  E= 1.442452D+00
              MO Center=  4.7D-01,  2.5D-02, -3.4D-01, r^2= 4.1D+00
   Bfn.  Coefficient  Atom+Function         Bfn.  Coefficient  Atom+Function  
  ----- ------------  ---------------      ----- ------------  ---------------
    66      4.452381   3 C  s                67     -3.254368   3 C  s         
    35     -2.882798   2 C  s                36      2.767859   2 C  s         
   133      1.663166   6 H  s                98      1.620521   4 C  s         
    65     -1.597435   3 C  s                76     -1.341224   3 C  pz        
    45      1.327360   2 C  pz              127     -1.271702   5 H  s         
 
 Vector   68  Occ=0.000000D+00  E= 1.446429D+00
              MO Center=  2.4D-01, -5.3D-02,  3.7D-02, r^2= 3.0D+00
   Bfn.  Coefficient  Atom+Function         Bfn.  Coefficient  Atom+Function  
  ----- ------------  ---------------      ----- ------------  ---------------
    98      5.229652   4 C  s                97     -2.800644   4 C  s         
    45      2.334119   2 C  pz               35     -2.152421   2 C  s         
    36     -2.006956   2 C  s                 5      1.790953   1 O  s         
   127     -1.596455   5 H  s                76     -1.253065   3 C  pz        
    42     -1.207809   2 C  pz               96      1.187516   4 C  s         
 
 Vector   69  Occ=0.000000D+00  E= 1.474024D+00
              MO Center=  8.7D-01, -2.4D-01, -9.1D-01, r^2= 3.7D+00
   Bfn.  Coefficient  Atom+Function         Bfn.  Coefficient  Atom+Function  
  ----- ------------  ---------------      ----- ------------  ---------------
    66      2.564813   3 C  s                67     -1.475645   3 C  s         
     5     -1.204959   1 O  s               133      1.094569   6 H  s         
    36      1.077244   2 C  s                65     -1.073644   3 C  s         
   132     -0.950108   6 H  s                71     -0.937081   3 C  px        
    97      0.881165   4 C  s               103      0.752627   4 C  py        
 
 Vector   70  Occ=0.000000D+00  E= 1.479803D+00
              MO Center=  9.7D-01, -3.6D-01, -1.0D+00, r^2= 3.3D+00
   Bfn.  Coefficient  Atom+Function         Bfn.  Coefficient  Atom+Function  
  ----- ------------  ---------------      ----- ------------  ---------------
    36      3.037801   2 C  s               156     -2.772346  10 H  s         
   157      2.170569  10 H  s               102     -1.940287   4 C  px        
   104     -1.819294   4 C  pz              103      1.767948   4 C  py        
   126      1.767063   5 H  s               127     -1.468222   5 H  s         
    35     -1.439562   2 C  s                66     -1.345374   3 C  s         
 
 Vector   71  Occ=0.000000D+00  E= 1.511292D+00
              MO Center=  3.1D-01,  1.6D-01, -3.0D-01, r^2= 4.0D+00
   Bfn.  Coefficient  Atom+Function         Bfn.  Coefficient  Atom+Function  
  ----- ------------  ---------------      ----- ------------  ---------------
    98      2.738612   4 C  s               144      1.846218   8 H  s         
   102     -1.540009   4 C  px              145     -1.409720   8 H  s         
   103     -1.348824   4 C  py               45      1.294117   2 C  pz        
    97     -1.267161   4 C  s                36     -0.939023   2 C  s         
   150     -0.936228   9 H  s                66      0.884100   3 C  s         
 
 Vector   72  Occ=0.000000D+00  E= 1.541651D+00
              MO Center=  3.7D-01,  4.4D-01, -2.2D-01, r^2= 4.6D+00
   Bfn.  Coefficient  Atom+Function         Bfn.  Coefficient  Atom+Function  
  ----- ------------  ---------------      ----- ------------  ---------------
    36      4.192922   2 C  s                35     -3.578812   2 C  s         
    98     -3.496104   4 C  s                97      3.118991   4 C  s         
    67     -2.364677   3 C  s                73      2.139709   3 C  pz        
   132     -1.749072   6 H  s               133      1.446025   6 H  s         
   102     -1.434288   4 C  px              138      1.346161   7 H  s         
 
 Vector   73  Occ=0.000000D+00  E= 1.576935D+00
              MO Center=  4.9D-01, -3.2D-02, -6.0D-02, r^2= 3.2D+00
   Bfn.  Coefficient  Atom+Function         Bfn.  Coefficient  Atom+Function  
  ----- ------------  ---------------      ----- ------------  ---------------
    35      3.481758   2 C  s                36     -2.737921   2 C  s         
    97     -2.021786   4 C  s                40     -1.994882   2 C  px        
   126      1.684888   5 H  s                67      1.661571   3 C  s         
    72      1.559971   3 C  py               42     -1.454502   2 C  pz        
    34     -1.406983   2 C  s                98      1.332712   4 C  s         
 
 Vector   74  Occ=0.000000D+00  E= 1.595053D+00
              MO Center=  3.6D-01,  3.5D-01, -1.7D-01, r^2= 3.4D+00
   Bfn.  Coefficient  Atom+Function         Bfn.  Coefficient  Atom+Function  
  ----- ------------  ---------------      ----- ------------  ---------------
    36     -5.561631   2 C  s                66     -5.385839   3 C  s         
    35      5.318474   2 C  s                67      4.086426   3 C  s         
    41      3.792590   2 C  py               71     -2.550288   3 C  px        
    72      2.540172   3 C  py               40     -2.130111   2 C  px        
    98      1.929566   4 C  s                82      1.663963   3 C  d -2      
 
 Vector   75  Occ=0.000000D+00  E= 1.638648D+00
              MO Center=  4.7D-01,  2.1D-01, -1.3D-02, r^2= 3.7D+00
   Bfn.  Coefficient  Atom+Function         Bfn.  Coefficient  Atom+Function  
  ----- ------------  ---------------      ----- ------------  ---------------
    66      2.701635   3 C  s                35      2.000412   2 C  s         
    98      1.977923   4 C  s                 5     -1.697382   1 O  s         
    97     -1.553444   4 C  s                67     -1.378821   3 C  s         
   144      1.115810   8 H  s               104     -1.099815   4 C  pz        
   150     -1.051358   9 H  s               103     -1.028964   4 C  py        
 
 Vector   76  Occ=0.000000D+00  E= 1.695598D+00
              MO Center=  5.6D-01,  1.4D-01, -4.2D-01, r^2= 3.7D+00
   Bfn.  Coefficient  Atom+Function         Bfn.  Coefficient  Atom+Function  
  ----- ------------  ---------------      ----- ------------  ---------------
    97     -5.612571   4 C  s                35      5.357770   2 C  s         
   104     -2.922248   4 C  pz               42     -2.861986   2 C  pz        
   102      1.848182   4 C  px               40      1.592887   2 C  px        
    34     -1.569242   2 C  s                66     -1.543062   3 C  s         
    96      1.524027   4 C  s                72     -1.216021   3 C  py        
 
 Vector   77  Occ=0.000000D+00  E= 1.698603D+00
              MO Center= -3.9D-02,  2.6D-01, -7.4D-02, r^2= 3.7D+00
   Bfn.  Coefficient  Atom+Function         Bfn.  Coefficient  Atom+Function  
  ----- ------------  ---------------      ----- ------------  ---------------
     5      3.948757   1 O  s                72      3.161642   3 C  py        
    36     -2.473803   2 C  s                66     -1.928693   3 C  s         
   138     -1.855950   7 H  s                97      1.783579   4 C  s         
    12      1.523183   1 O  px               42      1.433441   2 C  pz        
    41      1.391418   2 C  py               43      1.259772   2 C  px        
 
 Vector   78  Occ=0.000000D+00  E= 1.785523D+00
              MO Center=  4.1D-01,  2.4D-01,  1.5D-02, r^2= 3.5D+00
   Bfn.  Coefficient  Atom+Function         Bfn.  Coefficient  Atom+Function  
  ----- ------------  ---------------      ----- ------------  ---------------
    35      2.956049   2 C  s                97     -2.810247   4 C  s         
    36      1.780407   2 C  s                45     -1.285107   2 C  pz        
   104     -1.215254   4 C  pz               67     -1.132595   3 C  s         
    42     -1.100930   2 C  pz              102      0.941373   4 C  px        
    96      0.918366   4 C  s               103     -0.898764   4 C  py        
 
 Vector   79  Occ=0.000000D+00  E= 1.815104D+00
              MO Center= -6.3D-01,  2.0D-01,  2.0D-01, r^2= 2.6D+00
   Bfn.  Coefficient  Atom+Function         Bfn.  Coefficient  Atom+Function  
  ----- ------------  ---------------      ----- ------------  ---------------
    35      4.256141   2 C  s                 5     -3.291741   1 O  s         
    40     -2.479438   2 C  px               41      2.170434   2 C  py        
    72      2.095086   3 C  py               66     -1.913150   3 C  s         
    71     -1.709068   3 C  px               12     -1.371392   1 O  px        
   132     -1.085762   6 H  s               138     -1.055303   7 H  s         
 
 Vector   80  Occ=0.000000D+00  E= 1.841764D+00
              MO Center=  8.1D-02,  2.7D-01, -8.5D-02, r^2= 3.7D+00
   Bfn.  Coefficient  Atom+Function         Bfn.  Coefficient  Atom+Function  
  ----- ------------  ---------------      ----- ------------  ---------------
    35      1.616378   2 C  s                36     -1.134075   2 C  s         
   156     -0.929727  10 H  s               104     -0.806892   4 C  pz        
    71     -0.697220   3 C  px               97     -0.695088   4 C  s         
    41     -0.687549   2 C  py               66      0.658801   3 C  s         
   157      0.648899  10 H  s               150      0.622022   9 H  s         
 
 Vector   81  Occ=0.000000D+00  E= 1.863375D+00
              MO Center=  5.0D-01,  1.8D-01, -4.2D-01, r^2= 4.0D+00
   Bfn.  Coefficient  Atom+Function         Bfn.  Coefficient  Atom+Function  
  ----- ------------  ---------------      ----- ------------  ---------------
    35      6.584670   2 C  s                66     -4.444268   3 C  s         
    72      3.560305   3 C  py               97     -3.351227   4 C  s         
    36      2.172898   2 C  s               104     -1.888008   4 C  pz        
    34     -1.637226   2 C  s                67     -1.587622   3 C  s         
    41      1.577084   2 C  py               45     -1.370200   2 C  pz        
 
 Vector   82  Occ=0.000000D+00  E= 1.920139D+00
              MO Center=  3.2D-01, -1.4D-01, -2.9D-01, r^2= 3.2D+00
   Bfn.  Coefficient  Atom+Function         Bfn.  Coefficient  Atom+Function  
  ----- ------------  ---------------      ----- ------------  ---------------
    36      1.472360   2 C  s                98     -1.423565   4 C  s         
    45     -1.265309   2 C  pz              103     -1.224455   4 C  py        
    97     -1.181222   4 C  s                35      1.033922   2 C  s         
    66     -0.855442   3 C  s                42     -0.775971   2 C  pz        
   150     -0.765311   9 H  s                41      0.755766   2 C  py        
 
 Vector   83  Occ=0.000000D+00  E= 1.991590D+00
              MO Center=  1.0D+00, -3.5D-01, -7.3D-01, r^2= 3.3D+00
   Bfn.  Coefficient  Atom+Function         Bfn.  Coefficient  Atom+Function  
  ----- ------------  ---------------      ----- ------------  ---------------
    98      4.896407   4 C  s                35      3.816147   2 C  s         
    36     -3.305169   2 C  s                66     -2.592805   3 C  s         
    40     -1.815037   2 C  px               72      1.793158   3 C  py        
    41      1.635778   2 C  py              107      1.498636   4 C  pz        
    43     -1.231081   2 C  px               34     -1.216513   2 C  s         
 
 Vector   84  Occ=0.000000D+00  E= 1.993095D+00
              MO Center=  4.4D-01,  2.2D-02, -3.6D-01, r^2= 3.3D+00
   Bfn.  Coefficient  Atom+Function         Bfn.  Coefficient  Atom+Function  
  ----- ------------  ---------------      ----- ------------  ---------------
    36      3.190422   2 C  s                67     -1.965975   3 C  s         
    98     -1.821613   4 C  s                45     -1.743434   2 C  pz        
    40     -1.416713   2 C  px                5     -1.185564   1 O  s         
    44      0.954849   2 C  py               43     -0.949196   2 C  px        
    71     -0.907241   3 C  px               66     -0.821631   3 C  s         
 
 Vector   85  Occ=0.000000D+00  E= 2.085639D+00
              MO Center= -3.2D-02,  1.4D-01, -1.6D-02, r^2= 3.5D+00
   Bfn.  Coefficient  Atom+Function         Bfn.  Coefficient  Atom+Function  
  ----- ------------  ---------------      ----- ------------  ---------------
    36      3.037349   2 C  s                98     -2.359271   4 C  s         
    67     -1.142562   3 C  s                35     -0.916162   2 C  s         
   138     -0.731560   7 H  s               156      0.708493  10 H  s         
    45     -0.594358   2 C  pz              144      0.591757   8 H  s         
    14     -0.562054   1 O  pz               40     -0.554499   2 C  px        
 
 Vector   86  Occ=0.000000D+00  E= 2.096788D+00
              MO Center= -3.4D-01,  6.0D-02,  3.6D-02, r^2= 3.0D+00
   Bfn.  Coefficient  Atom+Function         Bfn.  Coefficient  Atom+Function  
  ----- ------------  ---------------      ----- ------------  ---------------
    36      5.489737   2 C  s                67     -5.500861   3 C  s         
    66      3.329113   3 C  s                35     -3.299492   2 C  s         
    41     -3.093684   2 C  py               71      2.731006   3 C  px        
    13      1.814332   1 O  py               82     -1.458685   3 C  d -2      
    43     -1.318971   2 C  px               55      1.319962   2 C  d  2      
 
 Vector   87  Occ=0.000000D+00  E= 2.163946D+00
              MO Center=  5.3D-01, -5.5D-02, -5.1D-01, r^2= 3.2D+00
   Bfn.  Coefficient  Atom+Function         Bfn.  Coefficient  Atom+Function  
  ----- ------------  ---------------      ----- ------------  ---------------
    98      2.138201   4 C  s                67     -1.863472   3 C  s         
    35     -1.216577   2 C  s                73      1.030602   3 C  pz        
   156     -0.907136  10 H  s                40      0.863432   2 C  px        
    36      0.846466   2 C  s                44      0.849636   2 C  py        
    43     -0.837298   2 C  px               42     -0.735440   2 C  pz        
 
 Vector   88  Occ=0.000000D+00  E= 2.196992D+00
              MO Center=  3.8D-01,  2.3D-01, -2.4D-01, r^2= 3.7D+00
   Bfn.  Coefficient  Atom+Function         Bfn.  Coefficient  Atom+Function  
  ----- ------------  ---------------      ----- ------------  ---------------
    98      2.117780   4 C  s                36     -1.236392   2 C  s         
    45      1.037217   2 C  pz               76     -0.885573   3 C  pz        
   132      0.827580   6 H  s                42     -0.700723   2 C  pz        
   117     -0.692494   4 C  d  2            103     -0.623555   4 C  py        
    97     -0.605763   4 C  s               138     -0.608521   7 H  s         
 
 Vector   89  Occ=0.000000D+00  E= 2.226191D+00
              MO Center=  6.4D-01,  1.5D-03, -7.0D-02, r^2= 3.5D+00
   Bfn.  Coefficient  Atom+Function         Bfn.  Coefficient  Atom+Function  
  ----- ------------  ---------------      ----- ------------  ---------------
    36      3.235407   2 C  s                67     -1.756555   3 C  s         
    98     -1.264313   4 C  s                 5     -1.147532   1 O  s         
    42     -1.057812   2 C  pz               72     -0.984013   3 C  py        
    66      0.894891   3 C  s                35     -0.825015   2 C  s         
    43     -0.744862   2 C  px               51      0.719433   2 C  d -2      
 
 Vector   90  Occ=0.000000D+00  E= 2.239736D+00
              MO Center=  7.7D-01, -2.4D-01, -8.1D-01, r^2= 3.6D+00
   Bfn.  Coefficient  Atom+Function         Bfn.  Coefficient  Atom+Function  
  ----- ------------  ---------------      ----- ------------  ---------------
   150      1.240119   9 H  s                66     -0.905601   3 C  s         
    36      0.823974   2 C  s               144     -0.813865   8 H  s         
    72      0.740327   3 C  py              117      0.734585   4 C  d  2      
    67     -0.588106   3 C  s                83      0.568886   3 C  d -1      
   126      0.538833   5 H  s                98     -0.516289   4 C  s         
 
 Vector   91  Occ=0.000000D+00  E= 2.265253D+00
              MO Center=  9.7D-01, -3.2D-01, -1.2D+00, r^2= 2.9D+00
   Bfn.  Coefficient  Atom+Function         Bfn.  Coefficient  Atom+Function  
  ----- ------------  ---------------      ----- ------------  ---------------
    66      2.365180   3 C  s                36      1.711438   2 C  s         
    41     -1.564804   2 C  py               67     -1.379663   3 C  s         
    35     -1.212660   2 C  s                72     -1.014480   3 C  py        
   156      1.011945  10 H  s                71      0.933534   3 C  px        
   126     -0.932825   5 H  s                98     -0.887541   4 C  s         
 
 Vector   92  Occ=0.000000D+00  E= 2.277476D+00
              MO Center=  4.6D-01,  1.8D-01, -1.7D-01, r^2= 3.6D+00
   Bfn.  Coefficient  Atom+Function         Bfn.  Coefficient  Atom+Function  
  ----- ------------  ---------------      ----- ------------  ---------------
    98      3.851886   4 C  s                36     -2.736527   2 C  s         
[...]
    21     -0.870167   1 O  d -1             42     -0.807872   2 C  pz        
    97     -0.724125   4 C  s                45     -0.690420   2 C  pz        
    98     -0.515708   4 C  s                 5     -0.504917   1 O  s         
    67     -0.505818   3 C  s               102      0.498897   4 C  px        
 
 Vector  154  Occ=0.000000D+00  E= 6.675954D+00
              MO Center= -8.7D-01, -1.8D-01,  2.0D-01, r^2= 5.7D-01
   Bfn.  Coefficient  Atom+Function         Bfn.  Coefficient  Atom+Function  
  ----- ------------  ---------------      ----- ------------  ---------------
    18      1.061275   1 O  d  1             23     -1.035884   1 O  d  1      
    97     -0.846396   4 C  s                42     -0.778824   2 C  pz        
    35      0.755832   2 C  s               102      0.640260   4 C  px        
    54     -0.543502   2 C  d  1             14      0.404127   1 O  pz        
    16     -0.394900   1 O  d -1             11      0.389096   1 O  pz        
 
 Vector  155  Occ=0.000000D+00  E= 6.841925D+00
              MO Center= -8.8D-01, -1.9D-01,  2.0D-01, r^2= 5.9D-01
   Bfn.  Coefficient  Atom+Function         Bfn.  Coefficient  Atom+Function  
  ----- ------------  ---------------      ----- ------------  ---------------
     5      2.109256   1 O  s                40      1.775270   2 C  px        
     9      1.361814   1 O  px               97     -1.292398   4 C  s         
     4      1.205745   1 O  s                20      1.049150   1 O  d -2      
    42     -0.983851   2 C  pz               12      0.846275   1 O  px        
    35     -0.848191   2 C  s                15     -0.833783   1 O  d -2      
 
 Vector  156  Occ=0.000000D+00  E= 7.054728D+00
              MO Center= -8.9D-01, -1.9D-01,  2.0D-01, r^2= 6.4D-01
   Bfn.  Coefficient  Atom+Function         Bfn.  Coefficient  Atom+Function  
  ----- ------------  ---------------      ----- ------------  ---------------
    66     -3.176266   3 C  s                35      3.036549   2 C  s         
    40     -2.718635   2 C  px               72      2.686375   3 C  py        
    24     -1.578447   1 O  d  2             36      1.439889   2 C  s         
    10      1.282344   1 O  py               67     -1.282119   3 C  s         
    19      1.016591   1 O  d  2             13      0.865560   1 O  py        
 
 Vector  157  Occ=0.000000D+00  E= 2.193347D+01
              MO Center=  3.5D-02,  8.3D-01,  1.1D-01, r^2= 1.1D+00
   Bfn.  Coefficient  Atom+Function         Bfn.  Coefficient  Atom+Function  
  ----- ------------  ---------------      ----- ------------  ---------------
    64      1.608488   3 C  s                65     -1.377166   3 C  s         
    63     -1.267899   3 C  s                67     -1.217326   3 C  s         
    98      1.008311   4 C  s                95     -0.678047   4 C  s         
    96      0.546816   4 C  s                35      0.535385   2 C  s         
    94      0.536817   4 C  s                40     -0.465783   2 C  px        
 
 Vector  158  Occ=0.000000D+00  E= 2.197220D+01
              MO Center=  9.2D-01, -3.1D-01, -7.2D-01, r^2= 9.8D-01
   Bfn.  Coefficient  Atom+Function         Bfn.  Coefficient  Atom+Function  
  ----- ------------  ---------------      ----- ------------  ---------------
    95      1.414775   4 C  s                96     -1.301422   4 C  s         
    94     -1.113413   4 C  s                98     -1.112451   4 C  s         
    36     -1.085707   2 C  s                34     -1.050752   2 C  s         
    33      0.971447   2 C  s                32     -0.760131   2 C  s         
    67      0.738814   3 C  s                65     -0.523190   3 C  s         
 
 Vector  159  Occ=0.000000D+00  E= 2.207880D+01
              MO Center=  6.2D-01, -1.0D-01, -1.3D-01, r^2= 8.2D-01
   Bfn.  Coefficient  Atom+Function         Bfn.  Coefficient  Atom+Function  
  ----- ------------  ---------------      ----- ------------  ---------------
    36      2.148189   2 C  s                33     -1.467246   2 C  s         
    34      1.450069   2 C  s                98     -1.375061   4 C  s         
    35     -1.366475   2 C  s                32      1.150623   2 C  s         
    67     -1.134063   3 C  s                95      0.815508   4 C  s         
    96     -0.740190   4 C  s                97      0.738524   4 C  s         
 
 Vector  160  Occ=0.000000D+00  E= 4.341434D+01
              MO Center= -8.8D-01, -1.8D-01,  2.0D-01, r^2= 1.2D-01
   Bfn.  Coefficient  Atom+Function         Bfn.  Coefficient  Atom+Function  
  ----- ------------  ---------------      ----- ------------  ---------------
     4      2.507875   1 O  s                 3     -1.874724   1 O  s         
     2      1.731555   1 O  s                 1     -1.395846   1 O  s         
     5     -0.878723   1 O  s                36      0.836057   2 C  s         
     9      0.562225   1 O  px               66     -0.516822   3 C  s         
    40      0.465997   2 C  px               72      0.456528   3 C  py        
 

 center of mass
 --------------
 x =   0.30619307 y =   0.09486517 z =  -0.27792466

 moments of inertia (a.u.)
 ------------------
         200.244883721829          45.713981974923          83.695490416569
          45.713981974923         248.187364918406         -52.547851966743
          83.695490416569         -52.547851966743         238.983368302849
 
     Multipole analysis of the density
     ---------------------------------
 
     L   x y z        total         alpha         beta         nuclear
     -   - - -        -----         -----         ----         -------
     0   0 0 0     -0.000000    -16.000000    -16.000000     32.000000
 
     1   1 0 0      0.687367     -6.226638     -6.226638     13.140642
     1   0 1 0      0.326213     -1.618370     -1.618370      3.562952
     1   0 0 1     -0.061854      5.315417      5.315417    -10.692688
 
     2   2 0 0    -20.034442    -54.364282    -54.364282     88.694123
     2   1 1 0     -1.111600     13.924766     13.924766    -28.961133
     2   1 0 1      0.131223     26.423286     26.423286    -52.715349
     2   0 2 0    -17.855253    -40.514493    -40.514493     63.173733
     2   0 1 1      0.261319    -15.346079    -15.346079     30.953478
     2   0 0 2    -18.214848    -45.854024    -45.854024     73.493200
 
 *** CALLING NEW AORESP DRIVER FOR CLOSED AND OPEN SHELLS ***
 Entering AOResponse driver routine


--------------------------------------------------------------------------------

          ****************
          *** RESPONSE ***
          ****************

 Response module for NWChem and dynamic CPKS solver
 developed by J. Autschbach and coworkers, SUNY Buffalo
 The methodology used in this program is described in 
 ChemPhysChem 12 (2011), 3224-3235 (main reference)
 J. Chem. Phys. 123 (2005), 114103
 J. Chem. Phys. 122 (2005), 224115
 J. Chem. Phys. 122 (2005), 074105
 Comp. Lett. 3 (2007), 131-150 (contact JA for a copy)
 Please cite this work in publications based on results
 obtained with this code. Thank you!

 For extension of response module to open shell
 calculations please acknowledge:
 F. Aquino, Northwestern University, Schatz Rsrch Group
 The update to the methodology is described in
 J. Phys. Chem. A 118 (2014) 517-525



          -----------------------------------------------
          Solving response equations for perturbing field
          -----------------------------------------------

 number of frequencies:     1
 frequency in a.u.:  0.9319600E-01
 Perturbing field: electric
 Using GIAO formalism for OptRot
 Adding quadrupole terms to OptRot
 to create an origin in dependent tensor.
 Using El. Dipole Length Gauge
 
 Applying DAMPING constant of  0.003700 a.u.
 
 Setting up CPKS
 with frequency omega =      0.09319600 a.u.
 and a damping of            0.00370000 a.u.

 
                            NWChem Dynamic CPHF Module
                            --------------------------
 
 
    scftype = RHF 
    nclosed =   16
      nopen =    0
  variables =     9216
  num. vecs =        3
  tolerance =   1.0D-07
  max. iter =  100

 SCF residual:   5.672452962834403E-006


Iterative solution of linear equations
  No. of variables     4608
  No. of equations        3
  Maximum subspace       99
       Convergence  1.0D-07
        Start time     86.1


   iter   nsub   residual    time 
   ----  ------  --------  --------- 
 dft_CPHF2_read: failed to open
 ./methyloxirane_blyp-def2-tzvp_488.9_21.inp.aoresp_fiao_f1
     1      3    3.77D+00     130.6
     2      6    2.71D+00     175.2
     3      9    2.45D-01     219.9
     4     12    6.26D-02     264.4
     5     15    9.78D-03     309.0
     6     18    1.29D-03     353.9
     7     21    1.47D-04     398.4
     8     24    1.43D-05     443.0
     9     27    1.17D-06     487.6
    10     30    4.92D-07     532.2
    11     33    1.47D-08     576.8

 Calculating some arrays needed for GIAO optical rotation

    0 giaofock schwarz done =      92.87%
    0 giaofock schwarz done =      92.87%
 aor_r1_tensor_giao: roadata output requested
 dip-quad polarizability Re:

              1        2        3        4        5        6      
    1   77.2992  -6.5885 -26.8499  -4.3785   0.9719   9.2160
    2  -12.1966  25.7626   2.9994  23.8156 -21.3618   4.1022
    3   -6.1248   0.7445  40.1406  -0.1632  13.7928 -40.8529
 traceless dip-quad polarizability:

              1        2        3      
    1   74.8804  -9.8828 -40.2749
    2   -9.8828 -47.6361   1.4579
    3  -40.2749   1.4579 -27.2444

              1        2        3      
    1  -26.1555  38.6439   4.4991
    2   38.6439  27.8628 -32.0427
    3    4.4991 -32.0427  -1.7073

              1        2        3      
    1   14.3833   1.1168  60.2109
    2    1.1168  23.3257  20.6893
    3   60.2109  20.6893 -37.7089

 roa begin

 alpha real:
 XX       0.4110761539297E+02
 XY      -0.5333004138020E+01
 XZ      -0.2801886456716E+01
 YX      -0.5333004142304E+01
 YY       0.4420583311610E+02
 YZ       0.2965207816424E+01
 ZX      -0.2801886460690E+01
 ZY       0.2965207814654E+01
 ZZ       0.4198247370712E+02

 alpha im:
 XX       0.1116112648081E+00
 XY      -0.3086694691468E-01
 XZ      -0.9181414305968E-02
 YX      -0.3086694021563E-01
 YY       0.1300407622988E+00
 YZ       0.1687502864847E-01
 ZX      -0.9181409816195E-02
 ZY       0.1687502827705E-01
 ZZ       0.1263332172858E+00

 beta real:
 XX      -0.1346766861668E+00
 XY       0.9493023982767E+00
 XZ       0.2104064797637E+00
 YX      -0.8779827014402E+00
 YY       0.1267758733837E+00
 YZ      -0.1552207744237E+01
 ZX      -0.4798225146483E+00
 ZY       0.1916910516857E+01
 ZZ       0.2750114286844E-02

 G-prime = -omega beta(real):
 XX      -0.1346766861668E+00
 XY       0.9493023982767E+00
 XZ       0.2104064797637E+00
 YX      -0.8779827014402E+00
 YY       0.1267758733837E+00
 YZ      -0.1552207744237E+01
 ZX      -0.4798225146483E+00
 ZY       0.1916910516857E+01
 ZZ       0.2750114286844E-02

 beta im:
 XX      -0.5782106011840E-02
 XY       0.1402441459014E-01
 XZ       0.3179563933994E-02
 YX      -0.7349968945767E-02
 YY       0.4041501851713E-02
 YZ      -0.2362069371752E-01
 ZX      -0.1352107116694E-01
 ZY       0.4181304233890E-01
 ZZ       0.8950545601111E-03

 G-prime = -omega beta(imag):
 XX      -0.5782106011840E-02
 XY       0.1402441459014E-01
 XZ       0.3179563933994E-02
 YX      -0.7349968945767E-02
 YY       0.4041501851713E-02
 YZ      -0.2362069371752E-01
 ZX      -0.1352107116694E-01
 ZY       0.4181304233890E-01
 ZZ       0.8950545601111E-03

 dipole-quadrupole real (Cartesian):
 XXX      0.7729915988696E+02
 XXY     -0.6588535708135E+01
 XXZ     -0.2684991412952E+02
 XYY     -0.4378477228515E+01
 XYZ      0.9719246364976E+00
 XZZ      0.9215986921799E+01
 YXX     -0.1219664963192E+02
 YXY      0.2576259279842E+02
 YXZ      0.2999387311351E+01
 YYY      0.2381557772393E+02
 YYZ     -0.2136178213243E+02
 YZZ      0.4102203120127E+01
 ZXX     -0.6124774323155E+01
 ZXY      0.7445484968615E+00
 ZXZ      0.4014057581917E+02
 ZYY     -0.1631841657607E+00
 ZYZ      0.1379284871521E+02
 ZZZ     -0.4085292506042E+02

 dipole-quadrupole imag (Cartesian):
 XXX      0.2694718742420E+00
 XXY     -0.3737017402860E-01
 XXZ     -0.7041914517962E-01
 XYY     -0.2782698521354E-01
 XYZ      0.1706413021123E-03
 XZZ      0.6208830279785E-01
 YXX     -0.5924923065973E-01
 YXY      0.6296845732446E-01
 YXZ      0.1644836035682E-01
 YYY      0.9525955166786E-01
 YYZ     -0.5929058401573E-01
 YZZ      0.9689290159251E-02
 ZXX     -0.3005552384190E-01
 ZXY     -0.3035632727258E-02
 ZXZ      0.1526544078644E+00
 ZYY      0.5200023819953E-02
 ZYZ      0.6488393230842E-01
 ZZZ     -0.9392522259236E-01

 dipole-quadrupole (traceless):
 XXX      0.7488040504032E+02
 XXY     -0.9882803562202E+01
 XXZ     -0.4027487119428E+02
 XYY     -0.4763605063289E+02
 XYZ      0.1457886954746E+01
 XZZ     -0.2724435440742E+02
 YXX     -0.2615554005395E+02
 YXY      0.3864388919763E+02
 YXZ      0.4499080967026E+01
 YYY      0.2786280097983E+02
 YYZ     -0.3204267319865E+02
 YZZ     -0.1707260925881E+01
 ZXX      0.1438328028994E+02
 ZXY      0.1116822745292E+01
 ZXZ      0.6021086372876E+02
 ZYY      0.2332566552603E+02
 ZYZ      0.2068927307282E+02
 ZZZ     -0.3770894581597E+02

 roa end


 Electric Dipole Response Matrix (nonzero elements):

              1        2        3      
    1   41.1076  -5.3330  -2.8019
    2   -5.3330  44.2058   2.9652
    3   -2.8019   2.9652  41.9825
 
 Imaginary part:

              1        2        3      
    1    0.1116  -0.0309  -0.0092
    2   -0.0309   0.1300   0.0169
    3   -0.0092   0.0169   0.1263

 ------------------------------------------
 average:        42.43197 + I       0.12266


 DFT Linear Response polarizability / au 
 Frequency  =       0.0931960 / au
 Wavelength =     488.8981609 / nm
              X              Y              Z
 -----------------------------------------------
 X      41.1076154     -5.3330041     -2.8018865
 Y      -5.3330041     44.2058331      2.9652078
 Z      -2.8018865      2.9652078     41.9824737
 -----------------------------------------------
 Eigenvalues =      37.0422456     50.2109660     40.0427106
 Isotropic   =      42.4319741
 Anisotropic =       9.7606592
 -----------------------------------------------
 *************************

 DFT Linear Response IMAG polarizability / au 
 Frequency  =       0.0931960 / au
 Wavelength =     488.8981609 / nm
              X              Y              Z
 -----------------------------------------------
 X       0.1116113     -0.0308669     -0.0091814
 Y      -0.0308669      0.1300408      0.0168750
 Z      -0.0091814      0.0168750      0.1263332
 -----------------------------------------------
 Eigenvalues =       0.0883843      0.1629445      0.1166564
 Isotropic   =       0.1226617
 Anisotropic =       0.0532326
 -----------------------------------------------
 *************************

 Magnetic Dipole Response Matrix (nonzero elements):
 Optical rotation tensor Beta
 (Buckingham-Dunn version including dipole-quadrupole terms)

              1        2        3      
    1    2.5725  -0.5010   0.4248
    2   -0.5010  -1.4740  -1.7608
    3    0.4248  -1.7608  -1.0432
 
 Imaginary part:

              1        2        3      
    1    0.0620  -0.1505  -0.0341
    2    0.0789  -0.0434   0.2535
    3    0.1451  -0.4487  -0.0096

 ------------------------------------------
 average:         0.01842 + I       0.00302

 Principal components and PAS (Real part)
                 -3.03411
                  2.76214
                  0.32723
 ------------------------
 average:         0.01842

              1        2        3      
    1    0.0171   0.9605  -0.2778
    2    0.7508  -0.1958  -0.6309
    3    0.6604   0.1978   0.7244

 Chiral response tensor (Real part):

              1        2        3      
    1   -1.2586   0.2505  -0.2124
    2    0.2505   0.7646   0.8804
    3   -0.2124   0.8804   0.5493
 
 Principal components and PAS (Real part)
                  1.54469
                 -1.35344
                 -0.13598
 ------------------------
 average:         0.01842

              1        2        3      
    1    0.0171   0.9605  -0.2778
    2    0.7508  -0.1958  -0.6309
    3    0.6604   0.1978   0.7244
 Exiting AOResponse driver routine

 Task  times  cpu:      557.3s     wall:      570.6s
 
 
                                NWChem Input Module
                                -------------------
 
 
 Summary of allocated global arrays
-----------------------------------
  No active global arrays



                         GA Statistics for process    0
                         ------------------------------

       create   destroy   get      put      acc     scatter   gather  read&inc
calls: 3294     3294     7.62e+06 3.14e+06 7.56e+05 2694        0     1215     
number of processes/call 1.01e+00 1.03e+00 1.44e+00 0.00e+00 0.00e+00
bytes total:             1.77e+09 1.26e+08 1.81e+09 1.84e+02 0.00e+00 9.72e+03
bytes remote:            7.57e+08 3.29e+07 1.04e+09 0.00e+00 0.00e+00 0.00e+00
Max memory consumed for GA by this process: 11242192 bytes
 
MA_summarize_allocated_blocks: starting scan ...
MA_summarize_allocated_blocks: scan completed: 0 heap blocks, 0 stack blocks
MA usage statistics:

	allocation statistics:
					      heap	     stack
					      ----	     -----
	current number of blocks	         0	         0
	maximum number of blocks	        24	        52
	current total bytes		         0	         0
	maximum total bytes		   7519872	  48983896
	maximum total K-bytes		      7520	     48984
	maximum total M-bytes		         8	        49
 
 
                                     CITATION
                                     --------
                Please cite the following reference when publishing
                           results obtained with NWChem:
 
                 M. Valiev, E.J. Bylaska, N. Govind, K. Kowalski,
              T.P. Straatsma, H.J.J. van Dam, D. Wang, J. Nieplocha,
                        E. Apra, T.L. Windus, W.A. de Jong
                 "NWChem: a comprehensive and scalable open-source
                  solution for large scale molecular simulations"
                      Comput. Phys. Commun. 181, 1477 (2010)
                           doi:10.1016/j.cpc.2010.04.018
 
                                      AUTHORS
                                      -------
          E. Apra, E. J. Bylaska, W. A. de Jong, N. Govind, K. Kowalski,
       T. P. Straatsma, M. Valiev, H. J. J. van Dam, D. Wang, T. L. Windus,
        J. Hammond, J. Autschbach, K. Bhaskaran-Nair, J. Brabec, K. Lopata,
    S. A. Fischer, S. Krishnamoorthy, M. Jacquelin, W. Ma, M. Klemm, O. Villa,
      Y. Chen, V. Anisimov, F. Aquino, S. Hirata, M. T. Hackler, V. Konjkov,
            D. Mejia-Rodriguez, T. Risthaus, M. Malagoli, A. Marenich,
   A. Otero-de-la-Roza, J. Mullin, P. Nichols, R. Peverati, J. Pittner, Y. Zhao,
        P.-D. Fan, A. Fonari, M. J. Williamson, R. J. Harrison, J. R. Rehr,
      M. Dupuis, D. Silverstein, D. M. A. Smith, J. Nieplocha, V. Tipparaju,
    M. Krishnan, B. E. Van Kuiken, A. Vazquez-Mayagoitia, L. Jensen, M. Swart,
      Q. Wu, T. Van Voorhis, A. A. Auer, M. Nooijen, L. D. Crosby, E. Brown,
      G. Cisneros, G. I. Fann, H. Fruchtl, J. Garza, K. Hirao, R. A. Kendall,
      J. A. Nichols, K. Tsemekhman, K. Wolinski, J. Anchell, D. E. Bernholdt,
      P. Borowski, T. Clark, D. Clerc, H. Dachsel, M. J. O. Deegan, K. Dyall,
    D. Elwood, E. Glendening, M. Gutowski, A. C. Hess, J. Jaffe, B. G. Johnson,
     J. Ju, R. Kobayashi, R. Kutteh, Z. Lin, R. Littlefield, X. Long, B. Meng,
      T. Nakajima, S. Niu, L. Pollack, M. Rosing, K. Glaesemann, G. Sandrone,
      M. Stave, H. Taylor, G. Thomas, J. H. van Lenthe, A. T. Wong, Z. Zhang.

 Total times  cpu:      624.7s     wall:      639.1s
