 argument  1 = methyloxirane_blyp-def2-tzvp_488.9_35.inp
 


============================== echo of input deck ==============================
echo
start methyloxirane_blyp-def2-tzvp_488.9_35.inp
title "methyloxirane roa calculations at 488.9 nm, input generated in va  with delta_type=2"
charge 0



geometry units angstrom nocenter noautoz noautosym nucleus point;symmetry c1
 O -0.879666 -0.178535  0.203797
 C  0.573350 -0.160710  0.126490
 C -0.183055  1.087081  0.340569
 C  1.184984 -0.517998 -1.214072
 H  1.070638 -0.590742  1.003708
 H -0.231505  1.539490  1.334761
 H -0.345255  1.775249 -0.493419
 H  2.243754 -0.222074 -1.244821
 H  1.141983 -1.605705 -1.365740
 H  0.656276 -0.034045 -2.044361
end

basis spherical
* library def2-TZVP
end

 set prop:newaoresp 1
 set aor:roadata T
 set cphf:maxsub 100
 set cphf:acc 1.0d-10
 set cphf:maxiter 100

property
    response 1   0.093196
    bdtensor
    convergence 1e-7
    damping 0.0037
    giao
end

dft
 direct
 mult 1
 xc becke88 lyp
 iterations 250
 tolerances tight
 grid xfine
 convergence nolevelshifting
 convergence energy 1e-8
 convergence gradient 1e-7


end

task dft gradient
task dft property
================================================================================


                                         
                                         
 
 
              Northwest Computational Chemistry Package (NWChem) 6.8
              ------------------------------------------------------
 
 
                    Environmental Molecular Sciences Laboratory
                       Pacific Northwest National Laboratory
                                Richland, WA 99352
 
                              Copyright (c) 1994-2017
                       Pacific Northwest National Laboratory
                            Battelle Memorial Institute
 
             NWChem is an open-source computational chemistry package
                        distributed under the terms of the
                      Educational Community License (ECL) 2.0
             A copy of the license is included with this distribution
                              in the LICENSE.TXT file
 
                                  ACKNOWLEDGMENT
                                  --------------

            This software and its documentation were developed at the
            EMSL at Pacific Northwest National Laboratory, a multiprogram
            national laboratory, operated for the U.S. Department of Energy
            by Battelle under Contract Number DE-AC05-76RL01830. Support
            for this work was provided by the Department of Energy Office
            of Biological and Environmental Research, Office of Basic
            Energy Sciences, and the Office of Advanced Scientific Computing.


           Job information
           ---------------

    hostname        = cpn-d11-01.cbls.ccr.buffalo.edu
    program         = /util/academic/nwchem/nwchem-6.8/bin/LINUX64/nwchem
    date            = Fri Mar  1 10:34:33 2019

    compiled        = Tue_Nov_06_14:59:08_2018
    source          = /util/academic/nwchem/nwchem-6.8
    nwchem branch   = 6.8
    nwchem revision = v6.8-47-gdf6c956
    ga revision     = ga-5.6.3
    use scalapack   = F
    input           = methyloxirane_blyp-def2-tzvp_488.9_35.inp
    prefix          = methyloxirane_blyp-def2-tzvp_488.9_35.inp.
    data base       = ./methyloxirane_blyp-def2-tzvp_488.9_35.inp.db
    status          = startup
    nproc           =        7
    time left       =     -1s



           Memory information
           ------------------

    heap     =   13107200 doubles =    100.0 Mbytes
    stack    =   13107197 doubles =    100.0 Mbytes
    global   =   26214400 doubles =    200.0 Mbytes (distinct from heap & stack)
    total    =   52428797 doubles =    400.0 Mbytes
    verify   = yes
    hardfail = no 


           Directory information
           ---------------------
 
  0 permanent = .
  0 scratch   = .
 
 
 
 
                                NWChem Input Module
                                -------------------
 
 
                    methyloxirane roa calculations at 488.9 nm, input generated in va  with delta_type=2
                    ------------------------------------------

 Scaling coordinates for geometry "geometry" by  1.889725989
 (inverse scale =  0.529177249)

 
 
                             Geometry "geometry" -> ""
                             -------------------------
 
 Output coordinates in angstroms (scale by  1.889725989 to convert to a.u.)
 
  No.       Tag          Charge          X              Y              Z
 ---- ---------------- ---------- -------------- -------------- --------------
    1 O                    8.0000    -0.87966600    -0.17853500     0.20379700
    2 C                    6.0000     0.57335000    -0.16071000     0.12649000
    3 C                    6.0000    -0.18305500     1.08708100     0.34056900
    4 C                    6.0000     1.18498400    -0.51799800    -1.21407200
    5 H                    1.0000     1.07063800    -0.59074200     1.00370800
    6 H                    1.0000    -0.23150500     1.53949000     1.33476100
    7 H                    1.0000    -0.34525500     1.77524900    -0.49341900
    8 H                    1.0000     2.24375400    -0.22207400    -1.24482100
    9 H                    1.0000     1.14198300    -1.60570500    -1.36574000
   10 H                    1.0000     0.65627600    -0.03404500    -2.04436100
 
      Atomic Mass 
      ----------- 
 
      O                 15.994910
      C                 12.000000
      H                  1.007825
 

 Effective nuclear repulsion energy (a.u.)     123.4951443086

            Nuclear Dipole moment (a.u.) 
            ----------------------------
        X                 Y               Z
 ---------------- ---------------- ----------------
    13.1340434857     3.5604913166   -10.6988235241
 
 
            XYZ format geometry
            -------------------
    10
 geometry
 O                    -0.87966600    -0.17853500     0.20379700
 C                     0.57335000    -0.16071000     0.12649000
 C                    -0.18305500     1.08708100     0.34056900
 C                     1.18498400    -0.51799800    -1.21407200
 H                     1.07063800    -0.59074200     1.00370800
 H                    -0.23150500     1.53949000     1.33476100
 H                    -0.34525500     1.77524900    -0.49341900
 H                     2.24375400    -0.22207400    -1.24482100
 H                     1.14198300    -1.60570500    -1.36574000
 H                     0.65627600    -0.03404500    -2.04436100
 
 ==============================================================================
                                internuclear distances
 ------------------------------------------------------------------------------
       center one      |      center two      | atomic units |  angstroms
 ------------------------------------------------------------------------------
    2 C                |   1 O                |     2.74989  |     1.45518
    3 C                |   1 O                |     2.74222  |     1.45112
    3 C                |   2 C                |     2.78692  |     1.47477
    4 C                |   2 C                |     2.86520  |     1.51620
    5 H                |   2 C                |     2.07159  |     1.09624
    6 H                |   3 C                |     2.06615  |     1.09336
    7 H                |   3 C                |     2.06614  |     1.09335
    8 H                |   4 C                |     2.07828  |     1.09978
    9 H                |   4 C                |     2.07694  |     1.09907
   10 H                |   4 C                |     2.07278  |     1.09687
 ------------------------------------------------------------------------------
                         number of included internuclear distances:         10
 ==============================================================================



 ==============================================================================
                                 internuclear angles
 ------------------------------------------------------------------------------
        center 1       |       center 2       |       center 3       |  degrees
 ------------------------------------------------------------------------------
    2 C                |   1 O                |   3 C                |    60.99
    2 C                |   1 O                |   3 C                |    60.99
    1 O                |   2 C                |   4 C                |   116.54
    1 O                |   2 C                |   5 H                |   113.93
    3 C                |   2 C                |   4 C                |   122.32
    3 C                |   2 C                |   5 H                |   116.64
    4 C                |   2 C                |   5 H                |   115.60
    3 C                |   1 O                |   2 C                |    60.99
    1 O                |   3 C                |   6 H                |   115.17
    1 O                |   3 C                |   7 H                |   113.94
    2 C                |   3 C                |   6 H                |   120.32
    2 C                |   3 C                |   7 H                |   119.86
    6 H                |   3 C                |   7 H                |   115.25
    2 C                |   4 C                |   8 H                |   110.47
    2 C                |   4 C                |   9 H                |   109.84
    2 C                |   4 C                |  10 H                |   111.77
    8 H                |   4 C                |   9 H                |   107.46
    8 H                |   4 C                |  10 H                |   108.91
    9 H                |   4 C                |  10 H                |   108.26
 ------------------------------------------------------------------------------
                            number of included internuclear angles:         19
 ==============================================================================



  warning:::::::::::::: from_environment
  NWCHEM_BASIS_LIBRARY set to: <
 /util/academic/nwchem/nwchem-6.8/src/basis/libraries>
  but file does not exist !
  using .nwchemrc or compiled library


 Summary of "ao basis" -> "" (spherical)
 ------------------------------------------------------------------------------
       Tag                 Description            Shells   Functions and Types
 ---------------- ------------------------------  ------  ---------------------
 *                         def2-TZVP                  on all atoms 


 
                                 NWChem DFT Module
                                 -----------------
 
 
                    methyloxirane roa calculations at 488.9 nm, input generated in va  with delta_type=2
 
 
                      Basis "ao basis" -> "ao basis" (spherical)
                      -----
  O (Oxygen)
  ----------
            Exponent  Coefficients 
       -------------- ---------------------------------------------------------
  1 S  2.70323826E+04  0.000217
  1 S  4.05238714E+03  0.001684
  1 S  9.22327227E+02  0.008740
  1 S  2.61240710E+02  0.035240
  1 S  8.53546414E+01  0.111535
  1 S  3.10350352E+01  0.255890
 
  2 S  1.22608607E+01  0.397687
  2 S  4.99870760E+00  0.246278
 
  3 S  1.17031082E+00  1.000000
 
  4 S  4.64747410E-01  1.000000
 
  5 S  1.85045364E-01  1.000000
 
  6 P  6.32749548E+01  0.006069
  6 P  1.46270494E+01  0.041913
  6 P  4.45012235E+00  0.161538
  6 P  1.52757996E+00  0.357070
 
  7 P  5.29351179E-01  1.000000
 
  8 P  1.74784213E-01  1.000000
 
  9 D  2.31400000E+00  1.000000
 
 10 D  6.45000000E-01  1.000000
 
 11 F  1.42800000E+00  1.000000
 
  C (Carbon)
  ----------
            Exponent  Coefficients 
       -------------- ---------------------------------------------------------
  1 S  1.35753497E+04  0.000222
  1 S  2.03523337E+03  0.001723
  1 S  4.63225624E+02  0.008926
  1 S  1.31200196E+02  0.035728
  1 S  4.28530159E+01  0.110763
  1 S  1.55841858E+01  0.242956
 
  2 S  6.20671385E+00  0.414403
  2 S  2.57648965E+00  0.237450
 
  3 S  5.76963394E-01  1.000000
 
  4 S  2.29728314E-01  1.000000
 
  5 S  9.51644400E-02  1.000000
 
  6 P  3.46972322E+01  0.005333
  6 P  7.95826228E+00  0.035864
  6 P  2.37808269E+00  0.142159
  6 P  8.14332082E-01  0.342705
 
  7 P  2.88875473E-01  1.000000
 
  8 P  1.00568237E-01  1.000000
 
  9 D  1.09700000E+00  1.000000
 
 10 D  3.18000000E-01  1.000000
 
 11 F  7.61000000E-01  1.000000
 
  H (Hydrogen)
  ------------
            Exponent  Coefficients 
       -------------- ---------------------------------------------------------
  1 S  3.40613410E+01  0.006025
  1 S  5.12357460E+00  0.045021
  1 S  1.16466260E+00  0.201897
 
  2 S  3.27230410E-01  1.000000
 
  3 S  1.03072410E-01  1.000000
 
  4 P  8.00000000E-01  1.000000
 


 Summary of "ao basis" -> "ao basis" (spherical)
 ------------------------------------------------------------------------------
       Tag                 Description            Shells   Functions and Types
 ---------------- ------------------------------  ------  ---------------------
 O                         def2-TZVP                11       31   5s3p2d1f
 C                         def2-TZVP                11       31   5s3p2d1f
 H                         def2-TZVP                 4        6   3s1p




 Summary of "ao basis" -> "ao basis" (spherical)
 ------------------------------------------------------------------------------
       Tag                 Description            Shells   Functions and Types
 ---------------- ------------------------------  ------  ---------------------
 O                         def2-TZVP                11       31   5s3p2d1f
 C                         def2-TZVP                11       31   5s3p2d1f
 H                         def2-TZVP                 4        6   3s1p


  Caching 1-el integrals 
  itol2e modified to match energy
  convergence criterion.
  tol_rho modified to match energy
  convergence criterion.
 
            General Information
            -------------------
          SCF calculation type: DFT
          Wavefunction type:  closed shell.
          No. of atoms     :    10
          No. of electrons :    32
           Alpha electrons :    16
            Beta electrons :    16
          Charge           :     0
          Spin multiplicity:     1
          Use of symmetry is: off; symmetry adaption is: off
          Maximum number of iterations: 250
          This is a Direct SCF calculation.
          AO basis - number of functions:   160
                     number of shells:    68
          Convergence on energy requested:  1.00D-08
          Convergence on density requested:  1.00D-05
          Convergence on gradient requested:  1.00D-07
 
              XC Information
              --------------
                    Becke 1988 Exchange Functional  1.000          
              Lee-Yang-Parr Correlation Functional  1.000          
 
             Grid Information
             ----------------
          Grid used for XC integration:  xfine     
          Radial quadrature: Mura-Knowles        
          Angular quadrature: Lebedev. 
          Tag              B.-S. Rad. Rad. Pts. Rad. Cut. Ang. Pts.
          ---              ---------- --------- --------- ---------
          O                   0.60      100          11.0      1454
          C                   0.70      100          11.0      1454
          H                   0.35      100          12.0      1202
          Grid pruning is: on 
          Number of quadrature shells:  1000
          Spatial weights used:  Erf1
 
          Convergence Information
          -----------------------
          Convergence aids based upon iterative change in 
          total energy or number of iterations. 
          Levelshifting, if invoked, occurs when the 
          HOMO/LUMO gap drops below (HL_TOL):  1.00D-02
          DIIS, if invoked, will attempt to extrapolate 
          using up to (NFOCK): 10 stored Fock matrices.

                    Damping( 0%)  Levelshifting(0.0)       DIIS
                  --------------- ------------------- ---------------
          dE  on:    start             N/A                start   
          dE off:    2 iters           N/A              250 iters 

 
      Screening Tolerance Information
      -------------------------------
          Density screening/tol_rho:  1.00D-11
          AO Gaussian exp screening on grid/accAOfunc:  18
          CD Gaussian exp screening on grid/accCDfunc:  20
          XC Gaussian exp screening on grid/accXCfunc:  20
          Schwarz screening/accCoul:  1.00D-09

 
      Superposition of Atomic Density Guess
      -------------------------------------
 
 Sum of atomic energies:        -190.79714706
 
      Non-variational initial energy
      ------------------------------

 Total energy =    -193.156956
 1-e energy   =    -501.955082
 2-e energy   =     185.302982
 HOMO         =      -0.350827
 LUMO         =       0.090999
 
   Time after variat. SCF:      2.0
   Time prior to 1st pass:      2.0

 Grid_pts file          = ./methyloxirane_blyp-def2-tzvp_488.9_35.inp.gridpts.0
 Record size in doubles =  12289        No. of grid_pts per rec  =   3070
 Max. records in memory =     76        Max. recs in file   =    317624


           Memory utilization after 1st SCF pass: 
           Heap Space remaining (MW):       12.17            12167544
          Stack Space remaining (MW):       13.11            13106116

   convergence    iter        energy       DeltaE   RMS-Dens  Diis-err    time
 ---------------- ----- ----------------- --------- --------- ---------  ------
 d= 0,ls=0.0,diis     1   -193.0200102930 -3.17D+02  9.14D-03  1.06D+00     8.6
 d= 0,ls=0.0,diis     2   -192.8585010237  1.62D-01  7.57D-03  2.56D+00    14.7
 d= 0,ls=0.0,diis     3   -193.0770393316 -2.19D-01  1.81D-03  3.86D-01    20.8
 d= 0,ls=0.0,diis     4   -193.1071444260 -3.01D-02  6.84D-04  1.83D-02    26.8
 d= 0,ls=0.0,diis     5   -193.1088233612 -1.68D-03  2.92D-04  2.71D-03    32.9
 d= 0,ls=0.0,diis     6   -193.1091609765 -3.38D-04  3.04D-05  3.79D-05    39.0
 d= 0,ls=0.0,diis     7   -193.1091652287 -4.25D-06  9.16D-06  6.07D-06    45.0
 d= 0,ls=0.0,diis     8   -193.1091658824 -6.54D-07  2.92D-06  4.52D-07    51.0
 d= 0,ls=0.0,diis     9   -193.1091659317 -4.93D-08  7.95D-07  3.18D-08    57.1
 d= 0,ls=0.0,diis    10   -193.1091659353 -3.60D-09  2.41D-07  3.67D-09    63.2


         Total DFT energy =     -193.109165935309
      One electron energy =     -505.609637753361
           Coulomb energy =      216.024837480244
    Exchange-Corr. energy =      -27.019509970832
 Nuclear repulsion energy =      123.495144308641

 Numeric. integr. density =       32.000000050523

     Total iterative time =     61.2s


 
                       DFT Final Molecular Orbital Analysis
                       ------------------------------------
 
 Vector    1  Occ=2.000000D+00  E=-1.877968D+01
              MO Center= -8.8D-01, -1.8D-01,  2.0D-01, r^2= 1.5D-02
   Bfn.  Coefficient  Atom+Function         Bfn.  Coefficient  Atom+Function  
  ----- ------------  ---------------      ----- ------------  ---------------
     2      0.638476   1 O  s                 1      0.435422   1 O  s         
     3      0.039896   1 O  s                 4     -0.033276   1 O  s         
 
 Vector    2  Occ=2.000000D+00  E=-9.964029D+00
              MO Center=  5.7D-01, -1.6D-01,  1.3D-01, r^2= 2.8D-02
   Bfn.  Coefficient  Atom+Function         Bfn.  Coefficient  Atom+Function  
  ----- ------------  ---------------      ----- ------------  ---------------
    33      0.606935   2 C  s                32      0.467275   2 C  s         
    34      0.042399   2 C  s                36      0.036959   2 C  s         
    35     -0.027032   2 C  s         
 
 Vector    3  Occ=2.000000D+00  E=-9.954959D+00
              MO Center= -1.8D-01,  1.1D+00,  3.4D-01, r^2= 2.8D-02
   Bfn.  Coefficient  Atom+Function         Bfn.  Coefficient  Atom+Function  
  ----- ------------  ---------------      ----- ------------  ---------------
    64      0.607036   3 C  s                63      0.467231   3 C  s         
    65      0.039730   3 C  s         
 
 Vector    4  Occ=2.000000D+00  E=-9.908167D+00
              MO Center=  1.2D+00, -5.2D-01, -1.2D+00, r^2= 2.8D-02
   Bfn.  Coefficient  Atom+Function         Bfn.  Coefficient  Atom+Function  
  ----- ------------  ---------------      ----- ------------  ---------------
    95      0.606967   4 C  s                94      0.467217   4 C  s         
    96      0.040628   4 C  s                98      0.035276   4 C  s         
 
 Vector    5  Occ=2.000000D+00  E=-9.629304D-01
              MO Center= -4.7D-01,  5.7D-02,  2.1D-01, r^2= 6.5D-01
   Bfn.  Coefficient  Atom+Function         Bfn.  Coefficient  Atom+Function  
  ----- ------------  ---------------      ----- ------------  ---------------
     4      0.375196   1 O  s                 3      0.277387   1 O  s         
     2     -0.192772   1 O  s                34      0.139804   2 C  s         
    65      0.139266   3 C  s                 5      0.122700   1 O  s         
    35      0.104736   2 C  s                 6      0.093561   1 O  px        
    66      0.093631   3 C  s                69     -0.091451   3 C  py        
 
 Vector    6  Occ=2.000000D+00  E=-6.689262D-01
              MO Center=  9.4D-01, -3.9D-01, -7.7D-01, r^2= 1.5D+00
   Bfn.  Coefficient  Atom+Function         Bfn.  Coefficient  Atom+Function  
  ----- ------------  ---------------      ----- ------------  ---------------
    97      0.285394   4 C  s                96      0.276177   4 C  s         
    35      0.185410   2 C  s                34      0.174443   2 C  s         
    95     -0.173860   4 C  s                 4     -0.147594   1 O  s         
    33     -0.108916   2 C  s                 3     -0.103132   1 O  s         
    94     -0.083302   4 C  s                 5     -0.073097   1 O  s         
 
 Vector    7  Occ=2.000000D+00  E=-5.893330D-01
              MO Center= -1.3D-01,  7.1D-01,  2.2D-01, r^2= 2.0D+00
   Bfn.  Coefficient  Atom+Function         Bfn.  Coefficient  Atom+Function  
  ----- ------------  ---------------      ----- ------------  ---------------
    66      0.325180   3 C  s                65      0.277451   3 C  s         
     4     -0.239104   1 O  s                64     -0.171488   3 C  s         
     3     -0.168902   1 O  s                 5     -0.148615   1 O  s         
     2      0.111505   1 O  s                38      0.104467   2 C  py        
   132      0.102648   6 H  s                97     -0.100099   4 C  s         
 
 Vector    8  Occ=2.000000D+00  E=-5.305268D-01
              MO Center=  4.1D-01,  2.9D-02, -9.2D-02, r^2= 2.7D+00
   Bfn.  Coefficient  Atom+Function         Bfn.  Coefficient  Atom+Function  
  ----- ------------  ---------------      ----- ------------  ---------------
    35      0.302820   2 C  s                34      0.224599   2 C  s         
    66     -0.155234   3 C  s                97     -0.154244   4 C  s         
    33     -0.138132   2 C  s               126      0.132324   5 H  s         
    96     -0.128553   4 C  s                 6      0.105970   1 O  px        
   125      0.105660   5 H  s                65     -0.100948   3 C  s         
 
 Vector    9  Occ=2.000000D+00  E=-4.474478D-01
              MO Center=  1.1D-01,  2.8D-01,  2.5D-01, r^2= 2.5D+00
   Bfn.  Coefficient  Atom+Function         Bfn.  Coefficient  Atom+Function  
  ----- ------------  ---------------      ----- ------------  ---------------
    70      0.208999   3 C  pz               39      0.155801   2 C  pz        
   132      0.144148   6 H  s                73      0.131609   3 C  pz        
     8      0.126853   1 O  pz              126      0.116541   5 H  s         
     6     -0.113476   1 O  px               38     -0.106784   2 C  py        
   131      0.106971   6 H  s                37      0.105867   2 C  px        
 
 Vector   10  Occ=2.000000D+00  E=-4.135274D-01
              MO Center=  5.6D-02,  2.8D-01, -2.5D-01, r^2= 2.6D+00
   Bfn.  Coefficient  Atom+Function         Bfn.  Coefficient  Atom+Function  
  ----- ------------  ---------------      ----- ------------  ---------------
    69      0.212612   3 C  py              101      0.156778   4 C  pz        
   138      0.153375   7 H  s                 6     -0.142898   1 O  px        
    38     -0.139144   2 C  py               37      0.129942   2 C  px        
    72      0.120638   3 C  py                7     -0.118385   1 O  py        
    70     -0.118927   3 C  pz                9     -0.114361   1 O  px        
 
 Vector   11  Occ=2.000000D+00  E=-3.764464D-01
              MO Center=  8.9D-01, -2.9D-01, -7.2D-01, r^2= 2.7D+00
   Bfn.  Coefficient  Atom+Function         Bfn.  Coefficient  Atom+Function  
  ----- ------------  ---------------      ----- ------------  ---------------
    99      0.212322   4 C  px              144      0.185495   8 H  s         
   100      0.158068   4 C  py              102      0.136236   4 C  px        
   150     -0.134769   9 H  s               143      0.129906   8 H  s         
    37      0.126592   2 C  px                7      0.121364   1 O  py        
     6     -0.115995   1 O  px              103      0.104755   4 C  py        
 
 Vector   12  Occ=2.000000D+00  E=-3.557269D-01
              MO Center=  6.2D-01, -3.8D-01, -9.1D-01, r^2= 2.8D+00
   Bfn.  Coefficient  Atom+Function         Bfn.  Coefficient  Atom+Function  
  ----- ------------  ---------------      ----- ------------  ---------------
   100      0.259852   4 C  py              150     -0.190025   9 H  s         
   156      0.176151  10 H  s               103      0.168735   4 C  py        
     7     -0.167389   1 O  py               10     -0.133817   1 O  py        
   149     -0.132456   9 H  s               155      0.124644  10 H  s         
    70      0.106571   3 C  pz              106      0.104122   4 C  py        
 
 Vector   13  Occ=2.000000D+00  E=-3.280114D-01
              MO Center=  3.6D-01,  2.8D-01, -2.0D-01, r^2= 2.8D+00
   Bfn.  Coefficient  Atom+Function         Bfn.  Coefficient  Atom+Function  
  ----- ------------  ---------------      ----- ------------  ---------------
    39      0.230013   2 C  pz              101     -0.203952   4 C  pz        
    70     -0.182254   3 C  pz              138      0.165526   7 H  s         
    42      0.156532   2 C  pz              104     -0.142533   4 C  pz        
     7     -0.141433   1 O  py              132     -0.117832   6 H  s         
   126      0.115279   5 H  s                10     -0.113825   1 O  py        
 
 Vector   14  Occ=2.000000D+00  E=-3.224273D-01
              MO Center=  3.8D-01, -7.1D-02, -2.5D-01, r^2= 3.0D+00
   Bfn.  Coefficient  Atom+Function         Bfn.  Coefficient  Atom+Function  
  ----- ------------  ---------------      ----- ------------  ---------------
     7      0.222430   1 O  py               10      0.182216   1 O  py        
    99     -0.172325   4 C  px                6     -0.155473   1 O  px        
   126      0.150021   5 H  s               156      0.145183  10 H  s         
   144     -0.143253   8 H  s                37      0.141967   2 C  px        
     9     -0.127428   1 O  px              102     -0.112080   4 C  px        
 
 Vector   15  Occ=2.000000D+00  E=-2.633530D-01
              MO Center=  1.8D-02,  1.5D-01,  3.1D-02, r^2= 2.3D+00
   Bfn.  Coefficient  Atom+Function         Bfn.  Coefficient  Atom+Function  
  ----- ------------  ---------------      ----- ------------  ---------------
    68      0.265381   3 C  px               38      0.256225   2 C  py        
     6     -0.235105   1 O  px               41      0.199911   2 C  py        
    71      0.196880   3 C  px                9     -0.183804   1 O  px        
    12     -0.155911   1 O  px              150      0.115926   9 H  s         
   100     -0.113116   4 C  py               67      0.106503   3 C  s         
 
 Vector   16  Occ=2.000000D+00  E=-2.195808D-01
              MO Center= -5.8D-01, -2.1D-02,  2.0D-01, r^2= 1.6D+00
   Bfn.  Coefficient  Atom+Function         Bfn.  Coefficient  Atom+Function  
  ----- ------------  ---------------      ----- ------------  ---------------
     8      0.448568   1 O  pz               11      0.357215   1 O  pz        
    14      0.295971   1 O  pz              133     -0.130670   6 H  s         
   139      0.111849   7 H  s               132     -0.105476   6 H  s         
   138      0.103611   7 H  s               145     -0.102507   8 H  s         
   126     -0.096454   5 H  s                98      0.094963   4 C  s         
 
 Vector   17  Occ=0.000000D+00  E= 2.579197D-02
              MO Center=  1.2D+00, -1.4D-01, -5.8D-01, r^2= 7.2D+00
   Bfn.  Coefficient  Atom+Function         Bfn.  Coefficient  Atom+Function  
  ----- ------------  ---------------      ----- ------------  ---------------
    98      4.474824   4 C  s               145     -1.527018   8 H  s         
   151     -1.517779   9 H  s               157     -1.332703  10 H  s         
   127     -1.288674   5 H  s                45      1.149430   2 C  pz        
   139     -0.841078   7 H  s                67      0.671826   3 C  s         
   133     -0.608832   6 H  s                74     -0.324949   3 C  px        
 
 Vector   18  Occ=0.000000D+00  E= 4.333010D-02
              MO Center= -1.5D-01,  6.9D-01,  1.1D-01, r^2= 4.4D+00
   Bfn.  Coefficient  Atom+Function         Bfn.  Coefficient  Atom+Function  
  ----- ------------  ---------------      ----- ------------  ---------------
    36      2.195971   2 C  s                98     -2.092809   4 C  s         
     5     -1.251086   1 O  s                74     -0.964725   3 C  px        
   151      0.769116   9 H  s                67     -0.719742   3 C  s         
   157      0.495294  10 H  s                44      0.441658   2 C  py        
    13     -0.419102   1 O  py               45     -0.412944   2 C  pz        
 
 Vector   19  Occ=0.000000D+00  E= 5.028254D-02
              MO Center=  4.8D-01,  7.7D-01,  3.2D-01, r^2= 7.4D+00
   Bfn.  Coefficient  Atom+Function         Bfn.  Coefficient  Atom+Function  
  ----- ------------  ---------------      ----- ------------  ---------------
    67      3.367795   3 C  s                98     -3.091687   4 C  s         
   133     -1.788409   6 H  s               145      1.251372   8 H  s         
    44     -1.144625   2 C  py              139     -0.843540   7 H  s         
   157      0.758991  10 H  s               151      0.722517   9 H  s         
   127     -0.555905   5 H  s                45     -0.538301   2 C  pz        
 
 Vector   20  Occ=0.000000D+00  E= 5.061021D-02
              MO Center=  4.8D-01,  2.9D-01, -9.3D-02, r^2= 6.9D+00
   Bfn.  Coefficient  Atom+Function         Bfn.  Coefficient  Atom+Function  
  ----- ------------  ---------------      ----- ------------  ---------------
    36      2.649287   2 C  s               127     -2.037243   5 H  s         
    67     -1.739638   3 C  s               139      1.495221   7 H  s         
    98     -1.393164   4 C  s               157      1.160887  10 H  s         
    76      0.679659   3 C  pz               43      0.623194   2 C  px        
     5      0.540629   1 O  s                45      0.392081   2 C  pz        
 
 Vector   21  Occ=0.000000D+00  E= 6.459045D-02
              MO Center=  2.7D-01,  9.6D-02, -1.3D-01, r^2= 4.7D+00
   Bfn.  Coefficient  Atom+Function         Bfn.  Coefficient  Atom+Function  
  ----- ------------  ---------------      ----- ------------  ---------------
    98      1.331603   4 C  s               139      1.191024   7 H  s         
   151     -0.943026   9 H  s                67     -0.873562   3 C  s         
     5     -0.838951   1 O  s                43     -0.838627   2 C  px        
   133      0.607967   6 H  s                75     -0.564929   3 C  py        
    12     -0.481008   1 O  px               45      0.408940   2 C  pz        
 
 Vector   22  Occ=0.000000D+00  E= 8.642332D-02
              MO Center=  1.3D+00,  2.2D-01, -4.6D-01, r^2= 7.2D+00
   Bfn.  Coefficient  Atom+Function         Bfn.  Coefficient  Atom+Function  
  ----- ------------  ---------------      ----- ------------  ---------------
    36      2.967476   2 C  s               145      2.003817   8 H  s         
    67     -1.432325   3 C  s               127     -1.330610   5 H  s         
   157     -1.279647  10 H  s               133      1.232456   6 H  s         
   107     -1.142869   4 C  pz               98     -1.032083   4 C  s         
   105     -0.988822   4 C  px               75      0.783966   3 C  py        
 
 Vector   23  Occ=0.000000D+00  E= 9.087111D-02
              MO Center=  1.2D+00, -6.0D-01, -5.3D-01, r^2= 6.7D+00
   Bfn.  Coefficient  Atom+Function         Bfn.  Coefficient  Atom+Function  
  ----- ------------  ---------------      ----- ------------  ---------------
    36      2.480651   2 C  s               151      2.031290   9 H  s         
   145     -1.583045   8 H  s                98     -1.250069   4 C  s         
   105      1.109916   4 C  px              106      1.103536   4 C  py        
   133      1.019707   6 H  s                67     -0.927642   3 C  s         
   127     -0.809230   5 H  s               107     -0.674808   4 C  pz        
 
 Vector   24  Occ=0.000000D+00  E= 1.019445D-01
              MO Center=  4.5D-01,  3.6D-01, -1.1D+00, r^2= 6.7D+00
   Bfn.  Coefficient  Atom+Function         Bfn.  Coefficient  Atom+Function  
  ----- ------------  ---------------      ----- ------------  ---------------
   157      2.074234  10 H  s               133      1.536389   6 H  s         
   106     -1.490787   4 C  py              151     -1.461587   9 H  s         
   139     -1.426973   7 H  s                98     -1.378246   4 C  s         
    36      1.172042   2 C  s                76     -1.109297   3 C  pz        
   105      1.022965   4 C  px               45     -0.577007   2 C  pz        
 
 Vector   25  Occ=0.000000D+00  E= 1.389952D-01
              MO Center=  7.9D-01,  2.2D-01, -4.3D-01, r^2= 7.9D+00
   Bfn.  Coefficient  Atom+Function         Bfn.  Coefficient  Atom+Function  
  ----- ------------  ---------------      ----- ------------  ---------------
    36      4.635112   2 C  s                98     -3.508153   4 C  s         
    45     -3.423460   2 C  pz               67     -2.766027   3 C  s         
   127      2.746267   5 H  s                76      2.178300   3 C  pz        
   105      2.091069   4 C  px              133     -1.812831   6 H  s         
   139      1.711448   7 H  s               107     -1.565771   4 C  pz        
 
 Vector   26  Occ=0.000000D+00  E= 1.707828D-01
              MO Center=  4.6D-01,  5.3D-01, -1.3D-01, r^2= 7.3D+00
   Bfn.  Coefficient  Atom+Function         Bfn.  Coefficient  Atom+Function  
  ----- ------------  ---------------      ----- ------------  ---------------
    75      2.275185   3 C  py              107      1.619477   4 C  pz        
    67     -1.480235   3 C  s                36      1.451838   2 C  s         
   139     -1.178312   7 H  s               157      1.058772  10 H  s         
    74     -0.997371   3 C  px               44      0.694818   2 C  py        
   106     -0.571730   4 C  py               43     -0.554621   2 C  px        
 
 Vector   27  Occ=0.000000D+00  E= 1.970771D-01
              MO Center=  8.0D-01, -1.1D-01, -1.0D+00, r^2= 5.1D+00
   Bfn.  Coefficient  Atom+Function         Bfn.  Coefficient  Atom+Function  
  ----- ------------  ---------------      ----- ------------  ---------------
    67      3.134382   3 C  s                44     -2.574913   2 C  py        
    36     -1.967857   2 C  s               106      1.922444   4 C  py        
    43      1.011274   2 C  px              105      0.769771   4 C  px        
    74      0.730732   3 C  px               45     -0.704511   2 C  pz        
   157     -0.687674  10 H  s                75     -0.643308   3 C  py        
 
 Vector   28  Occ=0.000000D+00  E= 2.025825D-01
              MO Center=  9.7D-01, -4.0D-01, -6.7D-01, r^2= 6.7D+00
   Bfn.  Coefficient  Atom+Function         Bfn.  Coefficient  Atom+Function  
  ----- ------------  ---------------      ----- ------------  ---------------
    36      2.717166   2 C  s                75      1.731501   3 C  py        
   105     -1.356367   4 C  px              133     -1.280708   6 H  s         
   106      0.943081   4 C  py              107     -0.905463   4 C  pz        
   139     -0.780616   7 H  s                45      0.720327   2 C  pz        
    76      0.717002   3 C  pz              156     -0.713834  10 H  s         
 
 Vector   29  Occ=0.000000D+00  E= 2.365034D-01
              MO Center= -3.0D-01,  3.6D-01, -5.2D-02, r^2= 5.4D+00
   Bfn.  Coefficient  Atom+Function         Bfn.  Coefficient  Atom+Function  
  ----- ------------  ---------------      ----- ------------  ---------------
    67      4.411348   3 C  s                36     -3.096131   2 C  s         
   139     -1.564953   7 H  s                66     -1.449232   3 C  s         
    98      1.316423   4 C  s               133     -1.209627   6 H  s         
   107      1.039780   4 C  pz               74     -0.841777   3 C  px        
     5     -0.759576   1 O  s                44      0.706209   2 C  py        
 
 Vector   30  Occ=0.000000D+00  E= 2.463204D-01
              MO Center=  5.3D-01,  3.4D-02, -1.0D-01, r^2= 5.9D+00
   Bfn.  Coefficient  Atom+Function         Bfn.  Coefficient  Atom+Function  
  ----- ------------  ---------------      ----- ------------  ---------------
    67      5.993416   3 C  s                43      4.139059   2 C  px        
    75     -2.972693   3 C  py               44     -2.556411   2 C  py        
    36     -2.136403   2 C  s               107     -2.038318   4 C  pz        
   157     -1.863681  10 H  s                45     -1.380387   2 C  pz        
   105     -1.260120   4 C  px               98     -1.250447   4 C  s         
 
 Vector   31  Occ=0.000000D+00  E= 2.686683D-01
              MO Center=  2.8D-01, -1.7D-01,  2.6D-01, r^2= 5.6D+00
   Bfn.  Coefficient  Atom+Function         Bfn.  Coefficient  Atom+Function  
  ----- ------------  ---------------      ----- ------------  ---------------
    36      4.360473   2 C  s                 5     -2.253215   1 O  s         
    67      2.061638   3 C  s                43     -1.615950   2 C  px        
   105      1.522116   4 C  px               66     -1.161930   3 C  s         
    98     -1.133868   4 C  s               133     -0.894722   6 H  s         
   139     -0.893224   7 H  s               106     -0.842004   4 C  py        
 
 Vector   32  Occ=0.000000D+00  E= 2.779744D-01
              MO Center=  4.2D-01,  3.4D-01,  3.1D-01, r^2= 4.1D+00
   Bfn.  Coefficient  Atom+Function         Bfn.  Coefficient  Atom+Function  
  ----- ------------  ---------------      ----- ------------  ---------------
    36      2.376082   2 C  s                67     -1.688013   3 C  s         
     5     -1.674619   1 O  s                43     -1.254897   2 C  px        
    74     -0.724772   3 C  px              145      0.561891   8 H  s         
    98     -0.510734   4 C  s                45     -0.499831   2 C  pz        
     4      0.484949   1 O  s                66      0.405265   3 C  s         
 
 Vector   33  Occ=0.000000D+00  E= 3.017836D-01
              MO Center=  4.7D-01,  3.7D-01, -3.9D-01, r^2= 5.0D+00
   Bfn.  Coefficient  Atom+Function         Bfn.  Coefficient  Atom+Function  
  ----- ------------  ---------------      ----- ------------  ---------------
    98     -2.008064   4 C  s                43      1.929439   2 C  px        
   106      1.735241   4 C  py              151      1.698296   9 H  s         
    76      1.312731   3 C  pz               44     -1.261758   2 C  py        
   107     -1.138093   4 C  pz               66      1.054445   3 C  s         
   139      0.968730   7 H  s                36     -0.921435   2 C  s         
 
 Vector   34  Occ=0.000000D+00  E= 3.374408D-01
              MO Center=  2.1D-01,  3.6D-01, -4.7D-01, r^2= 5.9D+00
   Bfn.  Coefficient  Atom+Function         Bfn.  Coefficient  Atom+Function  
  ----- ------------  ---------------      ----- ------------  ---------------
    67      4.599760   3 C  s                76     -3.641920   3 C  pz        
   139     -3.023914   7 H  s                36     -2.084885   2 C  s         
   107     -1.877328   4 C  pz              133      1.820305   6 H  s         
   157     -1.785060  10 H  s                98      1.719286   4 C  s         
    43      1.341600   2 C  px               44     -1.068946   2 C  py        
 
 Vector   35  Occ=0.000000D+00  E= 3.632761D-01
              MO Center=  7.6D-01,  4.6D-02, -2.4D-01, r^2= 6.8D+00
   Bfn.  Coefficient  Atom+Function         Bfn.  Coefficient  Atom+Function  
  ----- ------------  ---------------      ----- ------------  ---------------
    98      7.199641   4 C  s                76      3.335404   3 C  pz        
   145     -3.210736   8 H  s                97     -2.873551   4 C  s         
   133     -2.276744   6 H  s                36      2.234272   2 C  s         
    67     -2.223183   3 C  s               139      1.917983   7 H  s         
   151     -1.686598   9 H  s                44      1.593663   2 C  py        
 
 Vector   36  Occ=0.000000D+00  E= 3.730032D-01
              MO Center=  6.2D-01,  1.9D-01, -2.0D-01, r^2= 6.6D+00
   Bfn.  Coefficient  Atom+Function         Bfn.  Coefficient  Atom+Function  
  ----- ------------  ---------------      ----- ------------  ---------------
    36     13.142292   2 C  s                98    -10.336966   4 C  s         
    67     -8.223647   3 C  s               127     -2.982945   5 H  s         
    97      2.791843   4 C  s               157      2.540237  10 H  s         
    44      1.864175   2 C  py              151      1.863962   9 H  s         
    35     -1.812488   2 C  s               145      1.591039   8 H  s         
 
 Vector   37  Occ=0.000000D+00  E= 3.843023D-01
              MO Center=  8.7D-01, -3.5D-01, -1.2D-01, r^2= 5.9D+00
   Bfn.  Coefficient  Atom+Function         Bfn.  Coefficient  Atom+Function  
  ----- ------------  ---------------      ----- ------------  ---------------
    36      6.059856   2 C  s               127     -4.017504   5 H  s         
    98      3.023835   4 C  s                45      2.458912   2 C  pz        
    35     -2.258342   2 C  s               151     -2.170847   9 H  s         
    43      1.821520   2 C  px               67     -1.815630   3 C  s         
    76     -1.797969   3 C  pz              145     -1.801961   8 H  s         
 
 Vector   38  Occ=0.000000D+00  E= 3.938866D-01
              MO Center=  1.4D-01,  2.0D-01, -2.2D-02, r^2= 6.6D+00
   Bfn.  Coefficient  Atom+Function         Bfn.  Coefficient  Atom+Function  
  ----- ------------  ---------------      ----- ------------  ---------------
    98     11.893018   4 C  s                67     -6.730656   3 C  s         
    45      5.583699   2 C  pz               76     -3.400621   3 C  pz        
   133      2.871160   6 H  s               157     -2.611336  10 H  s         
    44      2.505279   2 C  py               75      2.003469   3 C  py        
    43     -1.797673   2 C  px               97     -1.733132   4 C  s         
 
 Vector   39  Occ=0.000000D+00  E= 4.010252D-01
              MO Center= -2.2D-01,  1.7D-01,  1.7D-01, r^2= 6.5D+00
   Bfn.  Coefficient  Atom+Function         Bfn.  Coefficient  Atom+Function  
  ----- ------------  ---------------      ----- ------------  ---------------
    67    -11.971096   3 C  s                36     11.394269   2 C  s         
    45     -5.288947   2 C  pz               98     -4.439181   4 C  s         
    44      3.793715   2 C  py              127      3.057420   5 H  s         
    66      2.687733   3 C  s                43     -2.567906   2 C  px        
   139      2.575132   7 H  s               105      2.455063   4 C  px        
 
 Vector   40  Occ=0.000000D+00  E= 4.152981D-01
              MO Center=  7.7D-01, -3.4D-01, -8.0D-01, r^2= 5.9D+00
   Bfn.  Coefficient  Atom+Function         Bfn.  Coefficient  Atom+Function  
  ----- ------------  ---------------      ----- ------------  ---------------
    98      6.341170   4 C  s                36     -2.815733   2 C  s         
    45      2.643108   2 C  pz              105     -2.431936   4 C  px        
   151     -2.355319   9 H  s               157     -1.924951  10 H  s         
   145      1.810117   8 H  s                97     -1.101751   4 C  s         
   144     -0.960620   8 H  s               127     -0.914405   5 H  s         
 
 Vector   41  Occ=0.000000D+00  E= 4.273280D-01
              MO Center=  4.8D-01,  1.5D-01, -1.8D-01, r^2= 6.9D+00
   Bfn.  Coefficient  Atom+Function         Bfn.  Coefficient  Atom+Function  
  ----- ------------  ---------------      ----- ------------  ---------------
    36      9.138991   2 C  s                67     -4.750139   3 C  s         
    98     -3.900281   4 C  s                44      2.621190   2 C  py        
    75      2.515362   3 C  py              151      2.424918   9 H  s         
    43     -1.785151   2 C  px               45     -1.497134   2 C  pz        
    74     -1.439339   3 C  px              105      1.321738   4 C  px        
 
 Vector   42  Occ=0.000000D+00  E= 4.465996D-01
              MO Center=  1.1D-01, -6.7D-02, -3.7D-02, r^2= 6.1D+00
   Bfn.  Coefficient  Atom+Function         Bfn.  Coefficient  Atom+Function  
  ----- ------------  ---------------      ----- ------------  ---------------
    36      9.125477   2 C  s                98     -8.584164   4 C  s         
    45     -5.646227   2 C  pz              127      3.138498   5 H  s         
    76      2.834992   3 C  pz               67     -2.785511   3 C  s         
   133     -2.344008   6 H  s                44      2.258529   2 C  py        
   157      2.066048  10 H  s               106     -1.906750   4 C  py        
 
 Vector   43  Occ=0.000000D+00  E= 4.602365D-01
              MO Center=  5.1D-02,  8.2D-01, -5.9D-01, r^2= 5.1D+00
   Bfn.  Coefficient  Atom+Function         Bfn.  Coefficient  Atom+Function  
  ----- ------------  ---------------      ----- ------------  ---------------
   139      3.134672   7 H  s               157     -2.574294  10 H  s         
    75     -2.294766   3 C  py              107     -2.144081   4 C  pz        
    44     -1.804993   2 C  py               43      1.739748   2 C  px        
   138     -1.481959   7 H  s                45     -1.159839   2 C  pz        
    36     -1.036051   2 C  s                74      0.933559   3 C  px        
 
 Vector   44  Occ=0.000000D+00  E= 4.719178D-01
              MO Center=  4.3D-01,  1.6D-01, -7.7D-02, r^2= 5.6D+00
   Bfn.  Coefficient  Atom+Function         Bfn.  Coefficient  Atom+Function  
  ----- ------------  ---------------      ----- ------------  ---------------
    98     -5.670338   4 C  s                36      5.566634   2 C  s         
    45     -2.858115   2 C  pz               67     -1.918805   3 C  s         
   145      1.710489   8 H  s               107     -1.687726   4 C  pz        
    35     -1.407545   2 C  s               133      1.212663   6 H  s         
   132     -1.065699   6 H  s               126      1.008771   5 H  s         
 
 Vector   45  Occ=0.000000D+00  E= 5.091719D-01
              MO Center=  9.1D-01, -3.8D-01, -9.3D-01, r^2= 4.8D+00
   Bfn.  Coefficient  Atom+Function         Bfn.  Coefficient  Atom+Function  
  ----- ------------  ---------------      ----- ------------  ---------------
    98     11.745305   4 C  s                36     -7.794451   2 C  s         
    45      4.858982   2 C  pz              107      3.127322   4 C  pz        
   144     -1.318824   8 H  s               106      1.311511   4 C  py        
   127     -1.297823   5 H  s               156     -1.243475  10 H  s         
   150     -1.099964   9 H  s               105     -1.083962   4 C  px        
 
 Vector   46  Occ=0.000000D+00  E= 5.316060D-01
              MO Center=  8.7D-02, -3.9D-01, -4.9D-01, r^2= 4.3D+00
   Bfn.  Coefficient  Atom+Function         Bfn.  Coefficient  Atom+Function  
  ----- ------------  ---------------      ----- ------------  ---------------
    98     -6.622725   4 C  s                36      6.561754   2 C  s         
    45     -3.471151   2 C  pz               76      3.143344   3 C  pz        
   133     -1.757215   6 H  s               105      1.472560   4 C  px        
   139      1.371266   7 H  s               107     -1.352411   4 C  pz        
    14     -1.146882   1 O  pz                5     -1.098817   1 O  s         
 
 Vector   47  Occ=0.000000D+00  E= 6.587786D-01
              MO Center= -3.6D-01,  4.5D-02, -1.3D-02, r^2= 4.3D+00
   Bfn.  Coefficient  Atom+Function         Bfn.  Coefficient  Atom+Function  
  ----- ------------  ---------------      ----- ------------  ---------------
    36     11.556996   2 C  s                67     -8.783069   3 C  s         
    98     -4.315636   4 C  s                43     -2.594811   2 C  px        
    75      2.357008   3 C  py               76      2.188231   3 C  pz        
    13      2.158158   1 O  py              105      1.633383   4 C  px        
   139      1.564407   7 H  s                44      1.503202   2 C  py        
 
 Vector   48  Occ=0.000000D+00  E= 6.747084D-01
              MO Center= -3.3D-01,  3.6D-01,  1.3D-01, r^2= 4.0D+00
   Bfn.  Coefficient  Atom+Function         Bfn.  Coefficient  Atom+Function  
  ----- ------------  ---------------      ----- ------------  ---------------
    36      8.620110   2 C  s                67     -8.465131   3 C  s         
     5      2.961656   1 O  s                75      2.712551   3 C  py        
    13      2.209394   1 O  py               98     -2.200234   4 C  s         
    43     -1.427223   2 C  px               45     -1.305658   2 C  pz        
    44      1.145460   2 C  py                4     -1.104747   1 O  s         
 
 Vector   49  Occ=0.000000D+00  E= 7.090284D-01
              MO Center=  1.8D-01, -3.0D-01, -2.5D-01, r^2= 4.5D+00
   Bfn.  Coefficient  Atom+Function         Bfn.  Coefficient  Atom+Function  
  ----- ------------  ---------------      ----- ------------  ---------------
    67      9.240091   3 C  s                36     -6.991728   2 C  s         
    43      3.693079   2 C  px               44     -3.428530   2 C  py        
    75     -2.674837   3 C  py               98     -2.657354   4 C  s         
     5      2.310778   1 O  s                12      1.671420   1 O  px        
   106      1.631342   4 C  py               13     -1.290573   1 O  py        
 
 Vector   50  Occ=0.000000D+00  E= 7.594936D-01
              MO Center=  6.4D-01, -4.3D-02, -3.6D-01, r^2= 4.1D+00
   Bfn.  Coefficient  Atom+Function         Bfn.  Coefficient  Atom+Function  
  ----- ------------  ---------------      ----- ------------  ---------------
    45      2.407449   2 C  pz               36      1.822869   2 C  s         
   127     -1.715355   5 H  s               105     -1.661700   4 C  px        
     5     -1.616061   1 O  s                43      1.396188   2 C  px        
   126     -1.323618   5 H  s               144      1.240957   8 H  s         
    66      1.019832   3 C  s                76     -0.977464   3 C  pz        
 
 Vector   51  Occ=0.000000D+00  E= 7.916418D-01
              MO Center=  3.1D-01,  8.0D-02, -2.1D-01, r^2= 4.3D+00
   Bfn.  Coefficient  Atom+Function         Bfn.  Coefficient  Atom+Function  
  ----- ------------  ---------------      ----- ------------  ---------------
     5      3.883040   1 O  s                76     -2.617359   3 C  pz        
    36     -2.545733   2 C  s                45      1.636781   2 C  pz        
     4     -1.522880   1 O  s               133      1.365370   6 H  s         
    12      1.304747   1 O  px               43      1.219524   2 C  px        
    35     -1.046985   2 C  s                66     -1.035270   3 C  s         
 
 Vector   52  Occ=0.000000D+00  E= 8.322440D-01
              MO Center=  3.2D-01,  1.7D-01,  1.2D-03, r^2= 4.5D+00
   Bfn.  Coefficient  Atom+Function         Bfn.  Coefficient  Atom+Function  
  ----- ------------  ---------------      ----- ------------  ---------------
    36      6.490292   2 C  s                98     -4.072899   4 C  s         
     5     -3.913190   1 O  s                43     -2.586728   2 C  px        
   105      1.942004   4 C  px               35     -1.812648   2 C  s         
    45     -1.775011   2 C  pz               44      1.457830   2 C  py        
    66     -1.200836   3 C  s                97      1.074401   4 C  s         
 
 Vector   53  Occ=0.000000D+00  E= 8.555925D-01
              MO Center=  6.1D-01,  1.2D-01, -4.1D-01, r^2= 4.2D+00
   Bfn.  Coefficient  Atom+Function         Bfn.  Coefficient  Atom+Function  
  ----- ------------  ---------------      ----- ------------  ---------------
    36      4.753461   2 C  s                98     -4.652310   4 C  s         
    45     -4.563514   2 C  pz               76      2.016771   3 C  pz        
   127      1.812388   5 H  s               106     -1.541306   4 C  py        
    44      1.520540   2 C  py              105      1.415737   4 C  px        
   150     -1.217717   9 H  s                 5     -1.184107   1 O  s         
 
 Vector   54  Occ=0.000000D+00  E= 8.695891D-01
              MO Center=  1.5D-01, -3.6D-02, -8.7D-02, r^2= 4.2D+00
   Bfn.  Coefficient  Atom+Function         Bfn.  Coefficient  Atom+Function  
  ----- ------------  ---------------      ----- ------------  ---------------
     5      4.761115   1 O  s                36     -1.869289   2 C  s         
     4     -1.604013   1 O  s               138      1.426981   7 H  s         
    67     -1.268967   3 C  s                76      1.270689   3 C  pz        
    12      1.210072   1 O  px               66     -1.124670   3 C  s         
    43      0.912326   2 C  px               40      0.817945   2 C  px        
 
 Vector   55  Occ=0.000000D+00  E= 9.209903D-01
              MO Center=  5.2D-01,  2.9D-01, -4.9D-01, r^2= 4.6D+00
   Bfn.  Coefficient  Atom+Function         Bfn.  Coefficient  Atom+Function  
  ----- ------------  ---------------      ----- ------------  ---------------
    35      4.943146   2 C  s                36     -1.738896   2 C  s         
    67      1.445680   3 C  s                66     -1.314084   3 C  s         
    72      1.311428   3 C  py              132     -1.298995   6 H  s         
   156     -1.254257  10 H  s                41      1.181461   2 C  py        
    84      1.156811   3 C  d  0            116     -1.101631   4 C  d  1      
 
 Vector   56  Occ=0.000000D+00  E= 9.625150D-01
              MO Center=  4.6D-01,  2.9D-01, -5.3D-01, r^2= 4.7D+00
   Bfn.  Coefficient  Atom+Function         Bfn.  Coefficient  Atom+Function  
  ----- ------------  ---------------      ----- ------------  ---------------
    35      4.124287   2 C  s                67      2.482408   3 C  s         
   138     -2.352564   7 H  s                42     -1.777599   2 C  pz        
    76     -1.756319   3 C  pz               83     -1.641360   3 C  d -1      
    98     -1.604655   4 C  s               115     -1.462163   4 C  d  0      
   132      1.374456   6 H  s               107     -1.348970   4 C  pz        
 
 Vector   57  Occ=0.000000D+00  E= 9.941618D-01
              MO Center=  3.7D-01,  4.1D-01, -1.7D-01, r^2= 4.1D+00
   Bfn.  Coefficient  Atom+Function         Bfn.  Coefficient  Atom+Function  
  ----- ------------  ---------------      ----- ------------  ---------------
    36      7.772446   2 C  s                98     -4.968147   4 C  s         
    67     -4.172429   3 C  s                45     -3.989694   2 C  pz        
    43     -2.447741   2 C  px               44      2.197484   2 C  py        
   127      1.671209   5 H  s                66     -1.620424   3 C  s         
    75      1.465049   3 C  py              126      1.420146   5 H  s         
 
 Vector   58  Occ=0.000000D+00  E= 1.012428D+00
              MO Center=  3.6D-01,  5.8D-01, -3.5D-02, r^2= 4.2D+00
   Bfn.  Coefficient  Atom+Function         Bfn.  Coefficient  Atom+Function  
  ----- ------------  ---------------      ----- ------------  ---------------
    36      4.846094   2 C  s                67     -4.156852   3 C  s         
    45     -1.917445   2 C  pz               44      1.648796   2 C  py        
   156     -1.418907  10 H  s                82      1.351794   3 C  d -2      
   144      1.322695   8 H  s                98     -1.284461   4 C  s         
    74     -1.267358   3 C  px               76      1.259850   3 C  pz        
 
 Vector   59  Occ=0.000000D+00  E= 1.039847D+00
              MO Center=  7.0D-01, -1.6D-01, -4.6D-01, r^2= 4.2D+00
   Bfn.  Coefficient  Atom+Function         Bfn.  Coefficient  Atom+Function  
  ----- ------------  ---------------      ----- ------------  ---------------
    36      3.110173   2 C  s                35      2.746015   2 C  s         
    66     -2.403275   3 C  s                 5     -1.988078   1 O  s         
   150      1.946113   9 H  s               144     -1.889985   8 H  s         
   117      1.711094   4 C  d  2             67     -1.632752   3 C  s         
    41      1.554334   2 C  py               44      1.505868   2 C  py        
 
 Vector   60  Occ=0.000000D+00  E= 1.077128D+00
              MO Center=  6.8D-01,  1.2D-02, -6.3D-02, r^2= 4.1D+00
   Bfn.  Coefficient  Atom+Function         Bfn.  Coefficient  Atom+Function  
  ----- ------------  ---------------      ----- ------------  ---------------
    66     -3.961727   3 C  s                98      3.923161   4 C  s         
    45      3.696200   2 C  pz               97      3.565640   4 C  s         
    36     -3.178937   2 C  s                41      2.505523   2 C  py        
   104      2.450725   4 C  pz               72      2.306986   3 C  py        
    42      2.263148   2 C  pz               53     -2.194675   2 C  d  0      
 
 Vector   61  Occ=0.000000D+00  E= 1.103993D+00
              MO Center=  3.7D-01,  5.4D-02,  6.7D-02, r^2= 3.8D+00
   Bfn.  Coefficient  Atom+Function         Bfn.  Coefficient  Atom+Function  
  ----- ------------  ---------------      ----- ------------  ---------------
    36      7.440441   2 C  s                67     -5.179054   3 C  s         
    98     -2.957516   4 C  s                66      2.356357   3 C  s         
   126     -2.004250   5 H  s                45     -1.959875   2 C  pz        
    72     -1.707227   3 C  py              132      1.670628   6 H  s         
    41     -1.564261   2 C  py               53      1.515125   2 C  d  0      
 
 Vector   62  Occ=0.000000D+00  E= 1.146108D+00
              MO Center=  6.1D-01,  2.0D-02, -1.8D-02, r^2= 3.6D+00
   Bfn.  Coefficient  Atom+Function         Bfn.  Coefficient  Atom+Function  
  ----- ------------  ---------------      ----- ------------  ---------------
    67      5.146097   3 C  s                36     -3.920385   2 C  s         
    44     -2.425609   2 C  py              126      1.784431   5 H  s         
    97     -1.769435   4 C  s                54      1.579457   2 C  d  1      
    43      1.568751   2 C  px               55      1.464909   2 C  d  2      
    75     -1.459311   3 C  py               42     -1.426190   2 C  pz        
 
 Vector   63  Occ=0.000000D+00  E= 1.215232D+00
              MO Center=  5.4D-01,  2.1D-01, -1.4D-01, r^2= 3.8D+00
   Bfn.  Coefficient  Atom+Function         Bfn.  Coefficient  Atom+Function  
  ----- ------------  ---------------      ----- ------------  ---------------
    36      6.803401   2 C  s                66     -4.969765   3 C  s         
    67     -3.363701   3 C  s                97     -3.299912   4 C  s         
    35      3.029029   2 C  s                72      1.897320   3 C  py        
    51     -1.739496   2 C  d -2            138      1.706743   7 H  s         
    52      1.669701   2 C  d -1             41      1.528055   2 C  py        
 
 Vector   64  Occ=0.000000D+00  E= 1.347811D+00
              MO Center=  3.5D-01,  5.5D-01,  2.2D-01, r^2= 3.6D+00
   Bfn.  Coefficient  Atom+Function         Bfn.  Coefficient  Atom+Function  
  ----- ------------  ---------------      ----- ------------  ---------------
    66      4.665493   3 C  s                35      3.882221   2 C  s         
    67     -3.173546   3 C  s                36     -2.590088   2 C  s         
    65     -2.410393   3 C  s               132     -2.048929   6 H  s         
    34     -1.435794   2 C  s               133      1.428651   6 H  s         
    72      1.393305   3 C  py              139      1.088076   7 H  s         
 
 Vector   65  Occ=0.000000D+00  E= 1.415679D+00
              MO Center=  1.5D-01,  5.2D-01, -3.0D-02, r^2= 3.4D+00
   Bfn.  Coefficient  Atom+Function         Bfn.  Coefficient  Atom+Function  
  ----- ------------  ---------------      ----- ------------  ---------------
    36      4.241999   2 C  s                35     -3.732519   2 C  s         
    67     -3.715153   3 C  s                66      3.640896   3 C  s         
    73     -2.365596   3 C  pz              138     -2.225130   7 H  s         
   139      2.222127   7 H  s               126      1.782763   5 H  s         
    76      1.766388   3 C  pz               34      1.517118   2 C  s         
 
 Vector   66  Occ=0.000000D+00  E= 1.432599D+00
              MO Center=  1.1D+00, -4.9D-01, -1.1D+00, r^2= 3.5D+00
   Bfn.  Coefficient  Atom+Function         Bfn.  Coefficient  Atom+Function  
  ----- ------------  ---------------      ----- ------------  ---------------
    98     10.059698   4 C  s                97     -7.598946   4 C  s         
    96      3.069749   4 C  s               145     -2.410355   8 H  s         
   151     -2.387279   9 H  s                36     -2.051050   2 C  s         
   157     -2.061068  10 H  s               150      1.733887   9 H  s         
   144      1.677699   8 H  s               104      1.447741   4 C  pz        
 
 Vector   67  Occ=0.000000D+00  E= 1.445319D+00
              MO Center=  4.7D-01,  6.4D-02, -3.5D-01, r^2= 4.0D+00
   Bfn.  Coefficient  Atom+Function         Bfn.  Coefficient  Atom+Function  
  ----- ------------  ---------------      ----- ------------  ---------------
    66      4.205075   3 C  s                36      2.921805   2 C  s         
    67     -2.926320   3 C  s                35     -2.455767   2 C  s         
   133      1.618980   6 H  s                65     -1.489254   3 C  s         
     5     -1.418224   1 O  s                76     -1.350382   3 C  pz        
   132     -1.217009   6 H  s               127     -1.176319   5 H  s         
 
 Vector   68  Occ=0.000000D+00  E= 1.446621D+00
              MO Center=  2.4D-01, -5.7D-02,  9.1D-02, r^2= 3.1D+00
   Bfn.  Coefficient  Atom+Function         Bfn.  Coefficient  Atom+Function  
  ----- ------------  ---------------      ----- ------------  ---------------
    98      5.739943   4 C  s                97     -3.006915   4 C  s         
    35     -2.631920   2 C  s                45      2.526424   2 C  pz        
    36     -1.818747   2 C  s               127     -1.760213   5 H  s         
     5      1.643886   1 O  s                76     -1.491768   3 C  pz        
    66      1.471277   3 C  s               126      1.311919   5 H  s         
 
 Vector   69  Occ=0.000000D+00  E= 1.473658D+00
              MO Center=  9.6D-01, -2.9D-01, -9.6D-01, r^2= 3.5D+00
   Bfn.  Coefficient  Atom+Function         Bfn.  Coefficient  Atom+Function  
  ----- ------------  ---------------      ----- ------------  ---------------
    66      2.212122   3 C  s                67     -1.257621   3 C  s         
    36      1.225993   2 C  s                 5     -1.135039   1 O  s         
    97      1.047389   4 C  s                98     -1.034376   4 C  s         
   133      0.983736   6 H  s               103      0.966980   4 C  py        
    65     -0.942706   3 C  s                71     -0.922744   3 C  px        
 
 Vector   70  Occ=0.000000D+00  E= 1.477465D+00
              MO Center=  9.9D-01, -3.8D-01, -1.0D+00, r^2= 3.3D+00
   Bfn.  Coefficient  Atom+Function         Bfn.  Coefficient  Atom+Function  
  ----- ------------  ---------------      ----- ------------  ---------------
    36      2.854152   2 C  s               156     -2.798598  10 H  s         
   157      2.146852  10 H  s               102     -2.059080   4 C  px        
   104     -1.818092   4 C  pz              126      1.776370   5 H  s         
   103      1.745988   4 C  py               66     -1.730745   3 C  s         
    35     -1.555203   2 C  s               127     -1.415770   5 H  s         
 
 Vector   71  Occ=0.000000D+00  E= 1.515392D+00
              MO Center=  3.4D-01,  1.0D-01, -3.5D-01, r^2= 3.9D+00
   Bfn.  Coefficient  Atom+Function         Bfn.  Coefficient  Atom+Function  
  ----- ------------  ---------------      ----- ------------  ---------------
    98      2.530973   4 C  s               144      1.845495   8 H  s         
   102     -1.565755   4 C  px              145     -1.377801   8 H  s         
   103     -1.353546   4 C  py               45      1.326151   2 C  pz        
    97     -1.091185   4 C  s                66      1.061026   3 C  s         
   150     -0.977143   9 H  s                36     -0.817130   2 C  s         
 
 Vector   72  Occ=0.000000D+00  E= 1.542780D+00
              MO Center=  3.0D-01,  5.0D-01, -1.7D-01, r^2= 4.5D+00
   Bfn.  Coefficient  Atom+Function         Bfn.  Coefficient  Atom+Function  
  ----- ------------  ---------------      ----- ------------  ---------------
    36      4.467891   2 C  s                35     -3.721710   2 C  s         
    98     -3.710359   4 C  s                97      3.168030   4 C  s         
    67     -2.556829   3 C  s                73      2.151174   3 C  pz        
   132     -1.738071   6 H  s               133      1.429174   6 H  s         
   138      1.402616   7 H  s                34      1.300161   2 C  s         
 
 Vector   73  Occ=0.000000D+00  E= 1.577403D+00
              MO Center=  4.8D-01,  6.0D-03, -5.6D-02, r^2= 3.3D+00
   Bfn.  Coefficient  Atom+Function         Bfn.  Coefficient  Atom+Function  
  ----- ------------  ---------------      ----- ------------  ---------------
    35      3.433939   2 C  s                36     -2.650240   2 C  s         
    40     -2.137562   2 C  px               67      1.898735   3 C  s         
   126      1.861475   5 H  s                97     -1.847241   4 C  s         
    72      1.711610   3 C  py               66     -1.550962   3 C  s         
    34     -1.416306   2 C  s                42     -1.420670   2 C  pz        
 
 Vector   74  Occ=0.000000D+00  E= 1.597294D+00
              MO Center=  3.5D-01,  3.7D-01, -1.6D-01, r^2= 3.4D+00
   Bfn.  Coefficient  Atom+Function         Bfn.  Coefficient  Atom+Function  
  ----- ------------  ---------------      ----- ------------  ---------------
    36     -5.357384   2 C  s                35      5.149898   2 C  s         
    66     -5.175418   3 C  s                67      4.014816   3 C  s         
    41      3.649315   2 C  py               71     -2.558544   3 C  px        
    72      2.291740   3 C  py               40     -1.960025   2 C  px        
    98      1.840789   4 C  s                82      1.672716   3 C  d -2      
 
 Vector   75  Occ=0.000000D+00  E= 1.639537D+00
              MO Center=  4.6D-01,  1.9D-01, -4.4D-02, r^2= 3.7D+00
   Bfn.  Coefficient  Atom+Function         Bfn.  Coefficient  Atom+Function  
  ----- ------------  ---------------      ----- ------------  ---------------
    66      2.741371   3 C  s                35      2.184385   2 C  s         
    98      1.951287   4 C  s                 5     -1.777393   1 O  s         
    97     -1.721148   4 C  s                67     -1.262264   3 C  s         
   144      1.189580   8 H  s               104     -1.161901   4 C  pz        
   103     -1.079257   4 C  py              150     -1.050371   9 H  s         
 
 Vector   76  Occ=0.000000D+00  E= 1.695203D+00
              MO Center=  5.9D-01, -9.9D-02, -3.9D-01, r^2= 3.4D+00
   Bfn.  Coefficient  Atom+Function         Bfn.  Coefficient  Atom+Function  
  ----- ------------  ---------------      ----- ------------  ---------------
    97     -4.141439   4 C  s                35      4.105632   2 C  s         
    66     -2.169371   3 C  s               104     -2.019705   4 C  pz        
    42     -1.880234   2 C  pz              102      1.692834   4 C  px        
    40      1.508867   2 C  px               96      1.220216   4 C  s         
    67      1.149401   3 C  s                34     -1.123486   2 C  s         
 
 Vector   77  Occ=0.000000D+00  E= 1.698822D+00
              MO Center= -7.5D-02,  5.0D-01, -1.1D-01, r^2= 3.8D+00
   Bfn.  Coefficient  Atom+Function         Bfn.  Coefficient  Atom+Function  
  ----- ------------  ---------------      ----- ------------  ---------------
    97      3.943593   4 C  s                 5      3.854405   1 O  s         
    72      3.516588   3 C  py               35     -2.812840   2 C  s         
    42      2.520105   2 C  pz               36     -2.496023   2 C  s         
   104      2.346086   4 C  pz              138     -2.196244   7 H  s         
    41      1.573131   2 C  py               12      1.468392   1 O  px        
 
 Vector   78  Occ=0.000000D+00  E= 1.788303D+00
              MO Center=  4.0D-01,  2.6D-01,  3.2D-02, r^2= 3.5D+00
   Bfn.  Coefficient  Atom+Function         Bfn.  Coefficient  Atom+Function  
  ----- ------------  ---------------      ----- ------------  ---------------
    35      3.061664   2 C  s                97     -2.749637   4 C  s         
    36      1.649290   2 C  s                45     -1.310542   2 C  pz        
   104     -1.174832   4 C  pz               67     -1.098360   3 C  s         
    42     -1.023954   2 C  pz               72      1.006961   3 C  py        
   102      0.963252   4 C  px               96      0.899408   4 C  s         
 
 Vector   79  Occ=0.000000D+00  E= 1.814295D+00
              MO Center= -6.5D-01,  1.8D-01,  1.9D-01, r^2= 2.5D+00
   Bfn.  Coefficient  Atom+Function         Bfn.  Coefficient  Atom+Function  
  ----- ------------  ---------------      ----- ------------  ---------------
    35      4.133087   2 C  s                 5     -3.366602   1 O  s         
    40     -2.464495   2 C  px               41      2.163840   2 C  py        
    72      1.978008   3 C  py               66     -1.803844   3 C  s         
    71     -1.730160   3 C  px               12     -1.396159   1 O  px        
   132     -1.044587   6 H  s               138     -1.010794   7 H  s         
 
 Vector   80  Occ=0.000000D+00  E= 1.845735D+00
              MO Center=  3.9D-02,  3.1D-01, -6.1D-02, r^2= 3.6D+00
   Bfn.  Coefficient  Atom+Function         Bfn.  Coefficient  Atom+Function  
  ----- ------------  ---------------      ----- ------------  ---------------
    35      1.255604   2 C  s                36     -1.233058   2 C  s         
   156     -0.923193  10 H  s                66      0.903644   3 C  s         
    41     -0.802815   2 C  py              104     -0.713887   4 C  pz        
    67      0.681206   3 C  s               157      0.637460  10 H  s         
    71     -0.613481   3 C  px              126     -0.601717   5 H  s         
 
 Vector   81  Occ=0.000000D+00  E= 1.866165D+00
              MO Center=  5.5D-01,  1.6D-01, -4.7D-01, r^2= 4.0D+00
   Bfn.  Coefficient  Atom+Function         Bfn.  Coefficient  Atom+Function  
  ----- ------------  ---------------      ----- ------------  ---------------
    35      6.624354   2 C  s                66     -4.316237   3 C  s         
    72      3.498478   3 C  py               97     -3.274563   4 C  s         
    36      2.088540   2 C  s               104     -1.886599   4 C  pz        
    34     -1.626280   2 C  s                67     -1.568568   3 C  s         
    41      1.537123   2 C  py               45     -1.396650   2 C  pz        
 
 Vector   82  Occ=0.000000D+00  E= 1.919999D+00
              MO Center=  3.3D-01, -1.5D-01, -3.1D-01, r^2= 3.2D+00
   Bfn.  Coefficient  Atom+Function         Bfn.  Coefficient  Atom+Function  
  ----- ------------  ---------------      ----- ------------  ---------------
    36      1.410266   2 C  s                98     -1.411341   4 C  s         
    45     -1.275237   2 C  pz               97     -1.267787   4 C  s         
    35      1.208150   2 C  s               103     -1.210432   4 C  py        
    66     -0.953095   3 C  s                41      0.814979   2 C  py        
    42     -0.803489   2 C  pz              150     -0.731526   9 H  s         
 
 Vector   83  Occ=0.000000D+00  E= 1.988910D+00
              MO Center=  8.5D-01, -2.5D-01, -3.8D-01, r^2= 3.4D+00
   Bfn.  Coefficient  Atom+Function         Bfn.  Coefficient  Atom+Function  
  ----- ------------  ---------------      ----- ------------  ---------------
    98      3.633594   4 C  s                35      3.473744   2 C  s         
    66     -2.778320   3 C  s                40     -2.211721   2 C  px        
    72      1.980596   3 C  py               41      1.813696   2 C  py        
    36     -1.690442   2 C  s                43     -1.520397   2 C  px        
    71     -1.363253   3 C  px              107      1.213244   4 C  pz        
 
 Vector   84  Occ=0.000000D+00  E= 1.995901D+00
              MO Center=  6.0D-01, -7.7D-02, -7.0D-01, r^2= 3.5D+00
   Bfn.  Coefficient  Atom+Function         Bfn.  Coefficient  Atom+Function  
  ----- ------------  ---------------      ----- ------------  ---------------
    36      4.301947   2 C  s                98     -3.612033   4 C  s         
    45     -2.110408   2 C  pz               67     -1.678803   3 C  s         
    35     -1.645800   2 C  s               156      1.099756  10 H  s         
   104      0.965094   4 C  pz                5     -0.935656   1 O  s         
   107     -0.914298   4 C  pz               34      0.707113   2 C  s         
 
 Vector   85  Occ=0.000000D+00  E= 2.089921D+00
              MO Center=  5.4D-02,  7.3D-02, -1.0D-01, r^2= 3.6D+00
   Bfn.  Coefficient  Atom+Function         Bfn.  Coefficient  Atom+Function  
  ----- ------------  ---------------      ----- ------------  ---------------
    98      2.145226   4 C  s                41     -1.001558   2 C  py        
    36     -0.926423   2 C  s                67     -0.915099   3 C  s         
    66      0.862190   3 C  s               156     -0.793094  10 H  s         
    14      0.732403   1 O  pz              138      0.672760   7 H  s         
   150     -0.613023   9 H  s                83      0.558970   3 C  d -1      
 
 Vector   86  Occ=0.000000D+00  E= 2.095752D+00
              MO Center= -3.9D-01,  5.9D-02,  7.8D-02, r^2= 2.9D+00
   Bfn.  Coefficient  Atom+Function         Bfn.  Coefficient  Atom+Function  
  ----- ------------  ---------------      ----- ------------  ---------------
    36      6.190704   2 C  s                67     -5.524801   3 C  s         
    35     -3.411065   2 C  s                66      3.260869   3 C  s         
    41     -2.922670   2 C  py               71      2.717920   3 C  px        
    13      1.895852   1 O  py               82     -1.464913   3 C  d -2      
    98     -1.432292   4 C  s                55      1.344519   2 C  d  2      
 
 Vector   87  Occ=0.000000D+00  E= 2.165267D+00
              MO Center=  5.1D-01, -3.9D-02, -4.7D-01, r^2= 3.2D+00
   Bfn.  Coefficient  Atom+Function         Bfn.  Coefficient  Atom+Function  
  ----- ------------  ---------------      ----- ------------  ---------------
    98     -2.085857   4 C  s                67      2.007457   3 C  s         
    35      1.431920   2 C  s                73     -1.025804   3 C  pz        
    36     -1.012185   2 C  s               156      0.919337  10 H  s         
    44     -0.850861   2 C  py               40     -0.840288   2 C  px        
    43      0.824217   2 C  px              144      0.734021   8 H  s         
 
 Vector   88  Occ=0.000000D+00  E= 2.197873D+00
              MO Center=  4.2D-01,  2.5D-01, -2.9D-01, r^2= 3.7D+00
   Bfn.  Coefficient  Atom+Function         Bfn.  Coefficient  Atom+Function  
  ----- ------------  ---------------      ----- ------------  ---------------
    98      1.917963   4 C  s                42     -0.921292   2 C  pz        
    45      0.922222   2 C  pz               76     -0.848676   3 C  pz        
   132      0.816647   6 H  s               103     -0.739182   4 C  py        
    97     -0.734119   4 C  s               138     -0.635882   7 H  s         
    36     -0.630114   2 C  s               117     -0.573685   4 C  d  2      
 
 Vector   89  Occ=0.000000D+00  E= 2.233760D+00
              MO Center=  5.8D-01,  8.6D-02, -4.2D-04, r^2= 3.5D+00
   Bfn.  Coefficient  Atom+Function         Bfn.  Coefficient  Atom+Function  
  ----- ------------  ---------------      ----- ------------  ---------------
    36      3.053637   2 C  s                67     -1.571012   3 C  s         
    98     -1.362291   4 C  s                 5     -1.162497   1 O  s         
    42     -0.965737   2 C  pz               72     -0.864281   3 C  py        
    45     -0.792237   2 C  pz               35     -0.722879   2 C  s         
   102      0.726023   4 C  px               43     -0.706506   2 C  px        
 
 Vector   90  Occ=0.000000D+00  E= 2.241954D+00
              MO Center=  7.5D-01, -2.7D-01, -8.1D-01, r^2= 3.6D+00
   Bfn.  Coefficient  Atom+Function         Bfn.  Coefficient  Atom+Function  
  ----- ------------  ---------------      ----- ------------  ---------------
   150      1.303456   9 H  s                36      0.997898   2 C  s         
   144     -0.824403   8 H  s               117      0.782147   4 C  d  2      
    66     -0.744185   3 C  s                98     -0.707444   4 C  s         
    67     -0.669392   3 C  s                72      0.656549   3 C  py        
    83      0.542768   3 C  d -1            149     -0.522625   9 H  s         
 
 Vector   91  Occ=0.000000D+00  E= 2.265206D+00
              MO Center=  8.3D-01, -1.7D-01, -1.0D+00, r^2= 3.2D+00
   Bfn.  Coefficient  Atom+Function         Bfn.  Coefficient  Atom+Function  
  ----- ------------  ---------------      ----- ------------  ---------------
    36      2.414810   2 C  s                66      1.829935   3 C  s         
    98     -1.709038   4 C  s                67     -1.537658   3 C  s         
    41     -1.325809   2 C  py               35     -1.168569   2 C  s         
    76      0.996236   3 C  pz              156      0.786488  10 H  s         
    71      0.775561   3 C  px               72     -0.746410   3 C  py        
 
 Vector   92  Occ=0.000000D+00  E= 2.283768D+00
              MO Center=  6.3D-01, -1.6D-02, -3.2D-01, r^2= 3.7D+00
   Bfn.  Coefficient  Atom+Function         Bfn.  Coefficient  Atom+Function  
  ----- ------------  ---------------      ----- ------------  ---------------
    98      3.413860   4 C  s                66      2.665585   3 C  s         
[...]
    21     -0.871915   1 O  d -1             42     -0.800473   2 C  pz        
    97     -0.740857   4 C  s                45     -0.734427   2 C  pz        
    67     -0.561928   3 C  s                98     -0.537316   4 C  s         
     5     -0.512149   1 O  s                72     -0.511153   3 C  py        
 
 Vector  154  Occ=0.000000D+00  E= 6.677199D+00
              MO Center= -8.7D-01, -1.8D-01,  2.0D-01, r^2= 5.7D-01
   Bfn.  Coefficient  Atom+Function         Bfn.  Coefficient  Atom+Function  
  ----- ------------  ---------------      ----- ------------  ---------------
    18      1.060685   1 O  d  1             23     -1.036280   1 O  d  1      
    97     -0.851831   4 C  s                42     -0.767937   2 C  pz        
    35      0.752384   2 C  s               102      0.640582   4 C  px        
    54     -0.546950   2 C  d  1             14      0.407449   1 O  pz        
    16     -0.395827   1 O  d -1             11      0.390308   1 O  pz        
 
 Vector  155  Occ=0.000000D+00  E= 6.842284D+00
              MO Center= -8.8D-01, -1.9D-01,  2.0D-01, r^2= 5.9D-01
   Bfn.  Coefficient  Atom+Function         Bfn.  Coefficient  Atom+Function  
  ----- ------------  ---------------      ----- ------------  ---------------
     5      2.103746   1 O  s                40      1.739324   2 C  px        
     9      1.359294   1 O  px               97     -1.250625   4 C  s         
     4      1.205952   1 O  s                20      1.046072   1 O  d -2      
    42     -0.952064   2 C  pz               12      0.846373   1 O  px        
    35     -0.839065   2 C  s                15     -0.830538   1 O  d -2      
 
 Vector  156  Occ=0.000000D+00  E= 7.055827D+00
              MO Center= -8.9D-01, -1.8D-01,  2.0D-01, r^2= 6.4D-01
   Bfn.  Coefficient  Atom+Function         Bfn.  Coefficient  Atom+Function  
  ----- ------------  ---------------      ----- ------------  ---------------
    66     -3.185749   3 C  s                35      3.031475   2 C  s         
    40     -2.724256   2 C  px               72      2.675646   3 C  py        
    24     -1.576180   1 O  d  2             36      1.509599   2 C  s         
    67     -1.326482   3 C  s                10      1.279950   1 O  py        
    19      1.014890   1 O  d  2             13      0.874009   1 O  py        
 
 Vector  157  Occ=0.000000D+00  E= 2.194231D+01
              MO Center=  1.1D-01,  7.5D-01,  2.2D-02, r^2= 1.3D+00
   Bfn.  Coefficient  Atom+Function         Bfn.  Coefficient  Atom+Function  
  ----- ------------  ---------------      ----- ------------  ---------------
    64      1.560308   3 C  s                65     -1.331277   3 C  s         
    67     -1.247187   3 C  s                63     -1.229585   3 C  s         
    98      1.112207   4 C  s                95     -0.793804   4 C  s         
    96      0.658636   4 C  s                94      0.627870   4 C  s         
    35      0.526191   2 C  s                40     -0.468719   2 C  px        
 
 Vector  158  Occ=0.000000D+00  E= 2.197905D+01
              MO Center=  8.8D-01, -2.5D-01, -7.2D-01, r^2= 1.2D+00
   Bfn.  Coefficient  Atom+Function         Bfn.  Coefficient  Atom+Function  
  ----- ------------  ---------------      ----- ------------  ---------------
    95      1.424198   4 C  s                96     -1.315191   4 C  s         
    94     -1.120690   4 C  s                98     -1.125540   4 C  s         
    34     -0.943914   2 C  s                36     -0.917735   2 C  s         
    33      0.866502   2 C  s                32     -0.677106   2 C  s         
    65     -0.655794   3 C  s                64      0.608766   3 C  s         
 
 Vector  159  Occ=0.000000D+00  E= 2.209425D+01
              MO Center=  5.9D-01, -8.9D-02, -4.8D-02, r^2= 7.1D-01
   Bfn.  Coefficient  Atom+Function         Bfn.  Coefficient  Atom+Function  
  ----- ------------  ---------------      ----- ------------  ---------------
    36      2.151160   2 C  s                33     -1.539260   2 C  s         
    34      1.519681   2 C  s                35     -1.331484   2 C  s         
    98     -1.224367   4 C  s                32      1.205874   2 C  s         
    67     -1.182063   3 C  s                97      0.718148   4 C  s         
    95      0.683902   4 C  s                96     -0.624947   4 C  s         
 
 Vector  160  Occ=0.000000D+00  E= 4.341532D+01
              MO Center= -8.8D-01, -1.8D-01,  2.0D-01, r^2= 1.2D-01
   Bfn.  Coefficient  Atom+Function         Bfn.  Coefficient  Atom+Function  
  ----- ------------  ---------------      ----- ------------  ---------------
     4      2.509961   1 O  s                 3     -1.875169   1 O  s         
     2      1.731587   1 O  s                 1     -1.395851   1 O  s         
     5     -0.883609   1 O  s                36      0.833629   2 C  s         
     9      0.563778   1 O  px               66     -0.522441   3 C  s         
    40      0.470522   2 C  px               72      0.451035   3 C  py        
 

 center of mass
 --------------
 x =   0.30619332 y =   0.09486564 z =  -0.27792474

 moments of inertia (a.u.)
 ------------------
         200.087882110653          45.733346770116          83.640366998777
          45.733346770116         248.518204261443         -52.642561948718
          83.640366998777         -52.642561948718         238.697230680773
 
     Multipole analysis of the density
     ---------------------------------
 
     L   x y z        total         alpha         beta         nuclear
     -   - - -        -----         -----         ----         -------
     0   0 0 0     -0.000000    -16.000000    -16.000000     32.000000
 
     1   1 0 0      0.687530     -6.223257     -6.223257     13.134043
     1   0 1 0      0.324699     -1.617896     -1.617896      3.560491
     1   0 0 1     -0.053564      5.322630      5.322630    -10.698824
 
     2   2 0 0    -20.005449    -54.422075    -54.422075     88.838701
     2   1 1 0     -1.131088     13.949820     13.949820    -29.030728
     2   1 0 1      0.183471     26.452386     26.452386    -52.721301
     2   0 2 0    -17.882005    -40.383590    -40.383590     62.885176
     2   0 1 1      0.244678    -15.423619    -15.423619     31.091917
     2   0 0 2    -18.174421    -45.859760    -45.859760     73.545100
 
 *** CALLING NEW AORESP DRIVER FOR CLOSED AND OPEN SHELLS ***
 Entering AOResponse driver routine


--------------------------------------------------------------------------------

          ****************
          *** RESPONSE ***
          ****************

 Response module for NWChem and dynamic CPKS solver
 developed by J. Autschbach and coworkers, SUNY Buffalo
 The methodology used in this program is described in 
 ChemPhysChem 12 (2011), 3224-3235 (main reference)
 J. Chem. Phys. 123 (2005), 114103
 J. Chem. Phys. 122 (2005), 224115
 J. Chem. Phys. 122 (2005), 074105
 Comp. Lett. 3 (2007), 131-150 (contact JA for a copy)
 Please cite this work in publications based on results
 obtained with this code. Thank you!

 For extension of response module to open shell
 calculations please acknowledge:
 F. Aquino, Northwestern University, Schatz Rsrch Group
 The update to the methodology is described in
 J. Phys. Chem. A 118 (2014) 517-525



          -----------------------------------------------
          Solving response equations for perturbing field
          -----------------------------------------------

 number of frequencies:     1
 frequency in a.u.:  0.9319600E-01
 Perturbing field: electric
 Using GIAO formalism for OptRot
 Adding quadrupole terms to OptRot
 to create an origin in dependent tensor.
 Using El. Dipole Length Gauge
 
 Applying DAMPING constant of  0.003700 a.u.
 
 Setting up CPKS
 with frequency omega =      0.09319600 a.u.
 and a damping of            0.00370000 a.u.

 
                            NWChem Dynamic CPHF Module
                            --------------------------
 
 
    scftype = RHF 
    nclosed =   16
      nopen =    0
  variables =     9216
  num. vecs =        3
  tolerance =   1.0D-07
  max. iter =  100

 SCF residual:   5.810774537345800E-006


Iterative solution of linear equations
  No. of variables     4608
  No. of equations        3
  Maximum subspace       99
       Convergence  1.0D-07
        Start time     96.3


   iter   nsub   residual    time 
   ----  ------  --------  --------- 
 dft_CPHF2_read: failed to open
 ./methyloxirane_blyp-def2-tzvp_488.9_35.inp.aoresp_fiao_f1
     1      3    4.16D+00     145.3
     2      6    2.74D+00     194.7
     3      9    2.45D-01     244.0
     4     12    5.46D-02     293.3
     5     15    1.04D-02     342.5
     6     18    1.30D-03     391.9
     7     21    1.46D-04     441.3
     8     24    1.41D-05     490.9
     9     27    1.27D-06     540.5
    10     30    4.97D-07     589.9
    11     33    1.22D-08     639.3

 Calculating some arrays needed for GIAO optical rotation

    0 giaofock schwarz done =      96.18%
    0 giaofock schwarz done =      93.09%
 aor_r1_tensor_giao: roadata output requested
 dip-quad polarizability Re:

              1        2        3        4        5        6      
    1   77.6345  -6.3184 -27.4807  -4.7628   1.2323   9.1454
    2  -11.7690  25.4163   3.3578  23.1786 -21.4671   4.2570
    3   -6.5482   1.2422  39.4630   0.0243  14.1071 -41.1427
 traceless dip-quad polarizability:

              1        2        3      
    1   75.4432  -9.4776 -41.2211
    2   -9.4776 -48.1528   1.8484
    3  -41.2211   1.8484 -27.2905

              1        2        3      
    1  -25.4868  38.1245   5.0366
    2   38.1245  26.9346 -32.2007
    3    5.0366 -32.2007  -1.4478

              1        2        3      
    1   14.0110   1.8634  59.1945
    2    1.8634  23.8697  21.1607
    3   59.1945  21.1607 -37.8807

 roa begin

 alpha real:
 XX       0.4103444018867E+02
 XY      -0.5228914371491E+01
 XZ      -0.2936536551925E+01
 YX      -0.5228914378378E+01
 YY       0.4398053736313E+02
 YZ       0.3229246050288E+01
 ZX      -0.2936536556571E+01
 ZY       0.3229246054066E+01
 ZZ       0.4154536700980E+02

 alpha im:
 XX       0.1111400395025E+00
 XY      -0.2998566399345E-01
 XZ      -0.1083171736588E-01
 YX      -0.2998565933508E-01
 YY       0.1292096599368E+00
 YZ       0.1880029248074E-01
 ZX      -0.1083171321321E-01
 ZY       0.1880029171045E-01
 ZZ       0.1231524990182E+00

 beta real:
 XX      -0.1514870801265E+00
 XY       0.9396903095461E+00
 XZ       0.1912821794300E+00
 YX      -0.8909039957746E+00
 YY       0.1514637114044E+00
 YZ      -0.1557804497649E+01
 ZX      -0.4766081630181E+00
 ZY       0.1885231463658E+01
 ZZ      -0.3319551948530E-02

 G-prime = -omega beta(real):
 XX      -0.1514870801265E+00
 XY       0.9396903095461E+00
 XZ       0.1912821794300E+00
 YX      -0.8909039957746E+00
 YY       0.1514637114044E+00
 YZ      -0.1557804497649E+01
 ZX      -0.4766081630181E+00
 ZY       0.1885231463658E+01
 ZZ      -0.3319551948530E-02

 beta im:
 XX      -0.6310274745635E-02
 XY       0.1341791250629E-01
 XZ       0.2694197209141E-02
 YX      -0.7656241743377E-02
 YY       0.5012439491889E-02
 YZ      -0.2376713740133E-01
 ZX      -0.1340728405650E-01
 ZY       0.4074662817359E-01
 ZZ       0.6107538887918E-03

 G-prime = -omega beta(imag):
 XX      -0.6310274745635E-02
 XY       0.1341791250629E-01
 XZ       0.2694197209141E-02
 YX      -0.7656241743377E-02
 YY       0.5012439491889E-02
 YZ      -0.2376713740133E-01
 ZX      -0.1340728405650E-01
 ZY       0.4074662817359E-01
 ZZ       0.6107538887918E-03

 dipole-quadrupole real (Cartesian):
 XXX      0.7763452074460E+02
 XXY     -0.6318420502007E+01
 XXZ     -0.2748073485526E+02
 XYY     -0.4762842047927E+01
 XYZ      0.1232255767123E+01
 XZZ      0.9145384454416E+01
 YXX     -0.1176902562071E+02
 YXY      0.2541630281223E+02
 YXZ      0.3357764551768E+01
 YYY      0.2317855067633E+02
 YYZ     -0.2146713355791E+02
 YZZ      0.4256953351736E+01
 ZXX     -0.6548210196811E+01
 ZXY      0.1242241162120E+01
 ZXZ      0.3946298327322E+02
 ZYY      0.2427538027759E-01
 ZYZ      0.1410713546498E+02
 ZZZ     -0.4114265568570E+02

 dipole-quadrupole imag (Cartesian):
 XXX      0.2722248366621E+00
 XXY     -0.3537124906539E-01
 XXZ     -0.7609531756781E-01
 XYY     -0.2949453821512E-01
 XYZ      0.2293604228523E-02
 XZZ      0.6150226391013E-01
 YXX     -0.5711040507869E-01
 YXY      0.6171922982469E-01
 YXZ      0.1955709822054E-01
 YYY      0.9200916012287E-01
 YYZ     -0.6000176614166E-01
 YZZ      0.1053978081517E-01
 ZXX     -0.3377816867752E-01
 ZXY      0.6900308914917E-03
 ZXZ      0.1469921393873E+00
 ZYY      0.6092291033262E-02
 ZYZ      0.6760438123139E-01
 ZZZ     -0.9395055525523E-01

 dipole-quadrupole (traceless):
 XXX      0.7544324954136E+02
 XXY     -0.9477630753011E+01
 XXZ     -0.4122110228288E+02
 XYY     -0.4815279464743E+02
 XYZ      0.1848383650685E+01
 XZZ     -0.2729045489392E+02
 YXX     -0.2548677763474E+02
 YXY      0.3812445421835E+02
 YXZ      0.5036646827653E+01
 YYY      0.2693458681082E+02
 YYZ     -0.3220070033686E+02
 YZZ     -0.1447809176078E+01
 ZXX      0.1401097995590E+02
 ZXY      0.1863361743180E+01
 ZXZ      0.5919447490984E+02
 ZYY      0.2386970832153E+02
 ZYZ      0.2116070319747E+02
 ZZZ     -0.3788068827743E+02

 roa end


 Electric Dipole Response Matrix (nonzero elements):

              1        2        3      
    1   41.0344  -5.2289  -2.9365
    2   -5.2289  43.9805   3.2292
    3   -2.9365   3.2292  41.5454
 
 Imaginary part:

              1        2        3      
    1    0.1111  -0.0300  -0.0108
    2   -0.0300   0.1292   0.0188
    3   -0.0108   0.0188   0.1232

 ------------------------------------------
 average:        42.18678 + I       0.12117


 DFT Linear Response polarizability / au 
 Frequency  =       0.0931960 / au
 Wavelength =     488.8981609 / nm
              X              Y              Z
 -----------------------------------------------
 X      41.0344402     -5.2289144     -2.9365366
 Y      -5.2289144     43.9805374      3.2292461
 Z      -2.9365366      3.2292461     41.5453670
 -----------------------------------------------
 Eigenvalues =      37.0201481     50.1413810     39.3988155
 Isotropic   =      42.1867815
 Anisotropic =       9.8864811
 -----------------------------------------------
 *************************

 DFT Linear Response IMAG polarizability / au 
 Frequency  =       0.0931960 / au
 Wavelength =     488.8981609 / nm
              X              Y              Z
 -----------------------------------------------
 X       0.1111400     -0.0299857     -0.0108317
 Y      -0.0299857      0.1292097      0.0188003
 Z      -0.0108317      0.0188003      0.1231525
 -----------------------------------------------
 Eigenvalues =       0.0886238      0.1631333      0.1117451
 Isotropic   =       0.1211674
 Anisotropic =       0.0539352
 -----------------------------------------------
 *************************

 Magnetic Dipole Response Matrix (nonzero elements):
 Optical rotation tensor Beta
 (Buckingham-Dunn version including dipole-quadrupole terms)

              1        2        3      
    1    2.6832  -0.4015   0.4309
    2   -0.4015  -1.6202  -1.7220
    3    0.4309  -1.7220  -1.0271
 
 Imaginary part:

              1        2        3      
    1    0.0677  -0.1440  -0.0289
    2    0.0822  -0.0538   0.2550
    3    0.1439  -0.4372  -0.0066

 ------------------------------------------
 average:         0.01196 + I       0.00246

 Principal components and PAS (Real part)
                 -3.07122
                  2.82732
                  0.27978
 ------------------------
 average:         0.01196

              1        2        3      
    1    0.0052   0.9713  -0.2377
    2    0.7653  -0.1569  -0.6243
    3    0.6436   0.1787   0.7442

 Chiral response tensor (Real part):

              1        2        3      
    1   -1.3237   0.2007  -0.2154
    2    0.2007   0.8280   0.8610
    3   -0.2154   0.8610   0.5315
 
 Principal components and PAS (Real part)
                  1.55355
                 -1.39572
                 -0.12195
 ------------------------
 average:         0.01196

              1        2        3      
    1    0.0052   0.9713  -0.2377
    2    0.7653  -0.1569  -0.6243
    3    0.6436   0.1787   0.7442
 Exiting AOResponse driver routine

 Task  times  cpu:      612.4s     wall:      635.7s
 
 
                                NWChem Input Module
                                -------------------
 
 
 Summary of allocated global arrays
-----------------------------------
  No active global arrays



                         GA Statistics for process    0
                         ------------------------------

       create   destroy   get      put      acc     scatter   gather  read&inc
calls: 3294     3294     8.20e+06 3.14e+06 7.33e+05 2694        0      994     
number of processes/call 1.01e+00 1.03e+00 1.42e+00 0.00e+00 0.00e+00
bytes total:             1.65e+09 1.26e+08 1.73e+09 1.84e+02 0.00e+00 7.95e+03
bytes remote:            6.81e+08 3.29e+07 9.87e+08 0.00e+00 0.00e+00 0.00e+00
Max memory consumed for GA by this process: 11242192 bytes
 
MA_summarize_allocated_blocks: starting scan ...
MA_summarize_allocated_blocks: scan completed: 0 heap blocks, 0 stack blocks
MA usage statistics:

	allocation statistics:
					      heap	     stack
					      ----	     -----
	current number of blocks	         0	         0
	maximum number of blocks	        24	        52
	current total bytes		         0	         0
	maximum total bytes		   7519824	  48752840
	maximum total K-bytes		      7520	     48753
	maximum total M-bytes		         8	        49
 
 
                                     CITATION
                                     --------
                Please cite the following reference when publishing
                           results obtained with NWChem:
 
                 M. Valiev, E.J. Bylaska, N. Govind, K. Kowalski,
              T.P. Straatsma, H.J.J. van Dam, D. Wang, J. Nieplocha,
                        E. Apra, T.L. Windus, W.A. de Jong
                 "NWChem: a comprehensive and scalable open-source
                  solution for large scale molecular simulations"
                      Comput. Phys. Commun. 181, 1477 (2010)
                           doi:10.1016/j.cpc.2010.04.018
 
                                      AUTHORS
                                      -------
          E. Apra, E. J. Bylaska, W. A. de Jong, N. Govind, K. Kowalski,
       T. P. Straatsma, M. Valiev, H. J. J. van Dam, D. Wang, T. L. Windus,
        J. Hammond, J. Autschbach, K. Bhaskaran-Nair, J. Brabec, K. Lopata,
    S. A. Fischer, S. Krishnamoorthy, M. Jacquelin, W. Ma, M. Klemm, O. Villa,
      Y. Chen, V. Anisimov, F. Aquino, S. Hirata, M. T. Hackler, V. Konjkov,
            D. Mejia-Rodriguez, T. Risthaus, M. Malagoli, A. Marenich,
   A. Otero-de-la-Roza, J. Mullin, P. Nichols, R. Peverati, J. Pittner, Y. Zhao,
        P.-D. Fan, A. Fonari, M. J. Williamson, R. J. Harrison, J. R. Rehr,
      M. Dupuis, D. Silverstein, D. M. A. Smith, J. Nieplocha, V. Tipparaju,
    M. Krishnan, B. E. Van Kuiken, A. Vazquez-Mayagoitia, L. Jensen, M. Swart,
      Q. Wu, T. Van Voorhis, A. A. Auer, M. Nooijen, L. D. Crosby, E. Brown,
      G. Cisneros, G. I. Fann, H. Fruchtl, J. Garza, K. Hirao, R. A. Kendall,
      J. A. Nichols, K. Tsemekhman, K. Wolinski, J. Anchell, D. E. Bernholdt,
      P. Borowski, T. Clark, D. Clerc, H. Dachsel, M. J. O. Deegan, K. Dyall,
    D. Elwood, E. Glendening, M. Gutowski, A. C. Hess, J. Jaffe, B. G. Johnson,
     J. Ju, R. Kobayashi, R. Kutteh, Z. Lin, R. Littlefield, X. Long, B. Meng,
      T. Nakajima, S. Niu, L. Pollack, M. Rosing, K. Glaesemann, G. Sandrone,
      M. Stave, H. Taylor, G. Thomas, J. H. van Lenthe, A. T. Wong, Z. Zhang.

 Total times  cpu:      685.4s     wall:      712.7s
