 argument  1 = methyloxirane_blyp-def2-tzvp_488.9_34.inp
 


============================== echo of input deck ==============================
echo
start methyloxirane_blyp-def2-tzvp_488.9_34.inp
title "methyloxirane roa calculations at 488.9 nm, input generated in va  with delta_type=2"
charge 0



geometry units angstrom nocenter noautoz noautosym nucleus point;symmetry c1
 O -0.880664 -0.180304  0.206061
 C  0.576470 -0.157808  0.120866
 C -0.182297  1.089463  0.338920
 C  1.185124 -0.520938 -1.209942
 H  1.058838 -0.612248  0.993170
 H -0.248654  1.533228  1.335890
 H -0.339668  1.786189 -0.489453
 H  2.240657 -0.214055 -1.243949
 H  1.142651 -1.606185 -1.375140
 H  0.650068 -0.024597 -2.028907
end

basis spherical
* library def2-TZVP
end

 set prop:newaoresp 1
 set aor:roadata T
 set cphf:maxsub 100
 set cphf:acc 1.0d-10
 set cphf:maxiter 100

property
    response 1   0.093196
    bdtensor
    convergence 1e-7
    damping 0.0037
    giao
end

dft
 direct
 mult 1
 xc becke88 lyp
 iterations 250
 tolerances tight
 grid xfine
 convergence nolevelshifting
 convergence energy 1e-8
 convergence gradient 1e-7


end

task dft gradient
task dft property
================================================================================


                                         
                                         
 
 
              Northwest Computational Chemistry Package (NWChem) 6.8
              ------------------------------------------------------
 
 
                    Environmental Molecular Sciences Laboratory
                       Pacific Northwest National Laboratory
                                Richland, WA 99352
 
                              Copyright (c) 1994-2017
                       Pacific Northwest National Laboratory
                            Battelle Memorial Institute
 
             NWChem is an open-source computational chemistry package
                        distributed under the terms of the
                      Educational Community License (ECL) 2.0
             A copy of the license is included with this distribution
                              in the LICENSE.TXT file
 
                                  ACKNOWLEDGMENT
                                  --------------

            This software and its documentation were developed at the
            EMSL at Pacific Northwest National Laboratory, a multiprogram
            national laboratory, operated for the U.S. Department of Energy
            by Battelle under Contract Number DE-AC05-76RL01830. Support
            for this work was provided by the Department of Energy Office
            of Biological and Environmental Research, Office of Basic
            Energy Sciences, and the Office of Advanced Scientific Computing.


           Job information
           ---------------

    hostname        = cpn-f11-19-02.cbls.ccr.buffalo.edu
    program         = /util/academic/nwchem/nwchem-6.8/bin/LINUX64/nwchem
    date            = Fri Mar  1 10:30:41 2019

    compiled        = Tue_Nov_06_14:59:08_2018
    source          = /util/academic/nwchem/nwchem-6.8
    nwchem branch   = 6.8
    nwchem revision = v6.8-47-gdf6c956
    ga revision     = ga-5.6.3
    use scalapack   = F
    input           = methyloxirane_blyp-def2-tzvp_488.9_34.inp
    prefix          = methyloxirane_blyp-def2-tzvp_488.9_34.inp.
    data base       = ./methyloxirane_blyp-def2-tzvp_488.9_34.inp.db
    status          = startup
    nproc           =        7
    time left       =     -1s



           Memory information
           ------------------

    heap     =   13107198 doubles =    100.0 Mbytes
    stack    =   13107195 doubles =    100.0 Mbytes
    global   =   26214400 doubles =    200.0 Mbytes (distinct from heap & stack)
    total    =   52428793 doubles =    400.0 Mbytes
    verify   = yes
    hardfail = no 


           Directory information
           ---------------------
 
  0 permanent = .
  0 scratch   = .
 
 
 
 
                                NWChem Input Module
                                -------------------
 
 
                    methyloxirane roa calculations at 488.9 nm, input generated in va  with delta_type=2
                    ------------------------------------------

 Scaling coordinates for geometry "geometry" by  1.889725989
 (inverse scale =  0.529177249)

 
 
                             Geometry "geometry" -> ""
                             -------------------------
 
 Output coordinates in angstroms (scale by  1.889725989 to convert to a.u.)
 
  No.       Tag          Charge          X              Y              Z
 ---- ---------------- ---------- -------------- -------------- --------------
    1 O                    8.0000    -0.88066400    -0.18030400     0.20606100
    2 C                    6.0000     0.57647000    -0.15780800     0.12086600
    3 C                    6.0000    -0.18229700     1.08946300     0.33892000
    4 C                    6.0000     1.18512400    -0.52093800    -1.20994200
    5 H                    1.0000     1.05883800    -0.61224800     0.99317000
    6 H                    1.0000    -0.24865400     1.53322800     1.33589000
    7 H                    1.0000    -0.33966800     1.78618900    -0.48945300
    8 H                    1.0000     2.24065700    -0.21405500    -1.24394900
    9 H                    1.0000     1.14265100    -1.60618500    -1.37514000
   10 H                    1.0000     0.65006800    -0.02459700    -2.02890700
 
      Atomic Mass 
      ----------- 
 
      O                 15.994910
      C                 12.000000
      H                  1.007825
 

 Effective nuclear repulsion energy (a.u.)     123.4845494831

            Nuclear Dipole moment (a.u.) 
            ----------------------------
        X                 Y               Z
 ---------------- ---------------- ----------------
    13.1040440856     3.5606254871   -10.6974307960
 
 
            XYZ format geometry
            -------------------
    10
 geometry
 O                    -0.88066400    -0.18030400     0.20606100
 C                     0.57647000    -0.15780800     0.12086600
 C                    -0.18229700     1.08946300     0.33892000
 C                     1.18512400    -0.52093800    -1.20994200
 H                     1.05883800    -0.61224800     0.99317000
 H                    -0.24865400     1.53322800     1.33589000
 H                    -0.33966800     1.78618900    -0.48945300
 H                     2.24065700    -0.21405500    -1.24394900
 H                     1.14265100    -1.60618500    -1.37514000
 H                     0.65006800    -0.02459700    -2.02890700
 
 ==============================================================================
                                internuclear distances
 ------------------------------------------------------------------------------
       center one      |      center two      | atomic units |  angstroms
 ------------------------------------------------------------------------------
    2 C                |   1 O                |     2.75861  |     1.45980
    3 C                |   1 O                |     2.74997  |     1.45522
    3 C                |   2 C                |     2.78948  |     1.47613
    4 C                |   2 C                |     2.84927  |     1.50777
    5 H                |   2 C                |     2.07019  |     1.09549
    6 H                |   3 C                |     2.06602  |     1.09329
    7 H                |   3 C                |     2.06698  |     1.09380
    8 H                |   4 C                |     2.07825  |     1.09977
    9 H                |   4 C                |     2.07600  |     1.09857
   10 H                |   4 C                |     2.07297  |     1.09697
 ------------------------------------------------------------------------------
                         number of included internuclear distances:         10
 ==============================================================================



 ==============================================================================
                                 internuclear angles
 ------------------------------------------------------------------------------
        center 1       |       center 2       |       center 3       |  degrees
 ------------------------------------------------------------------------------
    2 C                |   1 O                |   3 C                |    60.85
    2 C                |   1 O                |   3 C                |    60.85
    1 O                |   2 C                |   4 C                |   116.79
    1 O                |   2 C                |   5 H                |   112.75
    3 C                |   2 C                |   4 C                |   122.78
    3 C                |   2 C                |   5 H                |   117.34
    4 C                |   2 C                |   5 H                |   115.16
    3 C                |   1 O                |   2 C                |    60.85
    1 O                |   3 C                |   6 H                |   114.10
    1 O                |   3 C                |   7 H                |   114.68
    2 C                |   3 C                |   6 H                |   120.59
    2 C                |   3 C                |   7 H                |   120.02
    6 H                |   3 C                |   7 H                |   115.05
    2 C                |   4 C                |   8 H                |   110.34
    2 C                |   4 C                |   9 H                |   110.80
    2 C                |   4 C                |  10 H                |   110.68
    8 H                |   4 C                |   9 H                |   107.95
    8 H                |   4 C                |  10 H                |   108.59
    9 H                |   4 C                |  10 H                |   108.41
 ------------------------------------------------------------------------------
                            number of included internuclear angles:         19
 ==============================================================================



  warning:::::::::::::: from_environment
  NWCHEM_BASIS_LIBRARY set to: <
 /util/academic/nwchem/nwchem-6.8/src/basis/libraries>
  but file does not exist !
  using .nwchemrc or compiled library


 Summary of "ao basis" -> "" (spherical)
 ------------------------------------------------------------------------------
       Tag                 Description            Shells   Functions and Types
 ---------------- ------------------------------  ------  ---------------------
 *                         def2-TZVP                  on all atoms 


 
                                 NWChem DFT Module
                                 -----------------
 
 
                    methyloxirane roa calculations at 488.9 nm, input generated in va  with delta_type=2
 
 
                      Basis "ao basis" -> "ao basis" (spherical)
                      -----
  O (Oxygen)
  ----------
            Exponent  Coefficients 
       -------------- ---------------------------------------------------------
  1 S  2.70323826E+04  0.000217
  1 S  4.05238714E+03  0.001684
  1 S  9.22327227E+02  0.008740
  1 S  2.61240710E+02  0.035240
  1 S  8.53546414E+01  0.111535
  1 S  3.10350352E+01  0.255890
 
  2 S  1.22608607E+01  0.397687
  2 S  4.99870760E+00  0.246278
 
  3 S  1.17031082E+00  1.000000
 
  4 S  4.64747410E-01  1.000000
 
  5 S  1.85045364E-01  1.000000
 
  6 P  6.32749548E+01  0.006069
  6 P  1.46270494E+01  0.041913
  6 P  4.45012235E+00  0.161538
  6 P  1.52757996E+00  0.357070
 
  7 P  5.29351179E-01  1.000000
 
  8 P  1.74784213E-01  1.000000
 
  9 D  2.31400000E+00  1.000000
 
 10 D  6.45000000E-01  1.000000
 
 11 F  1.42800000E+00  1.000000
 
  C (Carbon)
  ----------
            Exponent  Coefficients 
       -------------- ---------------------------------------------------------
  1 S  1.35753497E+04  0.000222
  1 S  2.03523337E+03  0.001723
  1 S  4.63225624E+02  0.008926
  1 S  1.31200196E+02  0.035728
  1 S  4.28530159E+01  0.110763
  1 S  1.55841858E+01  0.242956
 
  2 S  6.20671385E+00  0.414403
  2 S  2.57648965E+00  0.237450
 
  3 S  5.76963394E-01  1.000000
 
  4 S  2.29728314E-01  1.000000
 
  5 S  9.51644400E-02  1.000000
 
  6 P  3.46972322E+01  0.005333
  6 P  7.95826228E+00  0.035864
  6 P  2.37808269E+00  0.142159
  6 P  8.14332082E-01  0.342705
 
  7 P  2.88875473E-01  1.000000
 
  8 P  1.00568237E-01  1.000000
 
  9 D  1.09700000E+00  1.000000
 
 10 D  3.18000000E-01  1.000000
 
 11 F  7.61000000E-01  1.000000
 
  H (Hydrogen)
  ------------
            Exponent  Coefficients 
       -------------- ---------------------------------------------------------
  1 S  3.40613410E+01  0.006025
  1 S  5.12357460E+00  0.045021
  1 S  1.16466260E+00  0.201897
 
  2 S  3.27230410E-01  1.000000
 
  3 S  1.03072410E-01  1.000000
 
  4 P  8.00000000E-01  1.000000
 


 Summary of "ao basis" -> "ao basis" (spherical)
 ------------------------------------------------------------------------------
       Tag                 Description            Shells   Functions and Types
 ---------------- ------------------------------  ------  ---------------------
 O                         def2-TZVP                11       31   5s3p2d1f
 C                         def2-TZVP                11       31   5s3p2d1f
 H                         def2-TZVP                 4        6   3s1p




 Summary of "ao basis" -> "ao basis" (spherical)
 ------------------------------------------------------------------------------
       Tag                 Description            Shells   Functions and Types
 ---------------- ------------------------------  ------  ---------------------
 O                         def2-TZVP                11       31   5s3p2d1f
 C                         def2-TZVP                11       31   5s3p2d1f
 H                         def2-TZVP                 4        6   3s1p


  Caching 1-el integrals 
  itol2e modified to match energy
  convergence criterion.
  tol_rho modified to match energy
  convergence criterion.
 
            General Information
            -------------------
          SCF calculation type: DFT
          Wavefunction type:  closed shell.
          No. of atoms     :    10
          No. of electrons :    32
           Alpha electrons :    16
            Beta electrons :    16
          Charge           :     0
          Spin multiplicity:     1
          Use of symmetry is: off; symmetry adaption is: off
          Maximum number of iterations: 250
          This is a Direct SCF calculation.
          AO basis - number of functions:   160
                     number of shells:    68
          Convergence on energy requested:  1.00D-08
          Convergence on density requested:  1.00D-05
          Convergence on gradient requested:  1.00D-07
 
              XC Information
              --------------
                    Becke 1988 Exchange Functional  1.000          
              Lee-Yang-Parr Correlation Functional  1.000          
 
             Grid Information
             ----------------
          Grid used for XC integration:  xfine     
          Radial quadrature: Mura-Knowles        
          Angular quadrature: Lebedev. 
          Tag              B.-S. Rad. Rad. Pts. Rad. Cut. Ang. Pts.
          ---              ---------- --------- --------- ---------
          O                   0.60      100          11.0      1454
          C                   0.70      100          11.0      1454
          H                   0.35      100          12.0      1202
          Grid pruning is: on 
          Number of quadrature shells:  1000
          Spatial weights used:  Erf1
 
          Convergence Information
          -----------------------
          Convergence aids based upon iterative change in 
          total energy or number of iterations. 
          Levelshifting, if invoked, occurs when the 
          HOMO/LUMO gap drops below (HL_TOL):  1.00D-02
          DIIS, if invoked, will attempt to extrapolate 
          using up to (NFOCK): 10 stored Fock matrices.

                    Damping( 0%)  Levelshifting(0.0)       DIIS
                  --------------- ------------------- ---------------
          dE  on:    start             N/A                start   
          dE off:    2 iters           N/A              250 iters 

 
      Screening Tolerance Information
      -------------------------------
          Density screening/tol_rho:  1.00D-11
          AO Gaussian exp screening on grid/accAOfunc:  18
          CD Gaussian exp screening on grid/accCDfunc:  20
          XC Gaussian exp screening on grid/accXCfunc:  20
          Schwarz screening/accCoul:  1.00D-09

 
      Superposition of Atomic Density Guess
      -------------------------------------
 
 Sum of atomic energies:        -190.79714706
 
      Non-variational initial energy
      ------------------------------

 Total energy =    -193.155573
 1-e energy   =    -501.935142
 2-e energy   =     185.295019
 HOMO         =      -0.353516
 LUMO         =       0.090737
 
   Time after variat. SCF:      0.6
   Time prior to 1st pass:      0.6

 Grid_pts file          = ./methyloxirane_blyp-def2-tzvp_488.9_34.inp.gridpts.0
 Record size in doubles =  12289        No. of grid_pts per rec  =   3070
 Max. records in memory =     76        Max. recs in file   =    554542


           Memory utilization after 1st SCF pass: 
           Heap Space remaining (MW):       12.17            12167542
          Stack Space remaining (MW):       13.11            13106116

   convergence    iter        energy       DeltaE   RMS-Dens  Diis-err    time
 ---------------- ----- ----------------- --------- --------- ---------  ------
 d= 0,ls=0.0,diis     1   -193.0190573632 -3.17D+02  9.37D-03  1.07D+00     6.9
 d= 0,ls=0.0,diis     2   -192.8459772012  1.73D-01  7.78D-03  2.68D+00    13.0
 d= 0,ls=0.0,diis     3   -193.0775733672 -2.32D-01  1.81D-03  3.80D-01    19.1
 d= 0,ls=0.0,diis     4   -193.1071687196 -2.96D-02  6.90D-04  1.86D-02    25.2
 d= 0,ls=0.0,diis     5   -193.1088727771 -1.70D-03  2.96D-04  2.75D-03    31.3
 d= 0,ls=0.0,diis     6   -193.1092150554 -3.42D-04  3.09D-05  3.62D-05    37.4
 d= 0,ls=0.0,diis     7   -193.1092194065 -4.35D-06  8.41D-06  3.88D-06    43.4
 d= 0,ls=0.0,diis     8   -193.1092198374 -4.31D-07  1.97D-06  2.90D-07    49.6
 d= 0,ls=0.0,diis     9   -193.1092198689 -3.15D-08  6.56D-07  1.58D-08    55.6
 d= 0,ls=0.0,diis    10   -193.1092198708 -1.82D-09  1.81D-07  1.84D-09    61.7


         Total DFT energy =     -193.109219870764
      One electron energy =     -505.594681180059
           Coulomb energy =      216.020653589747
    Exchange-Corr. energy =      -27.019741763516
 Nuclear repulsion energy =      123.484549483063

 Numeric. integr. density =       31.999999989040

     Total iterative time =     61.1s


 
                       DFT Final Molecular Orbital Analysis
                       ------------------------------------
 
 Vector    1  Occ=2.000000D+00  E=-1.877864D+01
              MO Center= -8.8D-01, -1.8D-01,  2.1D-01, r^2= 1.5D-02
   Bfn.  Coefficient  Atom+Function         Bfn.  Coefficient  Atom+Function  
  ----- ------------  ---------------      ----- ------------  ---------------
     2      0.638481   1 O  s                 1      0.435422   1 O  s         
     3      0.039845   1 O  s                 4     -0.033083   1 O  s         
 
 Vector    2  Occ=2.000000D+00  E=-9.963636D+00
              MO Center=  5.8D-01, -1.6D-01,  1.2D-01, r^2= 2.8D-02
   Bfn.  Coefficient  Atom+Function         Bfn.  Coefficient  Atom+Function  
  ----- ------------  ---------------      ----- ------------  ---------------
    33      0.606919   2 C  s                32      0.467265   2 C  s         
    34      0.042539   2 C  s                36      0.037522   2 C  s         
    35     -0.027400   2 C  s         
 
 Vector    3  Occ=2.000000D+00  E=-9.955787D+00
              MO Center= -1.8D-01,  1.1D+00,  3.4D-01, r^2= 2.8D-02
   Bfn.  Coefficient  Atom+Function         Bfn.  Coefficient  Atom+Function  
  ----- ------------  ---------------      ----- ------------  ---------------
    64      0.607035   3 C  s                63      0.467226   3 C  s         
    65      0.039763   3 C  s         
 
 Vector    4  Occ=2.000000D+00  E=-9.907923D+00
              MO Center=  1.2D+00, -5.2D-01, -1.2D+00, r^2= 2.8D-02
   Bfn.  Coefficient  Atom+Function         Bfn.  Coefficient  Atom+Function  
  ----- ------------  ---------------      ----- ------------  ---------------
    95      0.606956   4 C  s                94      0.467213   4 C  s         
    96      0.040584   4 C  s                98      0.035721   4 C  s         
 
 Vector    5  Occ=2.000000D+00  E=-9.600887D-01
              MO Center= -4.7D-01,  5.6D-02,  2.1D-01, r^2= 6.5D-01
   Bfn.  Coefficient  Atom+Function         Bfn.  Coefficient  Atom+Function  
  ----- ------------  ---------------      ----- ------------  ---------------
     4      0.375076   1 O  s                 3      0.277353   1 O  s         
     2     -0.192706   1 O  s                34      0.139792   2 C  s         
    65      0.139244   3 C  s                 5      0.123047   1 O  s         
    35      0.105662   2 C  s                66      0.093918   3 C  s         
     6      0.092810   1 O  px               69     -0.090989   3 C  py        
 
 Vector    6  Occ=2.000000D+00  E=-6.707403D-01
              MO Center=  9.4D-01, -3.9D-01, -7.7D-01, r^2= 1.5D+00
   Bfn.  Coefficient  Atom+Function         Bfn.  Coefficient  Atom+Function  
  ----- ------------  ---------------      ----- ------------  ---------------
    97      0.285039   4 C  s                96      0.276194   4 C  s         
    35      0.185556   2 C  s                34      0.175023   2 C  s         
    95     -0.173956   4 C  s                 4     -0.147560   1 O  s         
    33     -0.109339   2 C  s                 3     -0.103342   1 O  s         
    94     -0.083352   4 C  s                 5     -0.072923   1 O  s         
 
 Vector    7  Occ=2.000000D+00  E=-5.893141D-01
              MO Center= -1.3D-01,  7.2D-01,  2.2D-01, r^2= 1.9D+00
   Bfn.  Coefficient  Atom+Function         Bfn.  Coefficient  Atom+Function  
  ----- ------------  ---------------      ----- ------------  ---------------
    66      0.327253   3 C  s                65      0.279000   3 C  s         
     4     -0.238720   1 O  s                64     -0.172374   3 C  s         
     3     -0.169001   1 O  s                 5     -0.148280   1 O  s         
     2      0.111533   1 O  s                38      0.104609   2 C  py        
   132      0.102521   6 H  s                97     -0.098544   4 C  s         
 
 Vector    8  Occ=2.000000D+00  E=-5.300497D-01
              MO Center=  4.2D-01,  1.2D-02, -1.0D-01, r^2= 2.7D+00
   Bfn.  Coefficient  Atom+Function         Bfn.  Coefficient  Atom+Function  
  ----- ------------  ---------------      ----- ------------  ---------------
    35      0.303405   2 C  s                34      0.225109   2 C  s         
    97     -0.156366   4 C  s                66     -0.150854   3 C  s         
    33     -0.138424   2 C  s               126      0.132688   5 H  s         
    96     -0.129730   4 C  s                 6      0.105865   1 O  px        
   125      0.106057   5 H  s                65     -0.097433   3 C  s         
 
 Vector    9  Occ=2.000000D+00  E=-4.475501D-01
              MO Center=  1.2D-01,  2.7D-01,  2.4D-01, r^2= 2.5D+00
   Bfn.  Coefficient  Atom+Function         Bfn.  Coefficient  Atom+Function  
  ----- ------------  ---------------      ----- ------------  ---------------
    70      0.207771   3 C  pz               39      0.154868   2 C  pz        
   132      0.144583   6 H  s                73      0.130737   3 C  pz        
     8      0.125175   1 O  pz              126      0.117545   5 H  s         
     6     -0.109991   1 O  px               38     -0.110008   2 C  py        
   131      0.107377   6 H  s                37      0.105956   2 C  px        
 
 Vector   10  Occ=2.000000D+00  E=-4.134512D-01
              MO Center=  5.8D-02,  2.9D-01, -2.4D-01, r^2= 2.6D+00
   Bfn.  Coefficient  Atom+Function         Bfn.  Coefficient  Atom+Function  
  ----- ------------  ---------------      ----- ------------  ---------------
    69      0.213694   3 C  py              101      0.156289   4 C  pz        
   138      0.155164   7 H  s                 6     -0.141160   1 O  px        
    38     -0.139999   2 C  py               37      0.127955   2 C  px        
    72      0.121154   3 C  py               70     -0.120043   3 C  pz        
     7     -0.118292   1 O  py                9     -0.112919   1 O  px        
 
 Vector   11  Occ=2.000000D+00  E=-3.768667D-01
              MO Center=  9.4D-01, -3.5D-01, -7.7D-01, r^2= 2.6D+00
   Bfn.  Coefficient  Atom+Function         Bfn.  Coefficient  Atom+Function  
  ----- ------------  ---------------      ----- ------------  ---------------
    99      0.210117   4 C  px              144      0.187440   8 H  s         
   100      0.172862   4 C  py              150     -0.146246   9 H  s         
   102      0.134829   4 C  px              143      0.131202   8 H  s         
    37      0.125930   2 C  px                6     -0.116959   1 O  px        
   103      0.114040   4 C  py                7      0.106415   1 O  py        
 
 Vector   12  Occ=2.000000D+00  E=-3.558230D-01
              MO Center=  5.9D-01, -3.2D-01, -8.6D-01, r^2= 2.9D+00
   Bfn.  Coefficient  Atom+Function         Bfn.  Coefficient  Atom+Function  
  ----- ------------  ---------------      ----- ------------  ---------------
   100      0.250666   4 C  py              150     -0.181660   9 H  s         
   156      0.178738  10 H  s                 7     -0.166488   1 O  py        
   103      0.162266   4 C  py               10     -0.133358   1 O  py        
   149     -0.126558   9 H  s               155      0.126405  10 H  s         
    70      0.122608   3 C  pz               99     -0.106739   4 C  px        
 
 Vector   13  Occ=2.000000D+00  E=-3.292054D-01
              MO Center=  3.4D-01,  2.5D-01, -2.2D-01, r^2= 2.8D+00
   Bfn.  Coefficient  Atom+Function         Bfn.  Coefficient  Atom+Function  
  ----- ------------  ---------------      ----- ------------  ---------------
    39      0.222008   2 C  pz              101     -0.200941   4 C  pz        
    70     -0.171899   3 C  pz                7     -0.164115   1 O  py        
   138      0.161552   7 H  s                42      0.150584   2 C  pz        
   104     -0.140160   4 C  pz               10     -0.132242   1 O  py        
    99      0.120670   4 C  px              137      0.108847   7 H  s         
 
 Vector   14  Occ=2.000000D+00  E=-3.198710D-01
              MO Center=  3.6D-01, -5.4D-02, -2.1D-01, r^2= 3.0D+00
   Bfn.  Coefficient  Atom+Function         Bfn.  Coefficient  Atom+Function  
  ----- ------------  ---------------      ----- ------------  ---------------
     7      0.216932   1 O  py               10      0.177741   1 O  py        
   126      0.158689   5 H  s                99     -0.157886   4 C  px        
     6     -0.151440   1 O  px              156      0.148276  10 H  s         
    37      0.137143   2 C  px              144     -0.132199   8 H  s         
     9     -0.124108   1 O  px               39      0.122648   2 C  pz        
 
 Vector   15  Occ=2.000000D+00  E=-2.643518D-01
              MO Center=  1.7D-02,  1.5D-01,  3.4D-02, r^2= 2.3D+00
   Bfn.  Coefficient  Atom+Function         Bfn.  Coefficient  Atom+Function  
  ----- ------------  ---------------      ----- ------------  ---------------
    68      0.263609   3 C  px               38      0.254322   2 C  py        
     6     -0.239136   1 O  px               41      0.198861   2 C  py        
    71      0.195375   3 C  px                9     -0.187177   1 O  px        
    12     -0.157661   1 O  px              150      0.115327   9 H  s         
   100     -0.111073   4 C  py               67      0.108314   3 C  s         
 
 Vector   16  Occ=2.000000D+00  E=-2.186691D-01
              MO Center= -5.9D-01, -2.5D-02,  2.0D-01, r^2= 1.6D+00
   Bfn.  Coefficient  Atom+Function         Bfn.  Coefficient  Atom+Function  
  ----- ------------  ---------------      ----- ------------  ---------------
     8      0.450003   1 O  pz               11      0.358082   1 O  pz        
    14      0.297983   1 O  pz              133     -0.126964   6 H  s         
   139      0.115257   7 H  s               132     -0.103831   6 H  s         
   138      0.104151   7 H  s               145     -0.102793   8 H  s         
   126     -0.095425   5 H  s                98      0.093827   4 C  s         
 
 Vector   17  Occ=0.000000D+00  E= 2.585483D-02
              MO Center=  1.2D+00, -1.4D-01, -6.3D-01, r^2= 7.2D+00
   Bfn.  Coefficient  Atom+Function         Bfn.  Coefficient  Atom+Function  
  ----- ------------  ---------------      ----- ------------  ---------------
    98      4.552589   4 C  s               145     -1.549777   8 H  s         
   151     -1.521716   9 H  s               157     -1.358179  10 H  s         
   127     -1.249296   5 H  s                45      1.147209   2 C  pz        
   139     -0.863749   7 H  s                67      0.667891   3 C  s         
   133     -0.591752   6 H  s                75      0.334818   3 C  py        
 
 Vector   18  Occ=0.000000D+00  E= 4.212164D-02
              MO Center= -1.8D-01,  7.3D-01,  1.7D-01, r^2= 4.1D+00
   Bfn.  Coefficient  Atom+Function         Bfn.  Coefficient  Atom+Function  
  ----- ------------  ---------------      ----- ------------  ---------------
    36      1.963701   2 C  s                98     -1.702066   4 C  s         
     5     -1.236257   1 O  s                74     -0.976934   3 C  px        
    67     -0.778557   3 C  s               151      0.689634   9 H  s         
    44      0.509826   2 C  py               13     -0.431635   1 O  py        
    45     -0.403188   2 C  pz               43     -0.372184   2 C  px        
 
 Vector   19  Occ=0.000000D+00  E= 4.925950D-02
              MO Center=  3.2D-01,  6.3D-01, -1.4D-01, r^2= 6.4D+00
   Bfn.  Coefficient  Atom+Function         Bfn.  Coefficient  Atom+Function  
  ----- ------------  ---------------      ----- ------------  ---------------
    67      3.109565   3 C  s                36     -2.310654   2 C  s         
   139     -1.642043   7 H  s               127      1.481516   5 H  s         
   145      0.676681   8 H  s                44     -0.611379   2 C  py        
    45     -0.605376   2 C  pz              157     -0.604945  10 H  s         
     5     -0.590880   1 O  s               133     -0.558128   6 H  s         
 
 Vector   20  Occ=0.000000D+00  E= 5.114287D-02
              MO Center=  6.7D-01,  3.6D-01,  4.0D-01, r^2= 7.8D+00
   Bfn.  Coefficient  Atom+Function         Bfn.  Coefficient  Atom+Function  
  ----- ------------  ---------------      ----- ------------  ---------------
    98      3.581172   4 C  s                67     -2.021555   3 C  s         
   133      1.771694   6 H  s                36     -1.616828   2 C  s         
   127      1.511823   5 H  s               157     -1.266923  10 H  s         
   145     -1.075203   8 H  s                44      0.932306   2 C  py        
   151     -0.735862   9 H  s                43     -0.682904   2 C  px        
 
 Vector   21  Occ=0.000000D+00  E= 6.393602D-02
              MO Center=  2.6D-01,  1.3D-01, -1.7D-01, r^2= 4.9D+00
   Bfn.  Coefficient  Atom+Function         Bfn.  Coefficient  Atom+Function  
  ----- ------------  ---------------      ----- ------------  ---------------
   139      1.266873   7 H  s                98      1.221937   4 C  s         
    67     -1.061335   3 C  s               151     -0.972658   9 H  s         
     5     -0.828029   1 O  s                43     -0.814605   2 C  px        
   133      0.623404   6 H  s                75     -0.535418   3 C  py        
    12     -0.478523   1 O  px              127     -0.433412   5 H  s         
 
 Vector   22  Occ=0.000000D+00  E= 8.574623D-02
              MO Center=  1.3D+00,  2.1D-01, -5.0D-01, r^2= 7.1D+00
   Bfn.  Coefficient  Atom+Function         Bfn.  Coefficient  Atom+Function  
  ----- ------------  ---------------      ----- ------------  ---------------
    36      2.885107   2 C  s               145      2.001227   8 H  s         
    67     -1.380113   3 C  s               157     -1.340659  10 H  s         
   127     -1.328909   5 H  s               133      1.180455   6 H  s         
   107     -1.122384   4 C  pz              105     -1.019254   4 C  px        
    98     -0.977257   4 C  s                75      0.795765   3 C  py        
 
 Vector   23  Occ=0.000000D+00  E= 9.123275D-02
              MO Center=  1.2D+00, -6.5D-01, -5.6D-01, r^2= 6.6D+00
   Bfn.  Coefficient  Atom+Function         Bfn.  Coefficient  Atom+Function  
  ----- ------------  ---------------      ----- ------------  ---------------
    36      2.501150   2 C  s               151      2.076066   9 H  s         
   145     -1.585686   8 H  s                98     -1.295883   4 C  s         
   106      1.150924   4 C  py              105      1.116215   4 C  px        
   133      0.929733   6 H  s                67     -0.905343   3 C  s         
   127     -0.832935   5 H  s               107     -0.678111   4 C  pz        
 
 Vector   24  Occ=0.000000D+00  E= 1.026363D-01
              MO Center=  4.0D-01,  4.4D-01, -1.1D+00, r^2= 6.9D+00
   Bfn.  Coefficient  Atom+Function         Bfn.  Coefficient  Atom+Function  
  ----- ------------  ---------------      ----- ------------  ---------------
   157      2.016152  10 H  s               133      1.630504   6 H  s         
   139     -1.527674   7 H  s               106     -1.466759   4 C  py        
    98     -1.417339   4 C  s               151     -1.420495   9 H  s         
    36      1.270666   2 C  s                76     -1.198257   3 C  pz        
   105      0.960027   4 C  px               45     -0.468288   2 C  pz        
 
 Vector   25  Occ=0.000000D+00  E= 1.384875D-01
              MO Center=  8.1D-01,  1.7D-01, -4.6D-01, r^2= 7.9D+00
   Bfn.  Coefficient  Atom+Function         Bfn.  Coefficient  Atom+Function  
  ----- ------------  ---------------      ----- ------------  ---------------
    36      4.790573   2 C  s                98     -3.664093   4 C  s         
    45     -3.458622   2 C  pz               67     -2.837204   3 C  s         
   127      2.741500   5 H  s                76      2.171922   3 C  pz        
   105      2.103503   4 C  px              133     -1.776807   6 H  s         
   139      1.670210   7 H  s               107     -1.580345   4 C  pz        
 
 Vector   26  Occ=0.000000D+00  E= 1.705656D-01
              MO Center=  4.6D-01,  5.2D-01, -1.4D-01, r^2= 7.3D+00
   Bfn.  Coefficient  Atom+Function         Bfn.  Coefficient  Atom+Function  
  ----- ------------  ---------------      ----- ------------  ---------------
    75      2.312373   3 C  py              107      1.633250   4 C  pz        
    67     -1.562480   3 C  s                36      1.536567   2 C  s         
   139     -1.198271   7 H  s               157      1.071995  10 H  s         
    74     -1.006665   3 C  px               44      0.759421   2 C  py        
    43     -0.595797   2 C  px              106     -0.597311   4 C  py        
 
 Vector   27  Occ=0.000000D+00  E= 1.971976D-01
              MO Center=  7.8D-01, -8.7D-02, -9.8D-01, r^2= 5.1D+00
   Bfn.  Coefficient  Atom+Function         Bfn.  Coefficient  Atom+Function  
  ----- ------------  ---------------      ----- ------------  ---------------
    67      2.969095   3 C  s                44     -2.563524   2 C  py        
   106      1.933807   4 C  py               36     -1.857628   2 C  s         
    43      0.955997   2 C  px              105      0.799134   4 C  px        
    74      0.747311   3 C  px               45     -0.722320   2 C  pz        
   157     -0.678180  10 H  s               150      0.624417   9 H  s         
 
 Vector   28  Occ=0.000000D+00  E= 2.018400D-01
              MO Center=  9.8D-01, -4.3D-01, -6.9D-01, r^2= 6.7D+00
   Bfn.  Coefficient  Atom+Function         Bfn.  Coefficient  Atom+Function  
  ----- ------------  ---------------      ----- ------------  ---------------
    36      2.538518   2 C  s                75      1.658927   3 C  py        
   105     -1.376577   4 C  px              133     -1.257452   6 H  s         
   106      0.953340   4 C  py              107     -0.937966   4 C  pz        
   139     -0.746093   7 H  s               156     -0.718342  10 H  s         
    76      0.698755   3 C  pz               45      0.679335   2 C  pz        
 
 Vector   29  Occ=0.000000D+00  E= 2.364953D-01
              MO Center= -2.9D-01,  3.9D-01, -5.7D-02, r^2= 5.4D+00
   Bfn.  Coefficient  Atom+Function         Bfn.  Coefficient  Atom+Function  
  ----- ------------  ---------------      ----- ------------  ---------------
    67      4.474505   3 C  s                36     -3.049123   2 C  s         
   139     -1.536797   7 H  s                66     -1.438215   3 C  s         
    98      1.305324   4 C  s               133     -1.259399   6 H  s         
   107      0.991312   4 C  pz               74     -0.846446   3 C  px        
     5     -0.769540   1 O  s               106      0.750020   4 C  py        
 
 Vector   30  Occ=0.000000D+00  E= 2.477846D-01
              MO Center=  5.4D-01,  2.1D-02, -7.7D-02, r^2= 5.9D+00
   Bfn.  Coefficient  Atom+Function         Bfn.  Coefficient  Atom+Function  
  ----- ------------  ---------------      ----- ------------  ---------------
    67      6.050009   3 C  s                43      4.227934   2 C  px        
    75     -3.050607   3 C  py               44     -2.688020   2 C  py        
    36     -2.148308   2 C  s               107     -2.092456   4 C  pz        
   157     -1.844620  10 H  s                45     -1.560232   2 C  pz        
    98     -1.455495   4 C  s               105     -1.170397   4 C  px        
 
 Vector   31  Occ=0.000000D+00  E= 2.681497D-01
              MO Center=  2.5D-01, -1.7D-01,  2.4D-01, r^2= 5.6D+00
   Bfn.  Coefficient  Atom+Function         Bfn.  Coefficient  Atom+Function  
  ----- ------------  ---------------      ----- ------------  ---------------
    36      4.393089   2 C  s                 5     -2.262126   1 O  s         
    67      2.268574   3 C  s                43     -1.526761   2 C  px        
   105      1.534388   4 C  px               98     -1.255118   4 C  s         
    66     -1.161229   3 C  s               139     -0.925856   7 H  s         
   133     -0.906194   6 H  s               127     -0.850762   5 H  s         
 
 Vector   32  Occ=0.000000D+00  E= 2.766884D-01
              MO Center=  4.3D-01,  3.4D-01,  3.0D-01, r^2= 4.2D+00
   Bfn.  Coefficient  Atom+Function         Bfn.  Coefficient  Atom+Function  
  ----- ------------  ---------------      ----- ------------  ---------------
    36      2.397441   2 C  s                67     -1.710039   3 C  s         
     5     -1.678738   1 O  s                43     -1.252744   2 C  px        
    74     -0.724235   3 C  px               45     -0.622175   2 C  pz        
    98     -0.625143   4 C  s               145      0.581792   8 H  s         
     4      0.488105   1 O  s                66      0.424075   3 C  s         
 
 Vector   33  Occ=0.000000D+00  E= 3.007000D-01
              MO Center=  4.7D-01,  3.6D-01, -4.0D-01, r^2= 5.0D+00
   Bfn.  Coefficient  Atom+Function         Bfn.  Coefficient  Atom+Function  
  ----- ------------  ---------------      ----- ------------  ---------------
    43      1.907133   2 C  px              106      1.825588   4 C  py        
   151      1.720764   9 H  s                98     -1.604294   4 C  s         
    36     -1.463427   2 C  s                44     -1.309636   2 C  py        
    76      1.194682   3 C  pz               66      1.061107   3 C  s         
   107     -0.981043   4 C  pz              139      0.864660   7 H  s         
 
 Vector   34  Occ=0.000000D+00  E= 3.392324D-01
              MO Center=  1.8D-01,  3.9D-01, -4.4D-01, r^2= 5.7D+00
   Bfn.  Coefficient  Atom+Function         Bfn.  Coefficient  Atom+Function  
  ----- ------------  ---------------      ----- ------------  ---------------
    67      4.435617   3 C  s                76     -3.647910   3 C  pz        
   139     -3.034955   7 H  s                36     -2.403822   2 C  s         
    98      2.067891   4 C  s               157     -1.846036  10 H  s         
   133      1.795099   6 H  s               107     -1.722050   4 C  pz        
    43      1.190238   2 C  px               66     -1.039217   3 C  s         
 
 Vector   35  Occ=0.000000D+00  E= 3.641951D-01
              MO Center=  7.4D-01,  1.0D-01, -1.9D-01, r^2= 6.7D+00
   Bfn.  Coefficient  Atom+Function         Bfn.  Coefficient  Atom+Function  
  ----- ------------  ---------------      ----- ------------  ---------------
    98      6.657514   4 C  s                36      3.654248   2 C  s         
    67     -3.498205   3 C  s                76      3.221640   3 C  pz        
   145     -3.105906   8 H  s                97     -2.687025   4 C  s         
   133     -2.093308   6 H  s               139      2.055168   7 H  s         
    44      1.962816   2 C  py              151     -1.507324   9 H  s         
 
 Vector   36  Occ=0.000000D+00  E= 3.718908D-01
              MO Center=  6.6D-01,  1.5D-01, -4.0D-01, r^2= 6.7D+00
   Bfn.  Coefficient  Atom+Function         Bfn.  Coefficient  Atom+Function  
  ----- ------------  ---------------      ----- ------------  ---------------
    36     11.898366   2 C  s                98    -11.119690   4 C  s         
    67     -7.620753   3 C  s                97      3.212385   4 C  s         
   157      2.624634  10 H  s               127     -2.543377   5 H  s         
   151      2.236070   9 H  s               145      2.100110   8 H  s         
    44      1.710316   2 C  py               35     -1.489625   2 C  s         
 
 Vector   37  Occ=0.000000D+00  E= 3.850092D-01
              MO Center=  8.6D-01, -3.2D-01, -2.6D-02, r^2= 6.1D+00
   Bfn.  Coefficient  Atom+Function         Bfn.  Coefficient  Atom+Function  
  ----- ------------  ---------------      ----- ------------  ---------------
    36      7.914173   2 C  s               127     -4.267667   5 H  s         
    67     -3.256106   3 C  s                45      2.517581   2 C  pz        
    35     -2.379162   2 C  s                76     -2.149048   3 C  pz        
   151     -1.966086   9 H  s               133      1.928681   6 H  s         
    98      1.877532   4 C  s               145     -1.687877   8 H  s         
 
 Vector   38  Occ=0.000000D+00  E= 3.961774D-01
              MO Center=  2.7D-01,  3.1D-01,  9.9D-02, r^2= 6.5D+00
   Bfn.  Coefficient  Atom+Function         Bfn.  Coefficient  Atom+Function  
  ----- ------------  ---------------      ----- ------------  ---------------
    98     10.766307   4 C  s                67     -8.120926   3 C  s         
    45      4.570823   2 C  pz              133      3.100561   6 H  s         
    76     -3.063846   3 C  pz               44      2.951077   2 C  py        
   157     -2.410302  10 H  s                43     -2.213707   2 C  px        
    75      2.048233   3 C  py               97     -1.695382   4 C  s         
 
 Vector   39  Occ=0.000000D+00  E= 4.028517D-01
              MO Center= -3.9D-01,  6.1D-02,  1.1D-01, r^2= 6.2D+00
   Bfn.  Coefficient  Atom+Function         Bfn.  Coefficient  Atom+Function  
  ----- ------------  ---------------      ----- ------------  ---------------
    36     11.213344   2 C  s                67    -10.777602   3 C  s         
    98     -6.340041   4 C  s                45     -6.033668   2 C  pz        
    44      3.510388   2 C  py              127      3.254539   5 H  s         
   139      2.693750   7 H  s                66      2.514500   3 C  s         
   105      2.455140   4 C  px               76      2.337718   3 C  pz        
 
 Vector   40  Occ=0.000000D+00  E= 4.157331D-01
              MO Center=  8.6D-01, -4.3D-01, -8.9D-01, r^2= 5.7D+00
   Bfn.  Coefficient  Atom+Function         Bfn.  Coefficient  Atom+Function  
  ----- ------------  ---------------      ----- ------------  ---------------
    98      6.964611   4 C  s                36     -3.392940   2 C  s         
    45      3.014580   2 C  pz              105     -2.577845   4 C  px        
   151     -2.482050   9 H  s               157     -1.995858  10 H  s         
   145      1.852115   8 H  s                97     -1.132828   4 C  s         
   127     -1.069833   5 H  s               144     -0.988394   8 H  s         
 
 Vector   41  Occ=0.000000D+00  E= 4.268307D-01
              MO Center=  4.4D-01,  2.3D-01, -1.1D-01, r^2= 6.8D+00
   Bfn.  Coefficient  Atom+Function         Bfn.  Coefficient  Atom+Function  
  ----- ------------  ---------------      ----- ------------  ---------------
    36      9.628873   2 C  s                67     -4.806955   3 C  s         
    98     -4.329842   4 C  s                44      2.617470   2 C  py        
    75      2.565286   3 C  py              151      2.309703   9 H  s         
    43     -1.711924   2 C  px               45     -1.582571   2 C  pz        
    74     -1.471230   3 C  px              132      1.351511   6 H  s         
 
 Vector   42  Occ=0.000000D+00  E= 4.482896D-01
              MO Center=  1.3D-01, -1.5D-01, -9.9D-02, r^2= 6.0D+00
   Bfn.  Coefficient  Atom+Function         Bfn.  Coefficient  Atom+Function  
  ----- ------------  ---------------      ----- ------------  ---------------
    36      9.278319   2 C  s                98     -8.931631   4 C  s         
    45     -5.837556   2 C  pz              127      3.072172   5 H  s         
    76      2.912068   3 C  pz               67     -2.749594   3 C  s         
   133     -2.222698   6 H  s                44      2.097659   2 C  py        
   106     -2.064308   4 C  py              157      2.005676  10 H  s         
 
 Vector   43  Occ=0.000000D+00  E= 4.599601D-01
              MO Center=  7.2D-02,  8.0D-01, -6.3D-01, r^2= 5.1D+00
   Bfn.  Coefficient  Atom+Function         Bfn.  Coefficient  Atom+Function  
  ----- ------------  ---------------      ----- ------------  ---------------
   139      3.113111   7 H  s               157     -2.685473  10 H  s         
    75     -2.411626   3 C  py              107     -2.206034   4 C  pz        
    44     -1.967749   2 C  py               43      1.872559   2 C  px        
   138     -1.453397   7 H  s                45     -1.062592   2 C  pz        
    36     -0.986009   2 C  s                74      0.973531   3 C  px        
 
 Vector   44  Occ=0.000000D+00  E= 4.712858D-01
              MO Center=  3.6D-01,  2.3D-01,  4.8D-02, r^2= 5.6D+00
   Bfn.  Coefficient  Atom+Function         Bfn.  Coefficient  Atom+Function  
  ----- ------------  ---------------      ----- ------------  ---------------
    98      5.714336   4 C  s                36     -5.109878   2 C  s         
    45      2.770827   2 C  pz              145     -1.700438   8 H  s         
   107      1.572608   4 C  pz               67      1.483885   3 C  s         
    35      1.279785   2 C  s               133     -1.247373   6 H  s         
   132      1.160171   6 H  s               126     -1.076940   5 H  s         
 
 Vector   45  Occ=0.000000D+00  E= 5.077598D-01
              MO Center=  9.0D-01, -3.8D-01, -9.3D-01, r^2= 4.8D+00
   Bfn.  Coefficient  Atom+Function         Bfn.  Coefficient  Atom+Function  
  ----- ------------  ---------------      ----- ------------  ---------------
    98     11.373655   4 C  s                36     -7.377014   2 C  s         
    45      4.546269   2 C  pz              107      3.067236   4 C  pz        
   144     -1.346726   8 H  s               106      1.336941   4 C  py        
   156     -1.228124  10 H  s               127     -1.141280   5 H  s         
   150     -1.076570   9 H  s                14     -1.040456   1 O  pz        
 
 Vector   46  Occ=0.000000D+00  E= 5.347262D-01
              MO Center=  1.0D-01, -4.0D-01, -5.0D-01, r^2= 4.4D+00
   Bfn.  Coefficient  Atom+Function         Bfn.  Coefficient  Atom+Function  
  ----- ------------  ---------------      ----- ------------  ---------------
    98     -7.404198   4 C  s                36      7.022138   2 C  s         
    45     -3.837247   2 C  pz               76      3.333758   3 C  pz        
   133     -1.793305   6 H  s               105      1.545652   4 C  px        
   107     -1.505886   4 C  pz              139      1.473765   7 H  s         
     5     -1.148613   1 O  s                14     -1.132412   1 O  pz        
 
 Vector   47  Occ=0.000000D+00  E= 6.587870D-01
              MO Center= -3.8D-01,  4.6D-02, -8.2D-03, r^2= 4.3D+00
   Bfn.  Coefficient  Atom+Function         Bfn.  Coefficient  Atom+Function  
  ----- ------------  ---------------      ----- ------------  ---------------
    36     11.636019   2 C  s                67     -9.030931   3 C  s         
    98     -4.085849   4 C  s                43     -2.645519   2 C  px        
    75      2.431209   3 C  py               13      2.221282   1 O  py        
    76      2.056687   3 C  pz              105      1.606675   4 C  px        
    44      1.517936   2 C  py              139      1.509873   7 H  s         
 
 Vector   48  Occ=0.000000D+00  E= 6.741803D-01
              MO Center= -2.7D-01,  3.6D-01,  1.2D-01, r^2= 3.9D+00
   Bfn.  Coefficient  Atom+Function         Bfn.  Coefficient  Atom+Function  
  ----- ------------  ---------------      ----- ------------  ---------------
    36      8.039983   2 C  s                67     -7.710962   3 C  s         
     5      2.976693   1 O  s                75      2.512384   3 C  py        
    98     -2.247477   4 C  s                13      2.090475   1 O  py        
    45     -1.280916   2 C  pz               43     -1.190031   2 C  px        
     4     -1.111954   1 O  s                44      0.871743   2 C  py        
 
 Vector   49  Occ=0.000000D+00  E= 7.072995D-01
              MO Center=  1.6D-01, -3.2D-01, -2.7D-01, r^2= 4.5D+00
   Bfn.  Coefficient  Atom+Function         Bfn.  Coefficient  Atom+Function  
  ----- ------------  ---------------      ----- ------------  ---------------
    67      9.463356   3 C  s                36     -7.256421   2 C  s         
    43      3.591814   2 C  px               44     -3.458033   2 C  py        
    75     -2.764410   3 C  py               98     -2.588410   4 C  s         
     5      2.143759   1 O  s                12      1.674344   1 O  px        
   106      1.662589   4 C  py               13     -1.324747   1 O  py        
 
 Vector   50  Occ=0.000000D+00  E= 7.605586D-01
              MO Center=  6.3D-01,  4.6D-02, -3.2D-01, r^2= 4.0D+00
   Bfn.  Coefficient  Atom+Function         Bfn.  Coefficient  Atom+Function  
  ----- ------------  ---------------      ----- ------------  ---------------
    45      2.507439   2 C  pz              127     -1.749038   5 H  s         
   105     -1.637784   4 C  px               43      1.599097   2 C  px        
   126     -1.326856   5 H  s               144      1.235916   8 H  s         
    76     -1.210335   3 C  pz                5     -1.172601   1 O  s         
    36      1.174264   2 C  s                67      1.036208   3 C  s         
 
 Vector   51  Occ=0.000000D+00  E= 7.913543D-01
              MO Center=  2.6D-01,  4.5D-02, -1.8D-01, r^2= 4.4D+00
   Bfn.  Coefficient  Atom+Function         Bfn.  Coefficient  Atom+Function  
  ----- ------------  ---------------      ----- ------------  ---------------
     5      4.225536   1 O  s                36     -3.103046   2 C  s         
    76     -2.594128   3 C  pz                4     -1.674476   1 O  s         
    45      1.658126   2 C  pz               12      1.373326   1 O  px        
   133      1.361994   6 H  s                43      1.194794   2 C  px        
    66     -1.057487   3 C  s                35     -0.995779   2 C  s         
 
 Vector   52  Occ=0.000000D+00  E= 8.319298D-01
              MO Center=  3.2D-01,  1.8D-01,  2.7D-05, r^2= 4.4D+00
   Bfn.  Coefficient  Atom+Function         Bfn.  Coefficient  Atom+Function  
  ----- ------------  ---------------      ----- ------------  ---------------
    36      6.642235   2 C  s                98     -4.126754   4 C  s         
     5     -3.916811   1 O  s                43     -2.548784   2 C  px        
   105      1.935569   4 C  px               35     -1.896083   2 C  s         
    45     -1.777816   2 C  pz               44      1.480428   2 C  py        
    66     -1.176624   3 C  s                97      1.077621   4 C  s         
 
 Vector   53  Occ=0.000000D+00  E= 8.515750D-01
              MO Center=  6.5D-01,  7.7D-02, -4.2D-01, r^2= 4.1D+00
   Bfn.  Coefficient  Atom+Function         Bfn.  Coefficient  Atom+Function  
  ----- ------------  ---------------      ----- ------------  ---------------
    98     -4.632871   4 C  s                45     -4.395138   2 C  pz        
    36      4.254677   2 C  s                76      1.996341   3 C  pz        
   127      1.772131   5 H  s                44      1.604003   2 C  py        
   106     -1.602898   4 C  py              105      1.265619   4 C  px        
   150     -1.250861   9 H  s               139      1.067507   7 H  s         
 
 Vector   54  Occ=0.000000D+00  E= 8.684468D-01
              MO Center=  1.5D-01, -2.8D-02, -1.1D-01, r^2= 4.3D+00
   Bfn.  Coefficient  Atom+Function         Bfn.  Coefficient  Atom+Function  
  ----- ------------  ---------------      ----- ------------  ---------------
     5      4.755584   1 O  s                36     -2.239652   2 C  s         
     4     -1.627488   1 O  s               138      1.443003   7 H  s         
    12      1.204655   1 O  px               67     -1.174972   3 C  s         
    66     -1.094307   3 C  s                76      1.018980   3 C  pz        
    43      0.960031   2 C  px               97      0.905229   4 C  s         
 
 Vector   55  Occ=0.000000D+00  E= 9.201299D-01
              MO Center=  5.3D-01,  2.8D-01, -5.0D-01, r^2= 4.6D+00
   Bfn.  Coefficient  Atom+Function         Bfn.  Coefficient  Atom+Function  
  ----- ------------  ---------------      ----- ------------  ---------------
    35      5.057936   2 C  s                36     -1.708407   2 C  s         
    67      1.477519   3 C  s                66     -1.316898   3 C  s         
    72      1.309025   3 C  py              132     -1.311506   6 H  s         
    41      1.158382   2 C  py               84      1.159279   3 C  d  0      
    98     -1.152196   4 C  s               156     -1.147309  10 H  s         
 
 Vector   56  Occ=0.000000D+00  E= 9.642901D-01
              MO Center=  4.5D-01,  3.0D-01, -5.3D-01, r^2= 4.7D+00
   Bfn.  Coefficient  Atom+Function         Bfn.  Coefficient  Atom+Function  
  ----- ------------  ---------------      ----- ------------  ---------------
    35      4.175494   2 C  s                67      2.553538   3 C  s         
   138     -2.343449   7 H  s                76     -1.826448   3 C  pz        
    42     -1.783881   2 C  pz               83     -1.634426   3 C  d -1      
    36     -1.609336   2 C  s               115     -1.485348   4 C  d  0      
   132      1.404281   6 H  s                43      1.294800   2 C  px        
 
 Vector   57  Occ=0.000000D+00  E= 9.914588D-01
              MO Center=  3.5D-01,  4.8D-01, -1.2D-01, r^2= 4.1D+00
   Bfn.  Coefficient  Atom+Function         Bfn.  Coefficient  Atom+Function  
  ----- ------------  ---------------      ----- ------------  ---------------
    36      7.614580   2 C  s                98     -4.934439   4 C  s         
    67     -4.025858   3 C  s                45     -3.782446   2 C  pz        
    43     -2.341209   2 C  px               44      2.198358   2 C  py        
    66     -1.657672   3 C  s               127      1.590203   5 H  s         
    75      1.475974   3 C  py              126      1.329403   5 H  s         
 
 Vector   58  Occ=0.000000D+00  E= 1.013274D+00
              MO Center=  3.9D-01,  5.4D-01, -5.9D-02, r^2= 4.3D+00
   Bfn.  Coefficient  Atom+Function         Bfn.  Coefficient  Atom+Function  
  ----- ------------  ---------------      ----- ------------  ---------------
    36      5.457478   2 C  s                67     -4.511993   3 C  s         
    45     -2.136507   2 C  pz               44      1.901321   2 C  py        
    98     -1.605879   4 C  s               156     -1.486634  10 H  s         
    43     -1.366313   2 C  px               82      1.351480   3 C  d -2      
   144      1.343853   8 H  s                74     -1.331241   3 C  px        
 
 Vector   59  Occ=0.000000D+00  E= 1.041932D+00
              MO Center=  7.1D-01, -1.7D-01, -4.8D-01, r^2= 4.2D+00
   Bfn.  Coefficient  Atom+Function         Bfn.  Coefficient  Atom+Function  
  ----- ------------  ---------------      ----- ------------  ---------------
    35      2.641432   2 C  s                36      2.601795   2 C  s         
    66     -2.325653   3 C  s               150      1.984839   9 H  s         
   144     -1.915628   8 H  s                 5     -1.867691   1 O  s         
   117      1.737372   4 C  d  2             41      1.516242   2 C  py        
    44      1.345080   2 C  py               67     -1.208558   3 C  s         
 
 Vector   60  Occ=0.000000D+00  E= 1.079593D+00
              MO Center=  6.7D-01,  1.4D-02, -7.0D-02, r^2= 4.1D+00
   Bfn.  Coefficient  Atom+Function         Bfn.  Coefficient  Atom+Function  
  ----- ------------  ---------------      ----- ------------  ---------------
    98     -4.245441   4 C  s                66      4.088643   3 C  s         
    45     -3.881922   2 C  pz               97     -3.795383   4 C  s         
    36      3.573648   2 C  s                41     -2.607446   2 C  py        
   104     -2.558703   4 C  pz               42     -2.389557   2 C  pz        
    72     -2.378648   3 C  py               53      2.276746   2 C  d  0      
 
 Vector   61  Occ=0.000000D+00  E= 1.106110D+00
              MO Center=  3.7D-01,  4.1D-02,  4.7D-02, r^2= 3.7D+00
   Bfn.  Coefficient  Atom+Function         Bfn.  Coefficient  Atom+Function  
  ----- ------------  ---------------      ----- ------------  ---------------
    36      7.284407   2 C  s                67     -5.117252   3 C  s         
    98     -2.751164   4 C  s                66      2.058082   3 C  s         
   126     -1.965375   5 H  s                45     -1.796256   2 C  pz        
   132      1.646155   6 H  s                72     -1.533237   3 C  py        
    41     -1.406873   2 C  py               97     -1.413323   4 C  s         
 
 Vector   62  Occ=0.000000D+00  E= 1.148065D+00
              MO Center=  6.2D-01,  3.2D-02, -1.4D-02, r^2= 3.6D+00
   Bfn.  Coefficient  Atom+Function         Bfn.  Coefficient  Atom+Function  
  ----- ------------  ---------------      ----- ------------  ---------------
    67      5.222369   3 C  s                36     -3.929812   2 C  s         
    44     -2.396595   2 C  py              126      1.905238   5 H  s         
    97     -1.805822   4 C  s                54      1.605683   2 C  d  1      
    43      1.567750   2 C  px               42     -1.454281   2 C  pz        
    55      1.456366   2 C  d  2             75     -1.454011   3 C  py        
 
 Vector   63  Occ=0.000000D+00  E= 1.216544D+00
              MO Center=  5.6D-01,  2.1D-01, -1.4D-01, r^2= 3.8D+00
   Bfn.  Coefficient  Atom+Function         Bfn.  Coefficient  Atom+Function  
  ----- ------------  ---------------      ----- ------------  ---------------
    36      6.919312   2 C  s                66     -4.984453   3 C  s         
    97     -3.441041   4 C  s                67     -3.413627   3 C  s         
    35      3.197377   2 C  s                72      1.907095   3 C  py        
    51     -1.760769   2 C  d -2             52      1.701651   2 C  d -1      
   138      1.697355   7 H  s               104     -1.526315   4 C  pz        
 
 Vector   64  Occ=0.000000D+00  E= 1.347595D+00
              MO Center=  3.5D-01,  5.5D-01,  2.4D-01, r^2= 3.6D+00
   Bfn.  Coefficient  Atom+Function         Bfn.  Coefficient  Atom+Function  
  ----- ------------  ---------------      ----- ------------  ---------------
    66      4.638795   3 C  s                35      3.910136   2 C  s         
    67     -3.064635   3 C  s                36     -2.738599   2 C  s         
    65     -2.390710   3 C  s               132     -2.076831   6 H  s         
    34     -1.447953   2 C  s               133      1.445134   6 H  s         
    72      1.380693   3 C  py              139      1.056403   7 H  s         
 
 Vector   65  Occ=0.000000D+00  E= 1.417031D+00
              MO Center=  1.6D-01,  5.3D-01, -4.8D-02, r^2= 3.4D+00
   Bfn.  Coefficient  Atom+Function         Bfn.  Coefficient  Atom+Function  
  ----- ------------  ---------------      ----- ------------  ---------------
    36      4.231980   2 C  s                66      3.909951   3 C  s         
    67     -3.770303   3 C  s                35     -3.715761   2 C  s         
    73     -2.318041   3 C  pz              138     -2.261541   7 H  s         
   139      2.247918   7 H  s               126      1.836989   5 H  s         
    76      1.724707   3 C  pz               65     -1.596001   3 C  s         
 
 Vector   66  Occ=0.000000D+00  E= 1.433027D+00
              MO Center=  1.0D+00, -4.7D-01, -1.1D+00, r^2= 3.5D+00
   Bfn.  Coefficient  Atom+Function         Bfn.  Coefficient  Atom+Function  
  ----- ------------  ---------------      ----- ------------  ---------------
    98     10.006942   4 C  s                97     -7.556140   4 C  s         
    96      3.051264   4 C  s               145     -2.379263   8 H  s         
   151     -2.325838   9 H  s                36     -2.193580   2 C  s         
   157     -2.112525  10 H  s               150      1.685540   9 H  s         
   144      1.668582   8 H  s               104      1.509998   4 C  pz        
 
 Vector   67  Occ=0.000000D+00  E= 1.444448D+00
              MO Center=  4.7D-01,  3.4D-02, -3.5D-01, r^2= 4.1D+00
   Bfn.  Coefficient  Atom+Function         Bfn.  Coefficient  Atom+Function  
  ----- ------------  ---------------      ----- ------------  ---------------
    66      3.992784   3 C  s                67     -2.907859   3 C  s         
    36      2.770354   2 C  s                35     -2.635124   2 C  s         
   133      1.731231   6 H  s                76     -1.554789   3 C  pz        
    65     -1.412252   3 C  s                45      1.285296   2 C  pz        
   132     -1.247780   6 H  s               127     -1.241135   5 H  s         
 
 Vector   68  Occ=0.000000D+00  E= 1.446103D+00
              MO Center=  2.8D-01, -5.4D-02,  3.3D-02, r^2= 3.2D+00
   Bfn.  Coefficient  Atom+Function         Bfn.  Coefficient  Atom+Function  
  ----- ------------  ---------------      ----- ------------  ---------------
    98      6.157487   4 C  s                97     -3.367482   4 C  s         
    45      2.551005   2 C  pz               36     -2.266652   2 C  s         
    35     -2.181069   2 C  s                 5      1.739900   1 O  s         
   127     -1.706894   5 H  s                96      1.418238   4 C  s         
    76     -1.400710   3 C  pz               42     -1.224350   2 C  pz        
 
 Vector   69  Occ=0.000000D+00  E= 1.474299D+00
              MO Center=  9.8D-01, -2.7D-01, -9.7D-01, r^2= 3.4D+00
   Bfn.  Coefficient  Atom+Function         Bfn.  Coefficient  Atom+Function  
  ----- ------------  ---------------      ----- ------------  ---------------
    36      2.000468   2 C  s                66      1.951248   3 C  s         
    67     -1.446422   3 C  s               103      1.350259   4 C  py        
     5     -1.085718   1 O  s               156     -1.067112  10 H  s         
   150      1.001456   9 H  s                35     -0.931443   2 C  s         
    98     -0.904425   4 C  s               126      0.908249   5 H  s         
 
 Vector   70  Occ=0.000000D+00  E= 1.478246D+00
              MO Center=  9.2D-01, -3.6D-01, -9.9D-01, r^2= 3.5D+00
   Bfn.  Coefficient  Atom+Function         Bfn.  Coefficient  Atom+Function  
  ----- ------------  ---------------      ----- ------------  ---------------
   156     -2.561264  10 H  s                36      2.468003   2 C  s         
    66     -2.268331   3 C  s               102     -2.072011   4 C  px        
   157      1.991482  10 H  s               104     -1.748620   4 C  pz        
   126      1.556888   5 H  s               103      1.404363   4 C  py        
   144      1.379749   8 H  s               105      1.236179   4 C  px        
 
 Vector   71  Occ=0.000000D+00  E= 1.515006D+00
              MO Center=  3.8D-01,  7.2D-02, -3.7D-01, r^2= 4.0D+00
   Bfn.  Coefficient  Atom+Function         Bfn.  Coefficient  Atom+Function  
  ----- ------------  ---------------      ----- ------------  ---------------
    98      2.289243   4 C  s               144      1.903431   8 H  s         
   102     -1.654872   4 C  px              103     -1.434046   4 C  py        
   145     -1.424099   8 H  s                45      1.281874   2 C  pz        
   150     -1.070325   9 H  s                66      0.882661   3 C  s         
    97     -0.846528   4 C  s               106      0.788849   4 C  py        
 
 Vector   72  Occ=0.000000D+00  E= 1.543080D+00
              MO Center=  2.6D-01,  5.3D-01, -1.4D-01, r^2= 4.5D+00
   Bfn.  Coefficient  Atom+Function         Bfn.  Coefficient  Atom+Function  
  ----- ------------  ---------------      ----- ------------  ---------------
    36      4.333793   2 C  s                98     -3.776266   4 C  s         
    35     -3.577506   2 C  s                97      3.155599   4 C  s         
    67     -2.360198   3 C  s                73      2.126427   3 C  pz        
   132     -1.768621   6 H  s               133      1.401906   6 H  s         
   138      1.385882   7 H  s               102     -1.266536   4 C  px        
 
 Vector   73  Occ=0.000000D+00  E= 1.578168D+00
              MO Center=  4.8D-01, -2.0D-02, -8.2D-02, r^2= 3.2D+00
   Bfn.  Coefficient  Atom+Function         Bfn.  Coefficient  Atom+Function  
  ----- ------------  ---------------      ----- ------------  ---------------
    35      3.590095   2 C  s                36     -2.866929   2 C  s         
    40     -2.097797   2 C  px               67      1.905188   3 C  s         
    97     -1.914194   4 C  s               126      1.766316   5 H  s         
    72      1.661528   3 C  py               34     -1.475101   2 C  s         
    42     -1.422870   2 C  pz               66     -1.395104   3 C  s         
 
 Vector   74  Occ=0.000000D+00  E= 1.598187D+00
              MO Center=  3.3D-01,  3.8D-01, -1.5D-01, r^2= 3.4D+00
   Bfn.  Coefficient  Atom+Function         Bfn.  Coefficient  Atom+Function  
  ----- ------------  ---------------      ----- ------------  ---------------
    36     -5.351568   2 C  s                35      5.012400   2 C  s         
    66     -5.017134   3 C  s                67      3.910053   3 C  s         
    41      3.656791   2 C  py               71     -2.550503   3 C  px        
    72      2.289489   3 C  py               40     -2.015091   2 C  px        
    98      1.892156   4 C  s                82      1.677726   3 C  d -2      
 
 Vector   75  Occ=0.000000D+00  E= 1.639786D+00
              MO Center=  4.5D-01,  1.9D-01, -2.1D-02, r^2= 3.7D+00
   Bfn.  Coefficient  Atom+Function         Bfn.  Coefficient  Atom+Function  
  ----- ------------  ---------------      ----- ------------  ---------------
    66      2.968636   3 C  s                98      2.053452   4 C  s         
    35      2.011341   2 C  s                 5     -1.821396   1 O  s         
    97     -1.669089   4 C  s                67     -1.458975   3 C  s         
   104     -1.173048   4 C  pz              144      1.135092   8 H  s         
    41     -1.115511   2 C  py              103     -1.047964   4 C  py        
 
 Vector   76  Occ=0.000000D+00  E= 1.694570D+00
              MO Center=  5.7D-01,  1.1D-01, -4.1D-01, r^2= 3.7D+00
   Bfn.  Coefficient  Atom+Function         Bfn.  Coefficient  Atom+Function  
  ----- ------------  ---------------      ----- ------------  ---------------
    97     -5.610601   4 C  s                35      5.398505   2 C  s         
   104     -2.879434   4 C  pz               42     -2.823006   2 C  pz        
   102      1.875679   4 C  px               66     -1.651273   3 C  s         
    40      1.611055   2 C  px               34     -1.563048   2 C  s         
    96      1.514635   4 C  s                54      1.129421   2 C  d  1      
 
 Vector   77  Occ=0.000000D+00  E= 1.700801D+00
              MO Center= -4.1D-02,  2.9D-01, -8.2D-02, r^2= 3.7D+00
   Bfn.  Coefficient  Atom+Function         Bfn.  Coefficient  Atom+Function  
  ----- ------------  ---------------      ----- ------------  ---------------
     5      3.804311   1 O  s                72      3.349290   3 C  py        
    36     -2.634825   2 C  s                97      2.151832   4 C  s         
    66     -2.053102   3 C  s               138     -1.945295   7 H  s         
    42      1.686324   2 C  pz               41      1.624620   2 C  py        
    12      1.477288   1 O  px              104      1.442251   4 C  pz        
 
 Vector   78  Occ=0.000000D+00  E= 1.784950D+00
              MO Center=  4.2D-01,  2.6D-01,  5.0D-03, r^2= 3.5D+00
   Bfn.  Coefficient  Atom+Function         Bfn.  Coefficient  Atom+Function  
  ----- ------------  ---------------      ----- ------------  ---------------
    35      2.853606   2 C  s                97     -2.761845   4 C  s         
    36      1.632483   2 C  s                45     -1.304486   2 C  pz        
   104     -1.173379   4 C  pz               67     -1.097651   3 C  s         
    42     -1.036105   2 C  pz              102      0.975090   4 C  px        
    72      0.929279   3 C  py               96      0.887368   4 C  s         
 
 Vector   79  Occ=0.000000D+00  E= 1.814347D+00
              MO Center= -6.9D-01,  1.8D-01,  2.1D-01, r^2= 2.4D+00
   Bfn.  Coefficient  Atom+Function         Bfn.  Coefficient  Atom+Function  
  ----- ------------  ---------------      ----- ------------  ---------------
    35      4.402919   2 C  s                 5     -3.476757   1 O  s         
    40     -2.408271   2 C  px               41      2.073191   2 C  py        
    72      1.958699   3 C  py               71     -1.763119   3 C  px        
    66     -1.735909   3 C  s                12     -1.441985   1 O  px        
   132     -1.049473   6 H  s               138     -1.013317   7 H  s         
 
 Vector   80  Occ=0.000000D+00  E= 1.843846D+00
              MO Center=  9.6D-02,  2.6D-01, -8.0D-02, r^2= 3.7D+00
   Bfn.  Coefficient  Atom+Function         Bfn.  Coefficient  Atom+Function  
  ----- ------------  ---------------      ----- ------------  ---------------
    35      1.519176   2 C  s                36     -1.034394   2 C  s         
   156     -0.947907  10 H  s               104     -0.865569   4 C  pz        
    41     -0.791920   2 C  py               97     -0.711224   4 C  s         
    66      0.688734   3 C  s               157      0.672056  10 H  s         
   126     -0.660145   5 H  s                40      0.606788   2 C  px        
 
 Vector   81  Occ=0.000000D+00  E= 1.868262D+00
              MO Center=  5.3D-01,  1.8D-01, -4.4D-01, r^2= 4.0D+00
   Bfn.  Coefficient  Atom+Function         Bfn.  Coefficient  Atom+Function  
  ----- ------------  ---------------      ----- ------------  ---------------
    35      6.618648   2 C  s                66     -4.341325   3 C  s         
    72      3.473376   3 C  py               97     -3.272261   4 C  s         
    36      2.075128   2 C  s               104     -1.856240   4 C  pz        
    34     -1.635894   2 C  s                41      1.534942   2 C  py        
    67     -1.522653   3 C  s                45     -1.349295   2 C  pz        
 
 Vector   82  Occ=0.000000D+00  E= 1.919416D+00
              MO Center=  3.2D-01, -1.6D-01, -3.3D-01, r^2= 3.2D+00
   Bfn.  Coefficient  Atom+Function         Bfn.  Coefficient  Atom+Function  
  ----- ------------  ---------------      ----- ------------  ---------------
    36      1.610009   2 C  s                98     -1.492108   4 C  s         
    45     -1.348463   2 C  pz               35      1.310911   2 C  s         
    97     -1.286797   4 C  s               103     -1.221546   4 C  py        
    66     -1.112652   3 C  s                41      0.900678   2 C  py        
    42     -0.796145   2 C  pz              150     -0.758454   9 H  s         
 
 Vector   83  Occ=0.000000D+00  E= 1.991898D+00
              MO Center=  1.0D+00, -3.4D-01, -7.1D-01, r^2= 3.3D+00
   Bfn.  Coefficient  Atom+Function         Bfn.  Coefficient  Atom+Function  
  ----- ------------  ---------------      ----- ------------  ---------------
    98      4.828956   4 C  s                35      3.826883   2 C  s         
    36     -3.181748   2 C  s                66     -2.617447   3 C  s         
    40     -1.866361   2 C  px               72      1.833365   3 C  py        
    41      1.663284   2 C  py              107      1.484562   4 C  pz        
    43     -1.278881   2 C  px               34     -1.220744   2 C  s         
 
 Vector   84  Occ=0.000000D+00  E= 1.993117D+00
              MO Center=  4.3D-01,  2.6D-02, -3.8D-01, r^2= 3.4D+00
   Bfn.  Coefficient  Atom+Function         Bfn.  Coefficient  Atom+Function  
  ----- ------------  ---------------      ----- ------------  ---------------
    36      3.366626   2 C  s                98     -2.086303   4 C  s         
    67     -1.958194   3 C  s                45     -1.809242   2 C  pz        
    40     -1.354033   2 C  px                5     -1.163132   1 O  s         
    44      0.919359   2 C  py               43     -0.883796   2 C  px        
   126      0.833497   5 H  s                71     -0.813798   3 C  px        
 
 Vector   85  Occ=0.000000D+00  E= 2.094341D+00
              MO Center= -1.3D-01,  1.2D-01,  5.8D-02, r^2= 3.3D+00
   Bfn.  Coefficient  Atom+Function         Bfn.  Coefficient  Atom+Function  
  ----- ------------  ---------------      ----- ------------  ---------------
    36      4.287208   2 C  s                67     -2.555386   3 C  s         
    98     -2.324134   4 C  s                35     -1.733800   2 C  s         
    66      1.229123   3 C  s                71      1.097707   3 C  px        
    13      0.992528   1 O  py               41     -0.857752   2 C  py        
    12     -0.700921   1 O  px              138     -0.696085   7 H  s         
 
 Vector   86  Occ=0.000000D+00  E= 2.098961D+00
              MO Center= -2.5D-01,  6.2D-02, -1.9D-02, r^2= 3.2D+00
   Bfn.  Coefficient  Atom+Function         Bfn.  Coefficient  Atom+Function  
  ----- ------------  ---------------      ----- ------------  ---------------
    67      4.939244   3 C  s                36     -4.387174   2 C  s         
    66     -3.189856   3 C  s                41      3.033697   2 C  py        
    35      3.001334   2 C  s                71     -2.565768   3 C  px        
    13     -1.603821   1 O  py               82      1.369420   3 C  d -2      
    55     -1.222151   2 C  d  2             75     -1.207075   3 C  py        
 
 Vector   87  Occ=0.000000D+00  E= 2.167132D+00
              MO Center=  4.9D-01, -2.8D-02, -4.9D-01, r^2= 3.2D+00
   Bfn.  Coefficient  Atom+Function         Bfn.  Coefficient  Atom+Function  
  ----- ------------  ---------------      ----- ------------  ---------------
    98     -2.001735   4 C  s                67      1.944356   3 C  s         
    35      1.268183   2 C  s                36     -1.050017   2 C  s         
    73     -1.037688   3 C  pz               44     -0.869928   2 C  py        
    43      0.861153   2 C  px              156      0.851352  10 H  s         
    40     -0.827541   2 C  px               42      0.802471   2 C  pz        
 
 Vector   88  Occ=0.000000D+00  E= 2.203874D+00
              MO Center=  4.6D-01,  2.1D-01, -3.6D-01, r^2= 3.7D+00
   Bfn.  Coefficient  Atom+Function         Bfn.  Coefficient  Atom+Function  
  ----- ------------  ---------------      ----- ------------  ---------------
    98      2.262597   4 C  s                36     -1.229077   2 C  s         
    45      1.088498   2 C  pz               76     -0.997873   3 C  pz        
    42     -0.845460   2 C  pz              132      0.826316   6 H  s         
   103     -0.711383   4 C  py               97     -0.706240   4 C  s         
   138     -0.619088   7 H  s                71      0.548835   3 C  px        
 
 Vector   89  Occ=0.000000D+00  E= 2.228000D+00
              MO Center=  5.7D-01,  7.2D-02,  1.4D-02, r^2= 3.5D+00
   Bfn.  Coefficient  Atom+Function         Bfn.  Coefficient  Atom+Function  
  ----- ------------  ---------------      ----- ------------  ---------------
    36      3.070674   2 C  s                67     -1.603795   3 C  s         
    98     -1.304608   4 C  s                 5     -1.197669   1 O  s         
    42     -1.030724   2 C  pz               72     -1.007428   3 C  py        
    66      0.941324   3 C  s                35     -0.760218   2 C  s         
    45     -0.724813   2 C  pz               51      0.711683   2 C  d -2      
 
 Vector   90  Occ=0.000000D+00  E= 2.244619D+00
              MO Center=  7.1D-01, -2.1D-01, -7.4D-01, r^2= 3.6D+00
   Bfn.  Coefficient  Atom+Function         Bfn.  Coefficient  Atom+Function  
  ----- ------------  ---------------      ----- ------------  ---------------
   150      1.343361   9 H  s                36      1.182079   2 C  s         
   144     -0.912820   8 H  s               117      0.882993   4 C  d  2      
    67     -0.819705   3 C  s                66     -0.775442   3 C  s         
    98     -0.753462   4 C  s                72      0.669202   3 C  py        
   138      0.547327   7 H  s                83      0.529749   3 C  d -1      
 
 Vector   91  Occ=0.000000D+00  E= 2.264832D+00
              MO Center=  9.5D-01, -2.9D-01, -1.1D+00, r^2= 3.0D+00
   Bfn.  Coefficient  Atom+Function         Bfn.  Coefficient  Atom+Function  
  ----- ------------  ---------------      ----- ------------  ---------------
    66      2.238799   3 C  s                36      1.890540   2 C  s         
    41     -1.529171   2 C  py               67     -1.341293   3 C  s         
    35     -1.282504   2 C  s                98     -1.204766   4 C  s         
    71      0.939767   3 C  px               72     -0.944060   3 C  py        
   156      0.907345  10 H  s               126     -0.846814   5 H  s         
 
 Vector   92  Occ=0.000000D+00  E= 2.279317D+00
              MO Center=  5.5D-01,  5.7D-02, -2.4D-01, r^2= 3.7D+00
   Bfn.  Coefficient  Atom+Function         Bfn.  Coefficient  Atom+Function  
  ----- ------------  ---------------      ----- ------------  ---------------
    98      3.677832   4 C  s                36     -2.581449   2 C  s         
[...]
    21     -0.866395   1 O  d -1             42     -0.808270   2 C  pz        
    45     -0.737085   2 C  pz               97     -0.730487   4 C  s         
    98     -0.554388   4 C  s                 5     -0.505766   1 O  s         
    67     -0.502060   3 C  s               102      0.497086   4 C  px        
 
 Vector  154  Occ=0.000000D+00  E= 6.675143D+00
              MO Center= -8.7D-01, -1.8D-01,  2.0D-01, r^2= 5.7D-01
   Bfn.  Coefficient  Atom+Function         Bfn.  Coefficient  Atom+Function  
  ----- ------------  ---------------      ----- ------------  ---------------
    18      1.061120   1 O  d  1             23     -1.030641   1 O  d  1      
    97     -0.878500   4 C  s                42     -0.786201   2 C  pz        
    35      0.771221   2 C  s               102      0.645943   4 C  px        
    54     -0.536636   2 C  d  1             14      0.403696   1 O  pz        
    16     -0.399616   1 O  d -1             21      0.387784   1 O  d -1      
 
 Vector  155  Occ=0.000000D+00  E= 6.842582D+00
              MO Center= -8.8D-01, -1.9D-01,  2.0D-01, r^2= 5.9D-01
   Bfn.  Coefficient  Atom+Function         Bfn.  Coefficient  Atom+Function  
  ----- ------------  ---------------      ----- ------------  ---------------
     5      2.129582   1 O  s                40      1.760947   2 C  px        
     9      1.364965   1 O  px               97     -1.280844   4 C  s         
     4      1.210067   1 O  s                20      1.047988   1 O  d -2      
    42     -0.972790   2 C  pz               12      0.853522   1 O  px        
    35     -0.844459   2 C  s                22     -0.837755   1 O  d  0      
 
 Vector  156  Occ=0.000000D+00  E= 7.056375D+00
              MO Center= -8.9D-01, -1.9D-01,  2.0D-01, r^2= 6.4D-01
   Bfn.  Coefficient  Atom+Function         Bfn.  Coefficient  Atom+Function  
  ----- ------------  ---------------      ----- ------------  ---------------
    66     -3.176426   3 C  s                35      3.038020   2 C  s         
    40     -2.719548   2 C  px               72      2.674940   3 C  py        
    24     -1.575489   1 O  d  2             36      1.440112   2 C  s         
    67     -1.278160   3 C  s                10      1.271128   1 O  py        
    19      1.016709   1 O  d  2             13      0.861797   1 O  py        
 
 Vector  157  Occ=0.000000D+00  E= 2.193820D+01
              MO Center=  4.9D-02,  8.2D-01,  8.4D-02, r^2= 1.1D+00
   Bfn.  Coefficient  Atom+Function         Bfn.  Coefficient  Atom+Function  
  ----- ------------  ---------------      ----- ------------  ---------------
    64      1.605735   3 C  s                65     -1.375289   3 C  s         
    67     -1.281907   3 C  s                63     -1.265668   3 C  s         
    98      1.023964   4 C  s                95     -0.712572   4 C  s         
    96      0.576045   4 C  s                94      0.563822   4 C  s         
    40     -0.468078   2 C  px               35      0.407640   2 C  s         
 
 Vector  158  Occ=0.000000D+00  E= 2.198162D+01
              MO Center=  9.0D-01, -2.8D-01, -7.2D-01, r^2= 1.1D+00
   Bfn.  Coefficient  Atom+Function         Bfn.  Coefficient  Atom+Function  
  ----- ------------  ---------------      ----- ------------  ---------------
    95      1.421501   4 C  s                96     -1.312812   4 C  s         
    94     -1.118255   4 C  s                98     -1.117380   4 C  s         
    34     -1.001526   2 C  s                36     -0.977875   2 C  s         
    33      0.913572   2 C  s                32     -0.714019   2 C  s         
    67      0.630965   3 C  s                65     -0.602394   3 C  s         
 
 Vector  159  Occ=0.000000D+00  E= 2.210110D+01
              MO Center=  6.3D-01, -1.3D-01, -1.1D-01, r^2= 7.3D-01
   Bfn.  Coefficient  Atom+Function         Bfn.  Coefficient  Atom+Function  
  ----- ------------  ---------------      ----- ------------  ---------------
    36      2.169530   2 C  s                33     -1.520006   2 C  s         
    34      1.510702   2 C  s                35     -1.357806   2 C  s         
    98     -1.352439   4 C  s                32      1.190401   2 C  s         
    67     -1.110204   3 C  s                95      0.775204   4 C  s         
    96     -0.693220   4 C  s                97      0.675026   4 C  s         
 
 Vector  160  Occ=0.000000D+00  E= 4.341102D+01
              MO Center= -8.8D-01, -1.8D-01,  2.1D-01, r^2= 1.2D-01
   Bfn.  Coefficient  Atom+Function         Bfn.  Coefficient  Atom+Function  
  ----- ------------  ---------------      ----- ------------  ---------------
     4      2.492142   1 O  s                 3     -1.870753   1 O  s         
     2      1.731249   1 O  s                 1     -1.395797   1 O  s         
     5     -0.884337   1 O  s                36      0.840991   2 C  s         
     9      0.555939   1 O  px               66     -0.520895   3 C  s         
    40      0.459494   2 C  px               72      0.444627   3 C  py        
 

 center of mass
 --------------
 x =   0.30619344 y =   0.09486542 z =  -0.27792503

 moments of inertia (a.u.)
 ------------------
         199.888459127306          45.759478262229          83.781620727965
          45.759478262229         247.922187784485         -52.547918254685
          83.781620727965         -52.547918254685         239.310174825073
 
     Multipole analysis of the density
     ---------------------------------
 
     L   x y z        total         alpha         beta         nuclear
     -   - - -        -----         -----         ----         -------
     0   0 0 0     -0.000000    -16.000000    -16.000000     32.000000
 
     1   1 0 0      0.690566     -6.206739     -6.206739     13.104044
     1   0 1 0      0.326202     -1.617212     -1.617212      3.560625
     1   0 0 1     -0.059808      5.318811      5.318811    -10.697431
 
     2   2 0 0    -20.015642    -54.417737    -54.417737     88.819832
     2   1 1 0     -1.157570     13.952896     13.952896    -29.063363
     2   1 0 1      0.137245     26.494168     26.494168    -52.851091
     2   0 2 0    -17.814400    -40.514144    -40.514144     63.213889
     2   0 1 1      0.246329    -15.368849    -15.368849     30.984027
     2   0 0 2    -18.210825    -45.647640    -45.647640     73.084455
 
 *** CALLING NEW AORESP DRIVER FOR CLOSED AND OPEN SHELLS ***
 Entering AOResponse driver routine


--------------------------------------------------------------------------------

          ****************
          *** RESPONSE ***
          ****************

 Response module for NWChem and dynamic CPKS solver
 developed by J. Autschbach and coworkers, SUNY Buffalo
 The methodology used in this program is described in 
 ChemPhysChem 12 (2011), 3224-3235 (main reference)
 J. Chem. Phys. 123 (2005), 114103
 J. Chem. Phys. 122 (2005), 224115
 J. Chem. Phys. 122 (2005), 074105
 Comp. Lett. 3 (2007), 131-150 (contact JA for a copy)
 Please cite this work in publications based on results
 obtained with this code. Thank you!

 For extension of response module to open shell
 calculations please acknowledge:
 F. Aquino, Northwestern University, Schatz Rsrch Group
 The update to the methodology is described in
 J. Phys. Chem. A 118 (2014) 517-525



          -----------------------------------------------
          Solving response equations for perturbing field
          -----------------------------------------------

 number of frequencies:     1
 frequency in a.u.:  0.9319600E-01
 Perturbing field: electric
 Using GIAO formalism for OptRot
 Adding quadrupole terms to OptRot
 to create an origin in dependent tensor.
 Using El. Dipole Length Gauge
 
 Applying DAMPING constant of  0.003700 a.u.
 
 Setting up CPKS
 with frequency omega =      0.09319600 a.u.
 and a damping of            0.00370000 a.u.

 
                            NWChem Dynamic CPHF Module
                            --------------------------
 
 
    scftype = RHF 
    nclosed =   16
      nopen =    0
  variables =     9216
  num. vecs =        3
  tolerance =   1.0D-07
  max. iter =  100

 SCF residual:   4.232339946846311E-006


Iterative solution of linear equations
  No. of variables     4608
  No. of equations        3
  Maximum subspace       99
       Convergence  1.0D-07
        Start time     94.8


   iter   nsub   residual    time 
   ----  ------  --------  --------- 
 dft_CPHF2_read: failed to open
 ./methyloxirane_blyp-def2-tzvp_488.9_34.inp.aoresp_fiao_f1
     1      3    3.95D+00     144.9
     2      6    2.72D+00     195.2
     3      9    2.40D-01     247.2
     4     12    5.19D-02     297.6
     5     15    1.09D-02     347.9
     6     18    1.33D-03     398.2
     7     21    1.48D-04     448.5
     8     24    1.35D-05     498.9
     9     27    1.25D-06     549.2
    10     30    4.71D-07     599.5
    11     33    2.09D-08     649.8

 Calculating some arrays needed for GIAO optical rotation

    0 giaofock schwarz done =      92.97%
    0 giaofock schwarz done =      95.41%
 aor_r1_tensor_giao: roadata output requested
 dip-quad polarizability Re:

              1        2        3        4        5        6      
    1   77.2540  -6.2330 -27.5968  -4.6280   1.1409   8.8403
    2  -11.7745  25.3089   3.3403  23.5825 -21.6552   3.9489
    3   -6.6489   1.0375  38.8017  -0.2825  13.9298 -40.8244
 traceless dip-quad polarizability:

              1        2        3      
    1   75.1479  -9.3495 -41.3952
    2   -9.3495 -47.6752   1.7113
    3  -41.3952   1.7113 -27.4727

              1        2        3      
    1  -25.5402  37.9634   5.0105
    2   37.9634  27.4953 -32.4829
    3    5.0105 -32.4829  -1.9551

              1        2        3      
    1   13.9045   1.5563  58.2025
    2    1.5563  23.4542  20.8948
    3   58.2025  20.8948 -37.3587

 roa begin

 alpha real:
 XX       0.4106560016857E+02
 XY      -0.5237664271062E+01
 XZ      -0.3082232301219E+01
 YX      -0.5237664282910E+01
 YY       0.4405758094071E+02
 YZ       0.3147576172859E+01
 ZX      -0.3082232307834E+01
 ZY       0.3147576172179E+01
 ZZ       0.4141320328158E+02

 alpha im:
 XX       0.1114093064840E+00
 XY      -0.2997818593612E-01
 XZ      -0.1144858385810E-01
 YX      -0.2997818153934E-01
 YY       0.1293689517433E+00
 YZ       0.1826766038156E-01
 ZX      -0.1144858090730E-01
 ZY       0.1826765990072E-01
 ZZ       0.1222322965715E+00

 beta real:
 XX      -0.1393971285719E+00
 XY       0.9397361380120E+00
 XZ       0.1985849141289E+00
 YX      -0.8838068757153E+00
 YY       0.1459852797288E+00
 YZ      -0.1554687987586E+01
 ZX      -0.4863874825615E+00
 ZY       0.1871213651496E+01
 ZZ      -0.1000748268914E-01

 G-prime = -omega beta(real):
 XX      -0.1393971285719E+00
 XY       0.9397361380120E+00
 XZ       0.1985849141289E+00
 YX      -0.8838068757153E+00
 YY       0.1459852797288E+00
 YZ      -0.1554687987586E+01
 ZX      -0.4863874825615E+00
 ZY       0.1871213651496E+01
 ZZ      -0.1000748268914E-01

 beta im:
 XX      -0.5986946375789E-02
 XY       0.1348169527373E-01
 XZ       0.2808994689997E-02
 YX      -0.7530860994667E-02
 YY       0.4793704366686E-02
 YZ      -0.2389750272052E-01
 ZX      -0.1354094530923E-01
 ZY       0.4036105662652E-01
 ZZ       0.3943174692949E-03

 G-prime = -omega beta(imag):
 XX      -0.5986946375789E-02
 XY       0.1348169527373E-01
 XZ       0.2808994689997E-02
 YX      -0.7530860994667E-02
 YY       0.4793704366686E-02
 YZ      -0.2389750272052E-01
 ZX      -0.1354094530923E-01
 ZY       0.4036105662652E-01
 ZZ       0.3943174692949E-03

 dipole-quadrupole real (Cartesian):
 XXX      0.7725401605762E+02
 XXY     -0.6233020064549E+01
 XXZ     -0.2759679130715E+02
 XYY     -0.4628010303079E+01
 XYZ      0.1140884880190E+01
 XZZ      0.8840318479071E+01
 YXX     -0.1177448353740E+02
 YXY      0.2530894389139E+02
 YXZ      0.3340349701706E+01
 YYY      0.2358245336273E+02
 YYZ     -0.2165524262857E+02
 YZZ      0.3948889971920E+01
 ZXX     -0.6648915367628E+01
 ZXY      0.1037520757198E+01
 ZXZ      0.3880169952799E+02
 ZYY     -0.2824752949165E+00
 ZYZ      0.1392984557298E+02
 ZZZ     -0.4082439252698E+02

 dipole-quadrupole imag (Cartesian):
 XXX      0.2709063090108E+00
 XXY     -0.3514695651905E-01
 XXZ     -0.7689007090677E-01
 XYY     -0.2864684981873E-01
 XYZ      0.2175718936764E-02
 XZZ      0.5958216661057E-01
 YXX     -0.5739042236777E-01
 YXY      0.6110381715549E-01
 YXZ      0.1946157425481E-01
 YYY      0.9464498267039E-01
 YYZ     -0.6094955221518E-01
 YZZ      0.9285867749347E-02
 ZXX     -0.3433073037870E-01
 ZXY     -0.3430353224747E-03
 ZXZ      0.1427523905965E+00
 ZYY      0.4713488092873E-02
 ZYZ      0.6648740117842E-01
 ZZZ     -0.9477831374608E-01

 dipole-quadrupole (traceless):
 XXX      0.7514786196962E+02
 XXY     -0.9349530096823E+01
 XXZ     -0.4139518696073E+02
 XYY     -0.4767517757142E+02
 XYZ      0.1711327320285E+01
 XZZ     -0.2747268439820E+02
 YXX     -0.2554015520473E+02
 YXY      0.3796341583708E+02
 YXZ      0.5010524552559E+01
 YYY      0.2749525014547E+02
 YYZ     -0.3248286394285E+02
 YZZ     -0.1955094940743E+01
 ZXX      0.1390451854332E+02
 ZXY      0.1556281135797E+01
 ZXZ      0.5820254929198E+02
 ZYY      0.2345417865239E+02
 ZYZ      0.2089476835946E+02
 ZZZ     -0.3735869719570E+02

 roa end


 Electric Dipole Response Matrix (nonzero elements):

              1        2        3      
    1   41.0656  -5.2377  -3.0822
    2   -5.2377  44.0576   3.1476
    3   -3.0822   3.1476  41.4132
 
 Imaginary part:

              1        2        3      
    1    0.1114  -0.0300  -0.0114
    2   -0.0300   0.1294   0.0183
    3   -0.0114   0.0183   0.1222

 ------------------------------------------
 average:        42.17879 + I       0.12100


 DFT Linear Response polarizability / au 
 Frequency  =       0.0931960 / au
 Wavelength =     488.8981609 / nm
              X              Y              Z
 -----------------------------------------------
 X      41.0656002     -5.2376643     -3.0822323
 Y      -5.2376643     44.0575809      3.1475762
 Z      -3.0822323      3.1475762     41.4132033
 -----------------------------------------------
 Eigenvalues =      36.9955328     50.1896924     39.3511592
 Isotropic   =      42.1787948
 Anisotropic =       9.9516937
 -----------------------------------------------
 *************************

 DFT Linear Response IMAG polarizability / au 
 Frequency  =       0.0931960 / au
 Wavelength =     488.8981609 / nm
              X              Y              Z
 -----------------------------------------------
 X       0.1114093     -0.0299782     -0.0114486
 Y      -0.0299782      0.1293690      0.0182677
 Z      -0.0114486      0.0182677      0.1222323
 -----------------------------------------------
 Eigenvalues =       0.0889801      0.1630174      0.1110130
 Isotropic   =       0.1210035
 Anisotropic =       0.0537632
 -----------------------------------------------
 *************************

 Magnetic Dipole Response Matrix (nonzero elements):
 Optical rotation tensor Beta
 (Buckingham-Dunn version including dipole-quadrupole terms)

              1        2        3      
    1    2.6472  -0.4063   0.4342
    2   -0.4063  -1.6181  -1.6921
    3    0.4342  -1.6921  -0.9924
 
 Imaginary part:

              1        2        3      
    1    0.0642  -0.1447  -0.0301
    2    0.0808  -0.0514   0.2564
    3    0.1453  -0.4331  -0.0042

 ------------------------------------------
 average:         0.01223 + I       0.00286

 Principal components and PAS (Real part)
                 -3.02620
                  2.79543
                  0.26745
 ------------------------
 average:         0.01223

              1        2        3      
    1    0.0062   0.9703  -0.2420
    2    0.7694  -0.1592  -0.6186
    3    0.6388   0.1824   0.7475

 Chiral response tensor (Real part):

              1        2        3      
    1   -1.3052   0.2031  -0.2171
    2    0.2031   0.8274   0.8460
    3   -0.2171   0.8460   0.5145
 
 Principal components and PAS (Real part)
                  1.53144
                 -1.37937
                 -0.11538
 ------------------------
 average:         0.01223

              1        2        3      
    1    0.0062   0.9703  -0.2420
    2    0.7694  -0.1592  -0.6186
    3    0.6388   0.1824   0.7475
 Exiting AOResponse driver routine

 Task  times  cpu:      629.6s     wall:      642.7s
 
 
                                NWChem Input Module
                                -------------------
 
 
 Summary of allocated global arrays
-----------------------------------
  No active global arrays



                         GA Statistics for process    0
                         ------------------------------

       create   destroy   get      put      acc     scatter   gather  read&inc
calls: 3294     3294     7.91e+06 3.14e+06 7.38e+05 2694        0     1095     
number of processes/call 1.01e+00 1.03e+00 1.43e+00 0.00e+00 0.00e+00
bytes total:             1.72e+09 1.26e+08 1.75e+09 1.84e+02 0.00e+00 8.76e+03
bytes remote:            7.16e+08 3.29e+07 1.00e+09 0.00e+00 0.00e+00 0.00e+00
Max memory consumed for GA by this process: 11242192 bytes
 
MA_summarize_allocated_blocks: starting scan ...
MA_summarize_allocated_blocks: scan completed: 0 heap blocks, 0 stack blocks
MA usage statistics:

	allocation statistics:
					      heap	     stack
					      ----	     -----
	current number of blocks	         0	         0
	maximum number of blocks	        24	        52
	current total bytes		         0	         0
	maximum total bytes		   7519840	  48998328
	maximum total K-bytes		      7520	     48999
	maximum total M-bytes		         8	        49
 
 
                                     CITATION
                                     --------
                Please cite the following reference when publishing
                           results obtained with NWChem:
 
                 M. Valiev, E.J. Bylaska, N. Govind, K. Kowalski,
              T.P. Straatsma, H.J.J. van Dam, D. Wang, J. Nieplocha,
                        E. Apra, T.L. Windus, W.A. de Jong
                 "NWChem: a comprehensive and scalable open-source
                  solution for large scale molecular simulations"
                      Comput. Phys. Commun. 181, 1477 (2010)
                           doi:10.1016/j.cpc.2010.04.018
 
                                      AUTHORS
                                      -------
          E. Apra, E. J. Bylaska, W. A. de Jong, N. Govind, K. Kowalski,
       T. P. Straatsma, M. Valiev, H. J. J. van Dam, D. Wang, T. L. Windus,
        J. Hammond, J. Autschbach, K. Bhaskaran-Nair, J. Brabec, K. Lopata,
    S. A. Fischer, S. Krishnamoorthy, M. Jacquelin, W. Ma, M. Klemm, O. Villa,
      Y. Chen, V. Anisimov, F. Aquino, S. Hirata, M. T. Hackler, V. Konjkov,
            D. Mejia-Rodriguez, T. Risthaus, M. Malagoli, A. Marenich,
   A. Otero-de-la-Roza, J. Mullin, P. Nichols, R. Peverati, J. Pittner, Y. Zhao,
        P.-D. Fan, A. Fonari, M. J. Williamson, R. J. Harrison, J. R. Rehr,
      M. Dupuis, D. Silverstein, D. M. A. Smith, J. Nieplocha, V. Tipparaju,
    M. Krishnan, B. E. Van Kuiken, A. Vazquez-Mayagoitia, L. Jensen, M. Swart,
      Q. Wu, T. Van Voorhis, A. A. Auer, M. Nooijen, L. D. Crosby, E. Brown,
      G. Cisneros, G. I. Fann, H. Fruchtl, J. Garza, K. Hirao, R. A. Kendall,
      J. A. Nichols, K. Tsemekhman, K. Wolinski, J. Anchell, D. E. Bernholdt,
      P. Borowski, T. Clark, D. Clerc, H. Dachsel, M. J. O. Deegan, K. Dyall,
    D. Elwood, E. Glendening, M. Gutowski, A. C. Hess, J. Jaffe, B. G. Johnson,
     J. Ju, R. Kobayashi, R. Kutteh, Z. Lin, R. Littlefield, X. Long, B. Meng,
      T. Nakajima, S. Niu, L. Pollack, M. Rosing, K. Glaesemann, G. Sandrone,
      M. Stave, H. Taylor, G. Thomas, J. H. van Lenthe, A. T. Wong, Z. Zhang.

 Total times  cpu:      703.7s     wall:      718.2s
