 argument  1 = methyloxirane_blyp-def2-tzvp_488.9_26.inp
 


============================== echo of input deck ==============================
echo
start methyloxirane_blyp-def2-tzvp_488.9_26.inp
title "methyloxirane roa calculations at 488.9 nm, input generated in va  with delta_type=2"
charge 0



geometry units angstrom nocenter noautoz noautosym nucleus point;symmetry c1
 O -0.875400 -0.180658  0.198416
 C  0.577762 -0.150664  0.121518
 C -0.189671  1.090157  0.347759
 C  1.183435 -0.526256 -1.211381
 H  1.061531 -0.597716  0.997222
 H -0.235658  1.527462  1.348864
 H -0.333040  1.793673 -0.476951
 H  2.240575 -0.227011 -1.257985
 H  1.134813 -1.614378 -1.357580
 H  0.644648 -0.044088 -2.036496
end

basis spherical
* library def2-TZVP
end

 set prop:newaoresp 1
 set aor:roadata T
 set cphf:maxsub 100
 set cphf:acc 1.0d-10
 set cphf:maxiter 100

property
    response 1   0.093196
    bdtensor
    convergence 1e-7
    damping 0.0037
    giao
end

dft
 direct
 mult 1
 xc becke88 lyp
 iterations 250
 tolerances tight
 grid xfine
 convergence nolevelshifting
 convergence energy 1e-8
 convergence gradient 1e-7


end

task dft gradient
task dft property
================================================================================


                                         
                                         
 
 
              Northwest Computational Chemistry Package (NWChem) 6.8
              ------------------------------------------------------
 
 
                    Environmental Molecular Sciences Laboratory
                       Pacific Northwest National Laboratory
                                Richland, WA 99352
 
                              Copyright (c) 1994-2017
                       Pacific Northwest National Laboratory
                            Battelle Memorial Institute
 
             NWChem is an open-source computational chemistry package
                        distributed under the terms of the
                      Educational Community License (ECL) 2.0
             A copy of the license is included with this distribution
                              in the LICENSE.TXT file
 
                                  ACKNOWLEDGMENT
                                  --------------

            This software and its documentation were developed at the
            EMSL at Pacific Northwest National Laboratory, a multiprogram
            national laboratory, operated for the U.S. Department of Energy
            by Battelle under Contract Number DE-AC05-76RL01830. Support
            for this work was provided by the Department of Energy Office
            of Biological and Environmental Research, Office of Basic
            Energy Sciences, and the Office of Advanced Scientific Computing.


           Job information
           ---------------

    hostname        = cpn-f15-33.cbls.ccr.buffalo.edu
    program         = /util/academic/nwchem/nwchem-6.8/bin/LINUX64/nwchem
    date            = Fri Mar  1 10:23:14 2019

    compiled        = Tue_Nov_06_14:59:08_2018
    source          = /util/academic/nwchem/nwchem-6.8
    nwchem branch   = 6.8
    nwchem revision = v6.8-47-gdf6c956
    ga revision     = ga-5.6.3
    use scalapack   = F
    input           = methyloxirane_blyp-def2-tzvp_488.9_26.inp
    prefix          = methyloxirane_blyp-def2-tzvp_488.9_26.inp.
    data base       = ./methyloxirane_blyp-def2-tzvp_488.9_26.inp.db
    status          = startup
    nproc           =        7
    time left       =     -1s



           Memory information
           ------------------

    heap     =   13107200 doubles =    100.0 Mbytes
    stack    =   13107197 doubles =    100.0 Mbytes
    global   =   26214400 doubles =    200.0 Mbytes (distinct from heap & stack)
    total    =   52428797 doubles =    400.0 Mbytes
    verify   = yes
    hardfail = no 


           Directory information
           ---------------------
 
  0 permanent = .
  0 scratch   = .
 
 
 
 
                                NWChem Input Module
                                -------------------
 
 
                    methyloxirane roa calculations at 488.9 nm, input generated in va  with delta_type=2
                    ------------------------------------------

 Scaling coordinates for geometry "geometry" by  1.889725989
 (inverse scale =  0.529177249)

 
 
                             Geometry "geometry" -> ""
                             -------------------------
 
 Output coordinates in angstroms (scale by  1.889725989 to convert to a.u.)
 
  No.       Tag          Charge          X              Y              Z
 ---- ---------------- ---------- -------------- -------------- --------------
    1 O                    8.0000    -0.87540000    -0.18065800     0.19841600
    2 C                    6.0000     0.57776200    -0.15066400     0.12151800
    3 C                    6.0000    -0.18967100     1.09015700     0.34775900
    4 C                    6.0000     1.18343500    -0.52625600    -1.21138100
    5 H                    1.0000     1.06153100    -0.59771600     0.99722200
    6 H                    1.0000    -0.23565800     1.52746200     1.34886400
    7 H                    1.0000    -0.33304000     1.79367300    -0.47695100
    8 H                    1.0000     2.24057500    -0.22701100    -1.25798500
    9 H                    1.0000     1.13481300    -1.61437800    -1.35758000
   10 H                    1.0000     0.64464800    -0.04408800    -2.03649600
 
      Atomic Mass 
      ----------- 
 
      O                 15.994910
      C                 12.000000
      H                  1.007825
 

 Effective nuclear repulsion energy (a.u.)     123.5242150172

            Nuclear Dipole moment (a.u.) 
            ----------------------------
        X                 Y               Z
 ---------------- ---------------- ----------------
    13.1124779327     3.5377560232   -10.6735919027
 
 
            XYZ format geometry
            -------------------
    10
 geometry
 O                    -0.87540000    -0.18065800     0.19841600
 C                     0.57776200    -0.15066400     0.12151800
 C                    -0.18967100     1.09015700     0.34775900
 C                     1.18343500    -0.52625600    -1.21138100
 H                     1.06153100    -0.59771600     0.99722200
 H                    -0.23565800     1.52746200     1.34886400
 H                    -0.33304000     1.79367300    -0.47695100
 H                     2.24057500    -0.22701100    -1.25798500
 H                     1.13481300    -1.61437800    -1.35758000
 H                     0.64464800    -0.04408800    -2.03649600
 
 ==============================================================================
                                internuclear distances
 ------------------------------------------------------------------------------
       center one      |      center two      | atomic units |  angstroms
 ------------------------------------------------------------------------------
    2 C                |   1 O                |     2.75050  |     1.45550
    3 C                |   1 O                |     2.74336  |     1.45172
    3 C                |   2 C                |     2.79000  |     1.47641
    4 C                |   2 C                |     2.85626  |     1.51147
    5 H                |   2 C                |     2.07073  |     1.09579
    6 H                |   3 C                |     2.06626  |     1.09342
    7 H                |   3 C                |     2.06632  |     1.09345
    8 H                |   4 C                |     2.07807  |     1.09967
    9 H                |   4 C                |     2.07676  |     1.09898
   10 H                |   4 C                |     2.07319  |     1.09708
 ------------------------------------------------------------------------------
                         number of included internuclear distances:         10
 ==============================================================================



 ==============================================================================
                                 internuclear angles
 ------------------------------------------------------------------------------
        center 1       |       center 2       |       center 3       |  degrees
 ------------------------------------------------------------------------------
    2 C                |   1 O                |   3 C                |    61.04
    2 C                |   1 O                |   3 C                |    61.04
    1 O                |   2 C                |   4 C                |   116.20
    1 O                |   2 C                |   5 H                |   112.96
    3 C                |   2 C                |   4 C                |   123.52
    3 C                |   2 C                |   5 H                |   116.74
    4 C                |   2 C                |   5 H                |   115.24
    3 C                |   1 O                |   2 C                |    61.04
    1 O                |   3 C                |   6 H                |   115.11
    1 O                |   3 C                |   7 H                |   115.07
    2 C                |   3 C                |   6 H                |   119.89
    2 C                |   3 C                |   7 H                |   119.56
    6 H                |   3 C                |   7 H                |   115.32
    2 C                |   4 C                |   8 H                |   110.79
    2 C                |   4 C                |   9 H                |   110.22
    2 C                |   4 C                |  10 H                |   110.93
    8 H                |   4 C                |   9 H                |   107.84
    8 H                |   4 C                |  10 H                |   108.70
    9 H                |   4 C                |  10 H                |   108.26
 ------------------------------------------------------------------------------
                            number of included internuclear angles:         19
 ==============================================================================



  warning:::::::::::::: from_environment
  NWCHEM_BASIS_LIBRARY set to: <
 /util/academic/nwchem/nwchem-6.8/src/basis/libraries>
  but file does not exist !
  using .nwchemrc or compiled library


 Summary of "ao basis" -> "" (spherical)
 ------------------------------------------------------------------------------
       Tag                 Description            Shells   Functions and Types
 ---------------- ------------------------------  ------  ---------------------
 *                         def2-TZVP                  on all atoms 


 
                                 NWChem DFT Module
                                 -----------------
 
 
                    methyloxirane roa calculations at 488.9 nm, input generated in va  with delta_type=2
 
 
                      Basis "ao basis" -> "ao basis" (spherical)
                      -----
  O (Oxygen)
  ----------
            Exponent  Coefficients 
       -------------- ---------------------------------------------------------
  1 S  2.70323826E+04  0.000217
  1 S  4.05238714E+03  0.001684
  1 S  9.22327227E+02  0.008740
  1 S  2.61240710E+02  0.035240
  1 S  8.53546414E+01  0.111535
  1 S  3.10350352E+01  0.255890
 
  2 S  1.22608607E+01  0.397687
  2 S  4.99870760E+00  0.246278
 
  3 S  1.17031082E+00  1.000000
 
  4 S  4.64747410E-01  1.000000
 
  5 S  1.85045364E-01  1.000000
 
  6 P  6.32749548E+01  0.006069
  6 P  1.46270494E+01  0.041913
  6 P  4.45012235E+00  0.161538
  6 P  1.52757996E+00  0.357070
 
  7 P  5.29351179E-01  1.000000
 
  8 P  1.74784213E-01  1.000000
 
  9 D  2.31400000E+00  1.000000
 
 10 D  6.45000000E-01  1.000000
 
 11 F  1.42800000E+00  1.000000
 
  C (Carbon)
  ----------
            Exponent  Coefficients 
       -------------- ---------------------------------------------------------
  1 S  1.35753497E+04  0.000222
  1 S  2.03523337E+03  0.001723
  1 S  4.63225624E+02  0.008926
  1 S  1.31200196E+02  0.035728
  1 S  4.28530159E+01  0.110763
  1 S  1.55841858E+01  0.242956
 
  2 S  6.20671385E+00  0.414403
  2 S  2.57648965E+00  0.237450
 
  3 S  5.76963394E-01  1.000000
 
  4 S  2.29728314E-01  1.000000
 
  5 S  9.51644400E-02  1.000000
 
  6 P  3.46972322E+01  0.005333
  6 P  7.95826228E+00  0.035864
  6 P  2.37808269E+00  0.142159
  6 P  8.14332082E-01  0.342705
 
  7 P  2.88875473E-01  1.000000
 
  8 P  1.00568237E-01  1.000000
 
  9 D  1.09700000E+00  1.000000
 
 10 D  3.18000000E-01  1.000000
 
 11 F  7.61000000E-01  1.000000
 
  H (Hydrogen)
  ------------
            Exponent  Coefficients 
       -------------- ---------------------------------------------------------
  1 S  3.40613410E+01  0.006025
  1 S  5.12357460E+00  0.045021
  1 S  1.16466260E+00  0.201897
 
  2 S  3.27230410E-01  1.000000
 
  3 S  1.03072410E-01  1.000000
 
  4 P  8.00000000E-01  1.000000
 


 Summary of "ao basis" -> "ao basis" (spherical)
 ------------------------------------------------------------------------------
       Tag                 Description            Shells   Functions and Types
 ---------------- ------------------------------  ------  ---------------------
 O                         def2-TZVP                11       31   5s3p2d1f
 C                         def2-TZVP                11       31   5s3p2d1f
 H                         def2-TZVP                 4        6   3s1p




 Summary of "ao basis" -> "ao basis" (spherical)
 ------------------------------------------------------------------------------
       Tag                 Description            Shells   Functions and Types
 ---------------- ------------------------------  ------  ---------------------
 O                         def2-TZVP                11       31   5s3p2d1f
 C                         def2-TZVP                11       31   5s3p2d1f
 H                         def2-TZVP                 4        6   3s1p


  Caching 1-el integrals 
  itol2e modified to match energy
  convergence criterion.
  tol_rho modified to match energy
  convergence criterion.
 
            General Information
            -------------------
          SCF calculation type: DFT
          Wavefunction type:  closed shell.
          No. of atoms     :    10
          No. of electrons :    32
           Alpha electrons :    16
            Beta electrons :    16
          Charge           :     0
          Spin multiplicity:     1
          Use of symmetry is: off; symmetry adaption is: off
          Maximum number of iterations: 250
          This is a Direct SCF calculation.
          AO basis - number of functions:   160
                     number of shells:    68
          Convergence on energy requested:  1.00D-08
          Convergence on density requested:  1.00D-05
          Convergence on gradient requested:  1.00D-07
 
              XC Information
              --------------
                    Becke 1988 Exchange Functional  1.000          
              Lee-Yang-Parr Correlation Functional  1.000          
 
             Grid Information
             ----------------
          Grid used for XC integration:  xfine     
          Radial quadrature: Mura-Knowles        
          Angular quadrature: Lebedev. 
          Tag              B.-S. Rad. Rad. Pts. Rad. Cut. Ang. Pts.
          ---              ---------- --------- --------- ---------
          O                   0.60      100          11.0      1454
          C                   0.70      100          11.0      1454
          H                   0.35      100          12.0      1202
          Grid pruning is: on 
          Number of quadrature shells:  1000
          Spatial weights used:  Erf1
 
          Convergence Information
          -----------------------
          Convergence aids based upon iterative change in 
          total energy or number of iterations. 
          Levelshifting, if invoked, occurs when the 
          HOMO/LUMO gap drops below (HL_TOL):  1.00D-02
          DIIS, if invoked, will attempt to extrapolate 
          using up to (NFOCK): 10 stored Fock matrices.

                    Damping( 0%)  Levelshifting(0.0)       DIIS
                  --------------- ------------------- ---------------
          dE  on:    start             N/A                start   
          dE off:    2 iters           N/A              250 iters 

 
      Screening Tolerance Information
      -------------------------------
          Density screening/tol_rho:  1.00D-11
          AO Gaussian exp screening on grid/accAOfunc:  18
          CD Gaussian exp screening on grid/accCDfunc:  20
          XC Gaussian exp screening on grid/accXCfunc:  20
          Schwarz screening/accCoul:  1.00D-09

 
      Superposition of Atomic Density Guess
      -------------------------------------
 
 Sum of atomic energies:        -190.79714706
 
      Non-variational initial energy
      ------------------------------

 Total energy =    -193.160527
 1-e energy   =    -502.011012
 2-e energy   =     185.326270
 HOMO         =      -0.350982
 LUMO         =       0.090800
 
   Time after variat. SCF:      0.5
   Time prior to 1st pass:      0.5

 Grid_pts file          = ./methyloxirane_blyp-def2-tzvp_488.9_26.inp.gridpts.0
 Record size in doubles =  12289        No. of grid_pts per rec  =   3070
 Max. records in memory =     76        Max. recs in file   =   1218515


           Memory utilization after 1st SCF pass: 
           Heap Space remaining (MW):       12.17            12167544
          Stack Space remaining (MW):       13.11            13106116

   convergence    iter        energy       DeltaE   RMS-Dens  Diis-err    time
 ---------------- ----- ----------------- --------- --------- ---------  ------
 d= 0,ls=0.0,diis     1   -193.0200319854 -3.17D+02  9.09D-03  1.06D+00     4.6
 d= 0,ls=0.0,diis     2   -192.8572748703  1.63D-01  7.49D-03  2.57D+00     8.5
 d= 0,ls=0.0,diis     3   -193.0772351734 -2.20D-01  1.81D-03  3.85D-01    12.4
 d= 0,ls=0.0,diis     4   -193.1072496013 -3.00D-02  6.87D-04  1.83D-02    16.3
 d= 0,ls=0.0,diis     5   -193.1089331219 -1.68D-03  2.92D-04  2.70D-03    20.2
 d= 0,ls=0.0,diis     6   -193.1092697439 -3.37D-04  3.02D-05  3.57D-05    24.1
 d= 0,ls=0.0,diis     7   -193.1092739881 -4.24D-06  8.71D-06  4.08D-06    28.0
 d= 0,ls=0.0,diis     8   -193.1092744480 -4.60D-07  1.91D-06  2.77D-07    31.9
 d= 0,ls=0.0,diis     9   -193.1092744789 -3.09D-08  5.82D-07  1.20D-08    35.8
 d= 0,ls=0.0,diis    10   -193.1092744804 -1.50D-09  1.21D-07  4.07D-10    39.7


         Total DFT energy =     -193.109274480368
      One electron energy =     -505.666947018308
           Coulomb energy =      216.053861259896
    Exchange-Corr. energy =      -27.020403739123
 Nuclear repulsion energy =      123.524215017167

 Numeric. integr. density =       32.000000088729

     Total iterative time =     39.3s


 
                       DFT Final Molecular Orbital Analysis
                       ------------------------------------
 
 Vector    1  Occ=2.000000D+00  E=-1.877952D+01
              MO Center= -8.8D-01, -1.8D-01,  2.0D-01, r^2= 1.5D-02
   Bfn.  Coefficient  Atom+Function         Bfn.  Coefficient  Atom+Function  
  ----- ------------  ---------------      ----- ------------  ---------------
     2      0.638478   1 O  s                 1      0.435422   1 O  s         
     3      0.039876   1 O  s                 4     -0.033190   1 O  s         
 
 Vector    2  Occ=2.000000D+00  E=-9.963270D+00
              MO Center=  5.8D-01, -1.5D-01,  1.2D-01, r^2= 2.8D-02
   Bfn.  Coefficient  Atom+Function         Bfn.  Coefficient  Atom+Function  
  ----- ------------  ---------------      ----- ------------  ---------------
    33      0.606910   2 C  s                32      0.467262   2 C  s         
    34      0.042599   2 C  s                36      0.037378   2 C  s         
    35     -0.027731   2 C  s         
 
 Vector    3  Occ=2.000000D+00  E=-9.955885D+00
              MO Center= -1.9D-01,  1.1D+00,  3.5D-01, r^2= 2.8D-02
   Bfn.  Coefficient  Atom+Function         Bfn.  Coefficient  Atom+Function  
  ----- ------------  ---------------      ----- ------------  ---------------
    64      0.607026   3 C  s                63      0.467223   3 C  s         
    65      0.039706   3 C  s         
 
 Vector    4  Occ=2.000000D+00  E=-9.907915D+00
              MO Center=  1.2D+00, -5.3D-01, -1.2D+00, r^2= 2.8D-02
   Bfn.  Coefficient  Atom+Function         Bfn.  Coefficient  Atom+Function  
  ----- ------------  ---------------      ----- ------------  ---------------
    95      0.606960   4 C  s                94      0.467215   4 C  s         
    96      0.040594   4 C  s                98      0.035746   4 C  s         
 
 Vector    5  Occ=2.000000D+00  E=-9.625814D-01
              MO Center= -4.7D-01,  5.7D-02,  2.1D-01, r^2= 6.5D-01
   Bfn.  Coefficient  Atom+Function         Bfn.  Coefficient  Atom+Function  
  ----- ------------  ---------------      ----- ------------  ---------------
     4      0.375250   1 O  s                 3      0.277426   1 O  s         
     2     -0.192799   1 O  s                34      0.139735   2 C  s         
    65      0.139120   3 C  s                 5      0.122771   1 O  s         
    35      0.105177   2 C  s                 6      0.093007   1 O  px        
    66      0.093400   3 C  s                69     -0.091384   3 C  py        
 
 Vector    6  Occ=2.000000D+00  E=-6.694186D-01
              MO Center=  9.4D-01, -4.0D-01, -7.7D-01, r^2= 1.5D+00
   Bfn.  Coefficient  Atom+Function         Bfn.  Coefficient  Atom+Function  
  ----- ------------  ---------------      ----- ------------  ---------------
    97      0.285604   4 C  s                96      0.276846   4 C  s         
    35      0.185480   2 C  s                34      0.174315   2 C  s         
    95     -0.174290   4 C  s                 4     -0.146006   1 O  s         
    33     -0.108920   2 C  s                 3     -0.102150   1 O  s         
    94     -0.083508   4 C  s                 5     -0.072467   1 O  s         
 
 Vector    7  Occ=2.000000D+00  E=-5.900111D-01
              MO Center= -1.3D-01,  7.2D-01,  2.3D-01, r^2= 1.9D+00
   Bfn.  Coefficient  Atom+Function         Bfn.  Coefficient  Atom+Function  
  ----- ------------  ---------------      ----- ------------  ---------------
    66      0.325585   3 C  s                65      0.278130   3 C  s         
     4     -0.239479   1 O  s                64     -0.171864   3 C  s         
     3     -0.169046   1 O  s                 5     -0.148521   1 O  s         
     2      0.111640   1 O  s                38      0.104421   2 C  py        
   132      0.102789   6 H  s               138      0.097963   7 H  s         
 
 Vector    8  Occ=2.000000D+00  E=-5.297986D-01
              MO Center=  4.1D-01,  1.9D-02, -9.7D-02, r^2= 2.7D+00
   Bfn.  Coefficient  Atom+Function         Bfn.  Coefficient  Atom+Function  
  ----- ------------  ---------------      ----- ------------  ---------------
    35      0.302790   2 C  s                34      0.224471   2 C  s         
    97     -0.155436   4 C  s                66     -0.153927   3 C  s         
    33     -0.138095   2 C  s               126      0.132448   5 H  s         
    96     -0.129000   4 C  s                 6      0.107155   1 O  px        
   125      0.105915   5 H  s                65     -0.100008   3 C  s         
 
 Vector    9  Occ=2.000000D+00  E=-4.474761D-01
              MO Center=  1.1D-01,  2.8D-01,  2.5D-01, r^2= 2.5D+00
   Bfn.  Coefficient  Atom+Function         Bfn.  Coefficient  Atom+Function  
  ----- ------------  ---------------      ----- ------------  ---------------
    70      0.210630   3 C  pz               39      0.155367   2 C  pz        
   132      0.144556   6 H  s                73      0.132420   3 C  pz        
     8      0.126874   1 O  pz              126      0.115709   5 H  s         
     6     -0.111505   1 O  px               38     -0.107180   2 C  py        
   131      0.107239   6 H  s                37      0.104405   2 C  px        
 
 Vector   10  Occ=2.000000D+00  E=-4.137884D-01
              MO Center=  5.2D-02,  2.9D-01, -2.4D-01, r^2= 2.6D+00
   Bfn.  Coefficient  Atom+Function         Bfn.  Coefficient  Atom+Function  
  ----- ------------  ---------------      ----- ------------  ---------------
    69      0.216648   3 C  py              101      0.155548   4 C  pz        
   138      0.154257   7 H  s                 6     -0.141108   1 O  px        
    38     -0.139534   2 C  py               37      0.128479   2 C  px        
     7     -0.122322   1 O  py               72      0.122297   3 C  py        
    70     -0.114232   3 C  pz                9     -0.112748   1 O  px        
 
 Vector   11  Occ=2.000000D+00  E=-3.768857D-01
              MO Center=  9.0D-01, -3.1D-01, -7.3D-01, r^2= 2.7D+00
   Bfn.  Coefficient  Atom+Function         Bfn.  Coefficient  Atom+Function  
  ----- ------------  ---------------      ----- ------------  ---------------
    99      0.212097   4 C  px              144      0.185075   8 H  s         
   100      0.162092   4 C  py              150     -0.138311   9 H  s         
   102      0.135901   4 C  px              143      0.129579   8 H  s         
    37      0.128580   2 C  px                6     -0.118701   1 O  px        
     7      0.115781   1 O  py              103      0.107307   4 C  py        
 
 Vector   12  Occ=2.000000D+00  E=-3.559898D-01
              MO Center=  6.0D-01, -3.6D-01, -8.8D-01, r^2= 2.9D+00
   Bfn.  Coefficient  Atom+Function         Bfn.  Coefficient  Atom+Function  
  ----- ------------  ---------------      ----- ------------  ---------------
   100      0.257728   4 C  py              150     -0.188878   9 H  s         
   156      0.174061  10 H  s               103      0.167202   4 C  py        
     7     -0.165158   1 O  py               10     -0.132142   1 O  py        
   149     -0.131553   9 H  s               155      0.123174  10 H  s         
    70      0.118746   3 C  pz              106      0.103494   4 C  py        
 
 Vector   13  Occ=2.000000D+00  E=-3.287005D-01
              MO Center=  3.2D-01,  2.5D-01, -2.2D-01, r^2= 2.8D+00
   Bfn.  Coefficient  Atom+Function         Bfn.  Coefficient  Atom+Function  
  ----- ------------  ---------------      ----- ------------  ---------------
    39      0.214662   2 C  pz              101     -0.194190   4 C  pz        
     7     -0.174946   1 O  py               70     -0.167618   3 C  pz        
   138      0.160990   7 H  s                42      0.145765   2 C  pz        
    10     -0.141092   1 O  py              104     -0.135916   4 C  pz        
    99      0.129326   4 C  px              137      0.108319   7 H  s         
 
 Vector   14  Occ=2.000000D+00  E=-3.211049D-01
              MO Center=  4.1D-01, -6.0D-02, -2.4D-01, r^2= 3.0D+00
   Bfn.  Coefficient  Atom+Function         Bfn.  Coefficient  Atom+Function  
  ----- ------------  ---------------      ----- ------------  ---------------
     7      0.199301   1 O  py               10      0.163503   1 O  py        
   126      0.163114   5 H  s                99     -0.157806   4 C  px        
   156      0.154525  10 H  s                 6     -0.148548   1 O  px        
    39      0.134064   2 C  pz               37      0.131617   2 C  px        
   144     -0.131508   8 H  s               101     -0.123430   4 C  pz        
 
 Vector   15  Occ=2.000000D+00  E=-2.635996D-01
              MO Center=  1.3D-02,  1.5D-01,  3.5D-02, r^2= 2.3D+00
   Bfn.  Coefficient  Atom+Function         Bfn.  Coefficient  Atom+Function  
  ----- ------------  ---------------      ----- ------------  ---------------
    68      0.264039   3 C  px               38      0.256369   2 C  py        
     6     -0.237090   1 O  px               41      0.200098   2 C  py        
    71      0.195995   3 C  px                9     -0.185468   1 O  px        
    12     -0.156509   1 O  px              150      0.114271   9 H  s         
   100     -0.110988   4 C  py               67      0.108291   3 C  s         
 
 Vector   16  Occ=2.000000D+00  E=-2.194469D-01
              MO Center= -5.7D-01, -2.6D-02,  2.0D-01, r^2= 1.6D+00
   Bfn.  Coefficient  Atom+Function         Bfn.  Coefficient  Atom+Function  
  ----- ------------  ---------------      ----- ------------  ---------------
     8      0.448097   1 O  pz               11      0.356878   1 O  pz        
    14      0.296046   1 O  pz              133     -0.132915   6 H  s         
   139      0.116305   7 H  s               132     -0.104709   6 H  s         
   138      0.102516   7 H  s               145     -0.102312   8 H  s         
   126     -0.097783   5 H  s               127     -0.084499   5 H  s         
 
 Vector   17  Occ=0.000000D+00  E= 2.578582D-02
              MO Center=  1.2D+00, -1.2D-01, -5.9D-01, r^2= 7.3D+00
   Bfn.  Coefficient  Atom+Function         Bfn.  Coefficient  Atom+Function  
  ----- ------------  ---------------      ----- ------------  ---------------
    98      4.487475   4 C  s               151     -1.521586   9 H  s         
   145     -1.511074   8 H  s               157     -1.336350  10 H  s         
   127     -1.256655   5 H  s                45      1.138068   2 C  pz        
   139     -0.876733   7 H  s                67      0.726898   3 C  s         
   133     -0.630158   6 H  s                75      0.334934   3 C  py        
 
 Vector   18  Occ=0.000000D+00  E= 4.270252D-02
              MO Center= -1.2D-01,  6.7D-01,  1.2D-01, r^2= 4.5D+00
   Bfn.  Coefficient  Atom+Function         Bfn.  Coefficient  Atom+Function  
  ----- ------------  ---------------      ----- ------------  ---------------
    98     -2.124917   4 C  s                36      2.024572   2 C  s         
     5     -1.260521   1 O  s                74     -0.946429   3 C  px        
   151      0.808844   9 H  s                45     -0.470690   2 C  pz        
    13     -0.436239   1 O  py              157      0.427987  10 H  s         
    44      0.391875   2 C  py               67     -0.392964   3 C  s         
 
 Vector   19  Occ=0.000000D+00  E= 5.038608D-02
              MO Center=  3.4D-01,  5.8D-01, -1.2D-01, r^2= 6.5D+00
   Bfn.  Coefficient  Atom+Function         Bfn.  Coefficient  Atom+Function  
  ----- ------------  ---------------      ----- ------------  ---------------
    67      2.984025   3 C  s                36     -2.551609   2 C  s         
   127      1.647149   5 H  s               139     -1.651940   7 H  s         
   157     -0.707115  10 H  s                45     -0.596670   2 C  pz        
   145      0.583434   8 H  s                44     -0.547821   2 C  py        
     5     -0.516134   1 O  s                76     -0.451944   3 C  pz        
 
 Vector   20  Occ=0.000000D+00  E= 5.094071D-02
              MO Center=  6.2D-01,  4.6D-01,  4.2D-01, r^2= 7.7D+00
   Bfn.  Coefficient  Atom+Function         Bfn.  Coefficient  Atom+Function  
  ----- ------------  ---------------      ----- ------------  ---------------
    98      3.460773   4 C  s                67     -2.362326   3 C  s         
   133      1.811507   6 H  s               127      1.347303   5 H  s         
   157     -1.194735  10 H  s                36     -1.139612   2 C  s         
   145     -1.138907   8 H  s                44      1.029613   2 C  py        
    43     -0.713458   2 C  px              151     -0.699014   9 H  s         
 
 Vector   21  Occ=0.000000D+00  E= 6.431111D-02
              MO Center=  2.6D-01,  1.4D-01, -1.6D-01, r^2= 4.8D+00
   Bfn.  Coefficient  Atom+Function         Bfn.  Coefficient  Atom+Function  
  ----- ------------  ---------------      ----- ------------  ---------------
   139      1.267366   7 H  s                98      1.102953   4 C  s         
    67     -0.967341   3 C  s               151     -0.908869   9 H  s         
     5     -0.896823   1 O  s                43     -0.828913   2 C  px        
    75     -0.582973   3 C  py              133      0.553642   6 H  s         
    12     -0.487446   1 O  px              127     -0.409574   5 H  s         
 
 Vector   22  Occ=0.000000D+00  E= 8.611039D-02
              MO Center=  1.3D+00,  1.7D-01, -5.5D-01, r^2= 7.1D+00
   Bfn.  Coefficient  Atom+Function         Bfn.  Coefficient  Atom+Function  
  ----- ------------  ---------------      ----- ------------  ---------------
    36      2.793494   2 C  s               145      2.076467   8 H  s         
    67     -1.375624   3 C  s               157     -1.301066  10 H  s         
   127     -1.251497   5 H  s               133      1.152529   6 H  s         
   107     -1.083487   4 C  pz              105     -1.051301   4 C  px        
    98     -0.937887   4 C  s                75      0.758707   3 C  py        
 
 Vector   23  Occ=0.000000D+00  E= 9.193502D-02
              MO Center=  1.1D+00, -6.3D-01, -5.0D-01, r^2= 6.7D+00
   Bfn.  Coefficient  Atom+Function         Bfn.  Coefficient  Atom+Function  
  ----- ------------  ---------------      ----- ------------  ---------------
    36      2.692187   2 C  s               151      2.058811   9 H  s         
   145     -1.476929   8 H  s                98     -1.395639   4 C  s         
   106      1.117555   4 C  py              105      1.074058   4 C  px        
   133      0.962121   6 H  s                67     -0.949933   3 C  s         
   127     -0.894339   5 H  s               107     -0.777718   4 C  pz        
 
 Vector   24  Occ=0.000000D+00  E= 1.020484D-01
              MO Center=  4.1D-01,  4.3D-01, -1.1D+00, r^2= 6.8D+00
   Bfn.  Coefficient  Atom+Function         Bfn.  Coefficient  Atom+Function  
  ----- ------------  ---------------      ----- ------------  ---------------
   157      2.043014  10 H  s               133      1.602538   6 H  s         
   139     -1.488083   7 H  s               106     -1.450746   4 C  py        
    98     -1.413871   4 C  s               151     -1.393886   9 H  s         
    36      1.273813   2 C  s                76     -1.153298   3 C  pz        
   105      0.991806   4 C  px               45     -0.509979   2 C  pz        
 
 Vector   25  Occ=0.000000D+00  E= 1.387855D-01
              MO Center=  8.1D-01,  1.8D-01, -4.4D-01, r^2= 7.9D+00
   Bfn.  Coefficient  Atom+Function         Bfn.  Coefficient  Atom+Function  
  ----- ------------  ---------------      ----- ------------  ---------------
    36      4.706853   2 C  s                98     -3.618306   4 C  s         
    45     -3.446566   2 C  pz               67     -2.779365   3 C  s         
   127      2.741959   5 H  s                76      2.202546   3 C  pz        
   105      2.095965   4 C  px              133     -1.799050   6 H  s         
   139      1.695757   7 H  s               107     -1.562476   4 C  pz        
 
 Vector   26  Occ=0.000000D+00  E= 1.700332D-01
              MO Center=  4.3D-01,  5.5D-01, -1.5D-01, r^2= 7.3D+00
   Bfn.  Coefficient  Atom+Function         Bfn.  Coefficient  Atom+Function  
  ----- ------------  ---------------      ----- ------------  ---------------
    75      2.358173   3 C  py               67     -1.650414   3 C  s         
   107      1.656306   4 C  pz               36      1.576601   2 C  s         
   139     -1.194032   7 H  s               157      1.083877  10 H  s         
    74     -1.008494   3 C  px               44      0.796926   2 C  py        
    43     -0.664413   2 C  px              106     -0.581579   4 C  py        
 
 Vector   27  Occ=0.000000D+00  E= 1.976197D-01
              MO Center=  8.6D-01, -7.8D-02, -9.7D-01, r^2= 5.2D+00
   Bfn.  Coefficient  Atom+Function         Bfn.  Coefficient  Atom+Function  
  ----- ------------  ---------------      ----- ------------  ---------------
    67      3.063824   3 C  s                44     -2.566681   2 C  py        
   106      2.000703   4 C  py               36     -1.418718   2 C  s         
    43      0.980201   2 C  px               45     -0.722212   2 C  pz        
    74      0.682505   3 C  px              105      0.671509   4 C  px        
   150      0.653631   9 H  s               157     -0.644285  10 H  s         
 
 Vector   28  Occ=0.000000D+00  E= 2.024947D-01
              MO Center=  9.2D-01, -4.6D-01, -6.8D-01, r^2= 6.6D+00
   Bfn.  Coefficient  Atom+Function         Bfn.  Coefficient  Atom+Function  
  ----- ------------  ---------------      ----- ------------  ---------------
    36      2.639776   2 C  s                75      1.672490   3 C  py        
   105     -1.477709   4 C  px              133     -1.216698   6 H  s         
   107     -0.880505   4 C  pz               45      0.818296   2 C  pz        
   139     -0.755870   7 H  s               156     -0.715927  10 H  s         
   106      0.712026   4 C  py               76      0.662645   3 C  pz        
 
 Vector   29  Occ=0.000000D+00  E= 2.361024D-01
              MO Center= -3.1D-01,  3.9D-01, -3.8D-02, r^2= 5.4D+00
   Bfn.  Coefficient  Atom+Function         Bfn.  Coefficient  Atom+Function  
  ----- ------------  ---------------      ----- ------------  ---------------
    67      4.481338   3 C  s                36     -3.102344   2 C  s         
   139     -1.532547   7 H  s                66     -1.454129   3 C  s         
    98      1.319695   4 C  s               133     -1.207917   6 H  s         
   107      0.982628   4 C  pz               74     -0.800885   3 C  px        
     5     -0.754952   1 O  s               106      0.708074   4 C  py        
 
 Vector   30  Occ=0.000000D+00  E= 2.478291D-01
              MO Center=  5.4D-01,  1.1D-02, -9.9D-02, r^2= 5.8D+00
   Bfn.  Coefficient  Atom+Function         Bfn.  Coefficient  Atom+Function  
  ----- ------------  ---------------      ----- ------------  ---------------
    67      6.094545   3 C  s                43      4.182031   2 C  px        
    75     -2.992172   3 C  py               44     -2.647337   2 C  py        
    36     -2.154833   2 C  s               107     -2.032701   4 C  pz        
   157     -1.817176  10 H  s                45     -1.465361   2 C  pz        
    98     -1.354046   4 C  s               105     -1.207386   4 C  px        
 
 Vector   31  Occ=0.000000D+00  E= 2.695733D-01
              MO Center=  3.0D-01, -1.5D-01,  2.5D-01, r^2= 5.6D+00
   Bfn.  Coefficient  Atom+Function         Bfn.  Coefficient  Atom+Function  
  ----- ------------  ---------------      ----- ------------  ---------------
    36      4.411188   2 C  s                 5     -2.212750   1 O  s         
    67      2.150270   3 C  s                43     -1.617551   2 C  px        
   105      1.563885   4 C  px               66     -1.199293   3 C  s         
    98     -1.186299   4 C  s               133     -0.942900   6 H  s         
   139     -0.914224   7 H  s               127     -0.850211   5 H  s         
 
 Vector   32  Occ=0.000000D+00  E= 2.775548D-01
              MO Center=  4.0D-01,  3.1D-01,  3.0D-01, r^2= 4.2D+00
   Bfn.  Coefficient  Atom+Function         Bfn.  Coefficient  Atom+Function  
  ----- ------------  ---------------      ----- ------------  ---------------
    36      2.731053   2 C  s                 5     -1.766174   1 O  s         
    67     -1.727513   3 C  s                43     -1.308573   2 C  px        
    98     -0.824599   4 C  s                74     -0.732957   3 C  px        
    45     -0.681568   2 C  pz              145      0.592062   8 H  s         
     4      0.496205   1 O  s                66      0.391749   3 C  s         
 
 Vector   33  Occ=0.000000D+00  E= 2.993113D-01
              MO Center=  4.7D-01,  3.7D-01, -4.0D-01, r^2= 5.0D+00
   Bfn.  Coefficient  Atom+Function         Bfn.  Coefficient  Atom+Function  
  ----- ------------  ---------------      ----- ------------  ---------------
    43      1.949698   2 C  px               98     -1.787165   4 C  s         
   106      1.738430   4 C  py              151      1.671748   9 H  s         
    44     -1.293489   2 C  py               36     -1.251974   2 C  s         
    76      1.242604   3 C  pz              107     -1.100704   4 C  pz        
    66      1.015098   3 C  s               139      0.905927   7 H  s         
 
 Vector   34  Occ=0.000000D+00  E= 3.377504D-01
              MO Center=  1.0D-01,  4.2D-01, -4.1D-01, r^2= 5.8D+00
   Bfn.  Coefficient  Atom+Function         Bfn.  Coefficient  Atom+Function  
  ----- ------------  ---------------      ----- ------------  ---------------
    67      4.244730   3 C  s                76     -3.949951   3 C  pz        
   139     -3.156033   7 H  s                36     -2.087178   2 C  s         
   133      2.006731   6 H  s               157     -1.749042  10 H  s         
    98      1.730791   4 C  s               107     -1.713228   4 C  pz        
    43      1.224137   2 C  px               44     -0.978813   2 C  py        
 
 Vector   35  Occ=0.000000D+00  E= 3.624786D-01
              MO Center=  7.3D-01,  1.9D-02, -3.0D-01, r^2= 6.8D+00
   Bfn.  Coefficient  Atom+Function         Bfn.  Coefficient  Atom+Function  
  ----- ------------  ---------------      ----- ------------  ---------------
    98      7.181000   4 C  s                76      3.398769   3 C  pz        
   145     -3.165256   8 H  s                97     -3.039526   4 C  s         
   133     -2.370780   6 H  s                36      1.831426   2 C  s         
   151     -1.825618   9 H  s               139      1.774066   7 H  s         
    67     -1.642040   3 C  s                45     -1.611476   2 C  pz        
 
 Vector   36  Occ=0.000000D+00  E= 3.724858D-01
              MO Center=  5.5D-01,  2.4D-01, -1.0D-01, r^2= 6.5D+00
   Bfn.  Coefficient  Atom+Function         Bfn.  Coefficient  Atom+Function  
  ----- ------------  ---------------      ----- ------------  ---------------
    36     12.624942   2 C  s                98     -9.007223   4 C  s         
    67     -8.313476   3 C  s               127     -3.112588   5 H  s         
    97      2.564938   4 C  s               157      2.374667  10 H  s         
    44      1.892638   2 C  py               35     -1.849164   2 C  s         
   151      1.749476   9 H  s                74     -1.586641   3 C  px        
 
 Vector   37  Occ=0.000000D+00  E= 3.846979D-01
              MO Center=  9.0D-01, -3.5D-01, -1.0D-01, r^2= 6.2D+00
   Bfn.  Coefficient  Atom+Function         Bfn.  Coefficient  Atom+Function  
  ----- ------------  ---------------      ----- ------------  ---------------
    36      6.099117   2 C  s                98      4.631632   4 C  s         
   127     -4.138925   5 H  s                45      3.120855   2 C  pz        
    67     -2.856716   3 C  s               151     -2.323190   9 H  s         
    35     -2.221698   2 C  s                76     -2.136270   3 C  pz        
   145     -2.068392   8 H  s               133      1.775339   6 H  s         
 
 Vector   38  Occ=0.000000D+00  E= 3.948666D-01
              MO Center=  2.4D-01,  2.0D-01, -9.6D-02, r^2= 6.5D+00
   Bfn.  Coefficient  Atom+Function         Bfn.  Coefficient  Atom+Function  
  ----- ------------  ---------------      ----- ------------  ---------------
    98     11.933289   4 C  s                67     -6.509636   3 C  s         
    45      5.016166   2 C  pz               76     -2.880236   3 C  pz        
    44      2.660138   2 C  py              157     -2.628015  10 H  s         
   133      2.580266   6 H  s                43     -2.158474   2 C  px        
    75      1.941244   3 C  py               97     -1.748619   4 C  s         
 
 Vector   39  Occ=0.000000D+00  E= 4.022962D-01
              MO Center= -2.8D-01,  1.9D-01,  1.9D-01, r^2= 6.4D+00
   Bfn.  Coefficient  Atom+Function         Bfn.  Coefficient  Atom+Function  
  ----- ------------  ---------------      ----- ------------  ---------------
    67    -12.064869   3 C  s                36     11.708055   2 C  s         
    45     -5.140931   2 C  pz               98     -5.064793   4 C  s         
    44      3.814515   2 C  py              127      2.878623   5 H  s         
    66      2.730295   3 C  s               139      2.545152   7 H  s         
    43     -2.421894   2 C  px              105      2.230083   4 C  px        
 
 Vector   40  Occ=0.000000D+00  E= 4.150498D-01
              MO Center=  8.2D-01, -3.4D-01, -8.4D-01, r^2= 5.9D+00
   Bfn.  Coefficient  Atom+Function         Bfn.  Coefficient  Atom+Function  
  ----- ------------  ---------------      ----- ------------  ---------------
    98      7.207837   4 C  s                36     -3.561833   2 C  s         
    45      3.189950   2 C  pz              105     -2.625492   4 C  px        
   151     -2.323283   9 H  s               157     -2.072933  10 H  s         
   145      1.825901   8 H  s                97     -1.115633   4 C  s         
   127     -1.001046   5 H  s               144     -0.979714   8 H  s         
 
 Vector   41  Occ=0.000000D+00  E= 4.268785D-01
              MO Center=  4.7D-01,  1.9D-01, -1.3D-01, r^2= 6.8D+00
   Bfn.  Coefficient  Atom+Function         Bfn.  Coefficient  Atom+Function  
  ----- ------------  ---------------      ----- ------------  ---------------
    36      9.813244   2 C  s                67     -4.941447   3 C  s         
    98     -4.637362   4 C  s                44      2.683741   2 C  py        
    75      2.598852   3 C  py              151      2.394016   9 H  s         
    43     -1.829047   2 C  px               45     -1.797923   2 C  pz        
    74     -1.498751   3 C  px              105      1.356035   4 C  px        
 
 Vector   42  Occ=0.000000D+00  E= 4.464472D-01
              MO Center=  1.1D-01, -1.4D-01, -2.0D-01, r^2= 6.1D+00
   Bfn.  Coefficient  Atom+Function         Bfn.  Coefficient  Atom+Function  
  ----- ------------  ---------------      ----- ------------  ---------------
    36      9.399762   2 C  s                98     -9.085818   4 C  s         
    45     -5.598921   2 C  pz              127      2.867115   5 H  s         
    67     -2.767172   3 C  s                76      2.607876   3 C  pz        
   106     -2.118487   4 C  py              157      2.121135  10 H  s         
    44      2.073592   2 C  py              133     -1.957753   6 H  s         
 
 Vector   43  Occ=0.000000D+00  E= 4.594933D-01
              MO Center=  8.1D-02,  7.8D-01, -5.4D-01, r^2= 5.1D+00
   Bfn.  Coefficient  Atom+Function         Bfn.  Coefficient  Atom+Function  
  ----- ------------  ---------------      ----- ------------  ---------------
   139      3.134244   7 H  s               157     -2.415239  10 H  s         
   107     -2.279743   4 C  pz               75     -2.245855   3 C  py        
    44     -1.745446   2 C  py               43      1.722400   2 C  px        
    45     -1.616253   2 C  pz              138     -1.428437   7 H  s         
    76      0.976965   3 C  pz               74      0.880473   3 C  px        
 
 Vector   44  Occ=0.000000D+00  E= 4.685537D-01
              MO Center=  4.5D-01,  2.0D-01,  3.4D-02, r^2= 5.7D+00
   Bfn.  Coefficient  Atom+Function         Bfn.  Coefficient  Atom+Function  
  ----- ------------  ---------------      ----- ------------  ---------------
    98      5.088033   4 C  s                36     -4.570686   2 C  s         
    45      2.132393   2 C  pz              145     -1.725629   8 H  s         
   107      1.613517   4 C  pz              133     -1.564527   6 H  s         
    67      1.267387   3 C  s                35      1.195820   2 C  s         
   132      1.149664   6 H  s               126     -1.066328   5 H  s         
 
 Vector   45  Occ=0.000000D+00  E= 5.083032D-01
              MO Center=  9.3D-01, -4.0D-01, -9.6D-01, r^2= 4.7D+00
   Bfn.  Coefficient  Atom+Function         Bfn.  Coefficient  Atom+Function  
  ----- ------------  ---------------      ----- ------------  ---------------
    98     11.369853   4 C  s                36     -7.616665   2 C  s         
    45      4.507201   2 C  pz              107      3.014912   4 C  pz        
   144     -1.357067   8 H  s               106      1.333103   4 C  py        
   156     -1.231803  10 H  s               127     -1.136541   5 H  s         
   150     -1.108556   9 H  s               105     -1.037039   4 C  px        
 
 Vector   46  Occ=0.000000D+00  E= 5.388676D-01
              MO Center=  7.9D-02, -4.1D-01, -4.9D-01, r^2= 4.3D+00
   Bfn.  Coefficient  Atom+Function         Bfn.  Coefficient  Atom+Function  
  ----- ------------  ---------------      ----- ------------  ---------------
    98     -7.326772   4 C  s                36      7.020241   2 C  s         
    45     -3.768390   2 C  pz               76      3.336982   3 C  pz        
   133     -1.799764   6 H  s               105      1.542712   4 C  px        
   139      1.541824   7 H  s               107     -1.518823   4 C  pz        
    14     -1.178378   1 O  pz                5     -1.135659   1 O  s         
 
 Vector   47  Occ=0.000000D+00  E= 6.564616D-01
              MO Center= -4.1D-01,  3.5D-02, -2.4D-02, r^2= 4.3D+00
   Bfn.  Coefficient  Atom+Function         Bfn.  Coefficient  Atom+Function  
  ----- ------------  ---------------      ----- ------------  ---------------
    36     11.928763   2 C  s                67     -9.214677   3 C  s         
    98     -4.196797   4 C  s                43     -2.658180   2 C  px        
    75      2.473904   3 C  py               13      2.293290   1 O  py        
    76      2.151089   3 C  pz              105      1.629182   4 C  px        
   139      1.564127   7 H  s                44      1.473830   2 C  py        
 
 Vector   48  Occ=0.000000D+00  E= 6.746445D-01
              MO Center= -2.3D-01,  3.5D-01,  1.1D-01, r^2= 3.9D+00
   Bfn.  Coefficient  Atom+Function         Bfn.  Coefficient  Atom+Function  
  ----- ------------  ---------------      ----- ------------  ---------------
    36      7.338580   2 C  s                67     -7.114167   3 C  s         
     5      3.079638   1 O  s                75      2.347368   3 C  py        
    98     -2.117463   4 C  s                13      1.967182   1 O  py        
    45     -1.244843   2 C  pz                4     -1.135065   1 O  s         
    43     -0.988851   2 C  px               76      0.825874   3 C  pz        
 
 Vector   49  Occ=0.000000D+00  E= 7.087922D-01
              MO Center=  1.4D-01, -3.1D-01, -2.6D-01, r^2= 4.5D+00
   Bfn.  Coefficient  Atom+Function         Bfn.  Coefficient  Atom+Function  
  ----- ------------  ---------------      ----- ------------  ---------------
    67      9.776880   3 C  s                36     -7.450845   2 C  s         
    43      3.718129   2 C  px               44     -3.507068   2 C  py        
    75     -2.864917   3 C  py               98     -2.684775   4 C  s         
     5      2.118485   1 O  s                12      1.701519   1 O  px        
   106      1.611030   4 C  py               13     -1.376942   1 O  py        
 
 Vector   50  Occ=0.000000D+00  E= 7.615589D-01
              MO Center=  6.2D-01,  1.2D-02, -3.2D-01, r^2= 4.1D+00
   Bfn.  Coefficient  Atom+Function         Bfn.  Coefficient  Atom+Function  
  ----- ------------  ---------------      ----- ------------  ---------------
    45      2.508523   2 C  pz              127     -1.716118   5 H  s         
   105     -1.646422   4 C  px               43      1.443954   2 C  px        
     5     -1.372850   1 O  s                36      1.332196   2 C  s         
   126     -1.323199   5 H  s               144      1.258844   8 H  s         
    76     -1.118780   3 C  pz               66      0.944327   3 C  s         
 
 Vector   51  Occ=0.000000D+00  E= 7.937917D-01
              MO Center=  2.6D-01,  4.0D-02, -1.8D-01, r^2= 4.4D+00
   Bfn.  Coefficient  Atom+Function         Bfn.  Coefficient  Atom+Function  
  ----- ------------  ---------------      ----- ------------  ---------------
     5      4.261098   1 O  s                36     -3.148935   2 C  s         
    76     -2.588254   3 C  pz               45      1.773163   2 C  pz        
     4     -1.651762   1 O  s                12      1.364497   1 O  px        
   133      1.366685   6 H  s                43      1.156618   2 C  px        
    66     -1.025550   3 C  s                35     -0.968741   2 C  s         
 
 Vector   52  Occ=0.000000D+00  E= 8.325106D-01
              MO Center=  3.3D-01,  1.6D-01, -9.7D-03, r^2= 4.4D+00
   Bfn.  Coefficient  Atom+Function         Bfn.  Coefficient  Atom+Function  
  ----- ------------  ---------------      ----- ------------  ---------------
    36      6.508769   2 C  s                98     -3.939254   4 C  s         
     5     -3.854432   1 O  s                43     -2.607082   2 C  px        
   105      1.930327   4 C  px               35     -1.863400   2 C  s         
    45     -1.705187   2 C  pz               44      1.469699   2 C  py        
    66     -1.165724   3 C  s                97      1.072232   4 C  s         
 
 Vector   53  Occ=0.000000D+00  E= 8.527472D-01
              MO Center=  6.2D-01,  1.1D-01, -4.2D-01, r^2= 4.2D+00
   Bfn.  Coefficient  Atom+Function         Bfn.  Coefficient  Atom+Function  
  ----- ------------  ---------------      ----- ------------  ---------------
    98     -4.799904   4 C  s                45     -4.550945   2 C  pz        
    36      4.523349   2 C  s                76      2.016395   3 C  pz        
   127      1.780001   5 H  s               106     -1.630893   4 C  py        
    44      1.474699   2 C  py              105      1.345072   4 C  px        
   150     -1.197832   9 H  s               139      1.068720   7 H  s         
 
 Vector   54  Occ=0.000000D+00  E= 8.710678D-01
              MO Center=  1.8D-01, -4.0D-02, -1.1D-01, r^2= 4.2D+00
   Bfn.  Coefficient  Atom+Function         Bfn.  Coefficient  Atom+Function  
  ----- ------------  ---------------      ----- ------------  ---------------
     5      4.660687   1 O  s                36     -1.990892   2 C  s         
     4     -1.585315   1 O  s               138      1.418033   7 H  s         
    76      1.234823   3 C  pz               12      1.206468   1 O  px        
    66     -1.130843   3 C  s                67     -1.096811   3 C  s         
    43      0.932103   2 C  px               97      0.889622   4 C  s         
 
 Vector   55  Occ=0.000000D+00  E= 9.186539D-01
              MO Center=  4.9D-01,  3.2D-01, -4.7D-01, r^2= 4.6D+00
   Bfn.  Coefficient  Atom+Function         Bfn.  Coefficient  Atom+Function  
  ----- ------------  ---------------      ----- ------------  ---------------
    35      4.882145   2 C  s                36     -1.661658   2 C  s         
   132     -1.369961   6 H  s                67      1.340861   3 C  s         
    72      1.224517   3 C  py               66     -1.184382   3 C  s         
   156     -1.174005  10 H  s                84      1.161352   3 C  d  0      
    41      1.089702   2 C  py              116     -1.081608   4 C  d  1      
 
 Vector   56  Occ=0.000000D+00  E= 9.619657D-01
              MO Center=  4.5D-01,  2.9D-01, -5.4D-01, r^2= 4.7D+00
   Bfn.  Coefficient  Atom+Function         Bfn.  Coefficient  Atom+Function  
  ----- ------------  ---------------      ----- ------------  ---------------
    35      4.353070   2 C  s                67      2.546948   3 C  s         
   138     -2.346302   7 H  s                76     -1.840400   3 C  pz        
    42     -1.734230   2 C  pz               83     -1.642283   3 C  d -1      
    36     -1.496091   2 C  s               115     -1.464099   4 C  d  0      
   132      1.352507   6 H  s                98     -1.316486   4 C  s         
 
 Vector   57  Occ=0.000000D+00  E= 9.906322D-01
              MO Center=  3.1D-01,  5.5D-01, -8.3D-02, r^2= 4.0D+00
   Bfn.  Coefficient  Atom+Function         Bfn.  Coefficient  Atom+Function  
  ----- ------------  ---------------      ----- ------------  ---------------
    36      7.091236   2 C  s                98     -4.800908   4 C  s         
    45     -3.658580   2 C  pz               67     -3.654304   3 C  s         
    43     -2.201583   2 C  px               44      2.005378   2 C  py        
    66     -1.553148   3 C  s               127      1.531317   5 H  s         
    75      1.370197   3 C  py              126      1.300041   5 H  s         
 
 Vector   58  Occ=0.000000D+00  E= 1.013629D+00
              MO Center=  4.1D-01,  4.8D-01, -8.5D-02, r^2= 4.3D+00
   Bfn.  Coefficient  Atom+Function         Bfn.  Coefficient  Atom+Function  
  ----- ------------  ---------------      ----- ------------  ---------------
    36      5.831496   2 C  s                67     -4.757983   3 C  s         
    45     -2.333119   2 C  pz               44      1.996685   2 C  py        
    98     -1.899013   4 C  s               156     -1.536443  10 H  s         
    43     -1.494095   2 C  px               76      1.390025   3 C  pz        
   144      1.396601   8 H  s                74     -1.336059   3 C  px        
 
 Vector   59  Occ=0.000000D+00  E= 1.042849D+00
              MO Center=  7.1D-01, -1.8D-01, -4.8D-01, r^2= 4.2D+00
   Bfn.  Coefficient  Atom+Function         Bfn.  Coefficient  Atom+Function  
  ----- ------------  ---------------      ----- ------------  ---------------
    35      2.597512   2 C  s                36      2.364968   2 C  s         
    66     -2.157575   3 C  s               150      1.985963   9 H  s         
   144     -1.929019   8 H  s                 5     -1.867311   1 O  s         
   117      1.749834   4 C  d  2             41      1.416594   2 C  py        
    44      1.246246   2 C  py               72      1.105044   3 C  py        
 
 Vector   60  Occ=0.000000D+00  E= 1.078366D+00
              MO Center=  6.6D-01,  3.7D-02, -6.3D-02, r^2= 4.1D+00
   Bfn.  Coefficient  Atom+Function         Bfn.  Coefficient  Atom+Function  
  ----- ------------  ---------------      ----- ------------  ---------------
    66      4.143113   3 C  s                98     -4.049060   4 C  s         
    45     -3.697028   2 C  pz               97     -3.662086   4 C  s         
    36      3.100034   2 C  s                41     -2.620569   2 C  py        
   104     -2.499777   4 C  pz               42     -2.372743   2 C  pz        
    72     -2.372835   3 C  py               40      2.242534   2 C  px        
 
 Vector   61  Occ=0.000000D+00  E= 1.105893D+00
              MO Center=  3.7D-01,  8.4D-02,  7.3D-02, r^2= 3.8D+00
   Bfn.  Coefficient  Atom+Function         Bfn.  Coefficient  Atom+Function  
  ----- ------------  ---------------      ----- ------------  ---------------
    36      7.675213   2 C  s                67     -5.447696   3 C  s         
    98     -2.944518   4 C  s                66      2.101673   3 C  s         
   126     -2.045610   5 H  s                45     -1.957240   2 C  pz        
   132      1.706759   6 H  s                72     -1.570560   3 C  py        
    53      1.461340   2 C  d  0             41     -1.446919   2 C  py        
 
 Vector   62  Occ=0.000000D+00  E= 1.146100D+00
              MO Center=  6.2D-01,  8.1D-03, -4.7D-02, r^2= 3.6D+00
   Bfn.  Coefficient  Atom+Function         Bfn.  Coefficient  Atom+Function  
  ----- ------------  ---------------      ----- ------------  ---------------
    67      4.953239   3 C  s                36     -3.649126   2 C  s         
    44     -2.338686   2 C  py               97     -1.794073   4 C  s         
   126      1.750809   5 H  s                54      1.558820   2 C  d  1      
    43      1.513431   2 C  px               55      1.495944   2 C  d  2      
    42     -1.427911   2 C  pz               75     -1.400730   3 C  py        
 
 Vector   63  Occ=0.000000D+00  E= 1.215426D+00
              MO Center=  5.7D-01,  2.1D-01, -1.4D-01, r^2= 3.8D+00
   Bfn.  Coefficient  Atom+Function         Bfn.  Coefficient  Atom+Function  
  ----- ------------  ---------------      ----- ------------  ---------------
    36      7.045088   2 C  s                66     -5.048748   3 C  s         
    97     -3.463875   4 C  s                67     -3.361205   3 C  s         
    35      3.090973   2 C  s                72      1.888464   3 C  py        
    51     -1.765712   2 C  d -2             52      1.705613   2 C  d -1      
   138      1.656174   7 H  s               104     -1.518857   4 C  pz        
 
 Vector   64  Occ=0.000000D+00  E= 1.350826D+00
              MO Center=  3.4D-01,  5.5D-01,  2.5D-01, r^2= 3.6D+00
   Bfn.  Coefficient  Atom+Function         Bfn.  Coefficient  Atom+Function  
  ----- ------------  ---------------      ----- ------------  ---------------
    66      4.668986   3 C  s                35      3.973285   2 C  s         
    67     -3.153669   3 C  s                36     -2.638185   2 C  s         
    65     -2.412136   3 C  s               132     -2.080431   6 H  s         
   133      1.478993   6 H  s                34     -1.439038   2 C  s         
    72      1.375609   3 C  py              139      1.054275   7 H  s         
 
 Vector   65  Occ=0.000000D+00  E= 1.415395D+00
              MO Center=  1.5D-01,  5.3D-01, -5.7D-02, r^2= 3.4D+00
   Bfn.  Coefficient  Atom+Function         Bfn.  Coefficient  Atom+Function  
  ----- ------------  ---------------      ----- ------------  ---------------
    36     -4.079281   2 C  s                66     -3.996460   3 C  s         
    67      3.881406   3 C  s                35      3.724548   2 C  s         
    73      2.269116   3 C  pz              138      2.234283   7 H  s         
   139     -2.200139   7 H  s               126     -1.723112   5 H  s         
    76     -1.646384   3 C  pz               65      1.613269   3 C  s         
 
 Vector   66  Occ=0.000000D+00  E= 1.432607D+00
              MO Center=  1.0D+00, -4.4D-01, -1.0D+00, r^2= 3.6D+00
   Bfn.  Coefficient  Atom+Function         Bfn.  Coefficient  Atom+Function  
  ----- ------------  ---------------      ----- ------------  ---------------
    98      9.724956   4 C  s                97     -7.372913   4 C  s         
    96      2.977627   4 C  s                36     -2.859693   2 C  s         
   145     -2.362732   8 H  s               151     -2.182332   9 H  s         
   157     -2.018989  10 H  s               144      1.753738   8 H  s         
   150      1.530897   9 H  s               104      1.427225   4 C  pz        
 
 Vector   67  Occ=0.000000D+00  E= 1.443735D+00
              MO Center=  4.1D-01, -4.0D-03, -3.0D-01, r^2= 4.2D+00
   Bfn.  Coefficient  Atom+Function         Bfn.  Coefficient  Atom+Function  
  ----- ------------  ---------------      ----- ------------  ---------------
    66      4.275568   3 C  s                98      3.018106   4 C  s         
    67     -2.965786   3 C  s                35     -2.748111   2 C  s         
    36      1.963106   2 C  s               133      1.841815   6 H  s         
    76     -1.643309   3 C  pz               45      1.581859   2 C  pz        
    65     -1.511028   3 C  s                97     -1.457130   4 C  s         
 
 Vector   68  Occ=0.000000D+00  E= 1.446626D+00
              MO Center=  3.0D-01, -4.5D-02, -4.4D-02, r^2= 3.1D+00
   Bfn.  Coefficient  Atom+Function         Bfn.  Coefficient  Atom+Function  
  ----- ------------  ---------------      ----- ------------  ---------------
    98      5.737318   4 C  s                97     -3.147184   4 C  s         
    36     -2.448769   2 C  s                45      2.271392   2 C  pz        
    35     -1.936479   2 C  s                 5      1.894907   1 O  s         
   127     -1.514746   5 H  s                96      1.329261   4 C  s         
    76     -1.173662   3 C  pz              126      1.131869   5 H  s         
 
 Vector   69  Occ=0.000000D+00  E= 1.474491D+00
              MO Center=  8.9D-01, -3.2D-01, -9.6D-01, r^2= 3.6D+00
   Bfn.  Coefficient  Atom+Function         Bfn.  Coefficient  Atom+Function  
  ----- ------------  ---------------      ----- ------------  ---------------
    66      2.643299   3 C  s                67     -1.221883   3 C  s         
   133      1.141879   6 H  s                 5     -1.105184   1 O  s         
    65     -1.091558   3 C  s               144     -0.950177   8 H  s         
   102      0.927906   4 C  px              132     -0.926818   6 H  s         
    71     -0.877918   3 C  px               76     -0.802501   3 C  pz        
 
 Vector   70  Occ=0.000000D+00  E= 1.478272D+00
              MO Center=  1.0D+00, -3.7D-01, -1.0D+00, r^2= 3.2D+00
   Bfn.  Coefficient  Atom+Function         Bfn.  Coefficient  Atom+Function  
  ----- ------------  ---------------      ----- ------------  ---------------
    36      3.153001   2 C  s               156     -2.721027  10 H  s         
   157      2.070128  10 H  s               103      1.927084   4 C  py        
   102     -1.831660   4 C  px              126      1.806677   5 H  s         
   104     -1.693144   4 C  pz              127     -1.444328   5 H  s         
    35     -1.384705   2 C  s               150      1.297718   9 H  s         
 
 Vector   71  Occ=0.000000D+00  E= 1.512128D+00
              MO Center=  3.5D-01,  1.4D-01, -3.3D-01, r^2= 4.0D+00
   Bfn.  Coefficient  Atom+Function         Bfn.  Coefficient  Atom+Function  
  ----- ------------  ---------------      ----- ------------  ---------------
    98      2.746507   4 C  s               144      1.914170   8 H  s         
   102     -1.643138   4 C  px              145     -1.467623   8 H  s         
    45      1.314500   2 C  pz              103     -1.313708   4 C  py        
    97     -1.248399   4 C  s               150     -0.932871   9 H  s         
    36     -0.896536   2 C  s                66      0.803864   3 C  s         
 
 Vector   72  Occ=0.000000D+00  E= 1.541661D+00
              MO Center=  3.3D-01,  4.8D-01, -1.9D-01, r^2= 4.6D+00
   Bfn.  Coefficient  Atom+Function         Bfn.  Coefficient  Atom+Function  
  ----- ------------  ---------------      ----- ------------  ---------------
    36      4.177220   2 C  s                35     -3.552424   2 C  s         
    98     -3.485620   4 C  s                97      3.079857   4 C  s         
    67     -2.361110   3 C  s                73      2.161157   3 C  pz        
   132     -1.757018   6 H  s               133      1.435977   6 H  s         
   138      1.393666   7 H  s               102     -1.376883   4 C  px        
 
 Vector   73  Occ=0.000000D+00  E= 1.578024D+00
              MO Center=  4.8D-01, -1.4D-02, -6.9D-02, r^2= 3.3D+00
   Bfn.  Coefficient  Atom+Function         Bfn.  Coefficient  Atom+Function  
  ----- ------------  ---------------      ----- ------------  ---------------
    35      3.403207   2 C  s                36     -2.692805   2 C  s         
    40     -2.059260   2 C  px               97     -1.947631   4 C  s         
   126      1.809168   5 H  s                67      1.737780   3 C  s         
    72      1.607595   3 C  py               42     -1.466057   2 C  pz        
    34     -1.421279   2 C  s                45      1.295448   2 C  pz        
 
 Vector   74  Occ=0.000000D+00  E= 1.596840D+00
              MO Center=  3.5D-01,  3.6D-01, -1.5D-01, r^2= 3.4D+00
   Bfn.  Coefficient  Atom+Function         Bfn.  Coefficient  Atom+Function  
  ----- ------------  ---------------      ----- ------------  ---------------
    36     -5.466625   2 C  s                66     -5.330610   3 C  s         
    35      5.234581   2 C  s                67      4.022667   3 C  s         
    41      3.759611   2 C  py               71     -2.588397   3 C  px        
    72      2.461375   3 C  py               40     -2.116359   2 C  px        
    98      1.927759   4 C  s                82      1.679828   3 C  d -2      
 
 Vector   75  Occ=0.000000D+00  E= 1.640999D+00
              MO Center=  4.6D-01,  1.9D-01, -9.6D-03, r^2= 3.6D+00
   Bfn.  Coefficient  Atom+Function         Bfn.  Coefficient  Atom+Function  
  ----- ------------  ---------------      ----- ------------  ---------------
    66      2.773672   3 C  s                98      1.960323   4 C  s         
    35      1.910297   2 C  s                 5     -1.733283   1 O  s         
    97     -1.432036   4 C  s                67     -1.417000   3 C  s         
   144      1.128381   8 H  s               150     -1.050369   9 H  s         
   103     -1.033965   4 C  py               41     -0.976701   2 C  py        
 
 Vector   76  Occ=0.000000D+00  E= 1.693071D+00
              MO Center=  5.0D-01,  2.3D-01, -3.9D-01, r^2= 3.9D+00
   Bfn.  Coefficient  Atom+Function         Bfn.  Coefficient  Atom+Function  
  ----- ------------  ---------------      ----- ------------  ---------------
    97     -5.842862   4 C  s                35      5.406257   2 C  s         
   104     -3.071542   4 C  pz               42     -3.021118   2 C  pz        
   102      1.778682   4 C  px               72     -1.707621   3 C  py        
    40      1.634370   2 C  px               34     -1.619439   2 C  s         
    96      1.578555   4 C  s               138      1.357242   7 H  s         
 
 Vector   77  Occ=0.000000D+00  E= 1.702114D+00
              MO Center=  7.0D-03,  1.7D-01, -8.3D-02, r^2= 3.6D+00
   Bfn.  Coefficient  Atom+Function         Bfn.  Coefficient  Atom+Function  
  ----- ------------  ---------------      ----- ------------  ---------------
     5      3.814454   1 O  s                72      3.001661   3 C  py        
    36     -2.472278   2 C  s                66     -2.157725   3 C  s         
   138     -1.713043   7 H  s                12      1.482064   1 O  px        
    41      1.341961   2 C  py               43      1.206457   2 C  px        
    42      1.061700   2 C  pz               44     -1.018269   2 C  py        
 
 Vector   78  Occ=0.000000D+00  E= 1.791559D+00
              MO Center=  4.1D-01,  2.6D-01, -1.1D-02, r^2= 3.5D+00
   Bfn.  Coefficient  Atom+Function         Bfn.  Coefficient  Atom+Function  
  ----- ------------  ---------------      ----- ------------  ---------------
    35      2.888515   2 C  s                97     -2.634372   4 C  s         
    36      1.726460   2 C  s                45     -1.321460   2 C  pz        
   104     -1.086611   4 C  pz               42     -1.005436   2 C  pz        
    67     -0.972228   3 C  s               103     -0.948133   4 C  py        
   102      0.943108   4 C  px               72      0.917475   3 C  py        
 
 Vector   79  Occ=0.000000D+00  E= 1.815653D+00
              MO Center= -6.4D-01,  2.0D-01,  1.9D-01, r^2= 2.5D+00
   Bfn.  Coefficient  Atom+Function         Bfn.  Coefficient  Atom+Function  
  ----- ------------  ---------------      ----- ------------  ---------------
    35      4.215802   2 C  s                 5     -3.303736   1 O  s         
    40     -2.432863   2 C  px               41      2.088528   2 C  py        
    72      2.017748   3 C  py               66     -1.807106   3 C  s         
    71     -1.705877   3 C  px               12     -1.373724   1 O  px        
   132     -1.076955   6 H  s               138     -1.050292   7 H  s         
 
 Vector   80  Occ=0.000000D+00  E= 1.843621D+00
              MO Center=  6.5D-02,  2.6D-01, -5.6D-02, r^2= 3.7D+00
   Bfn.  Coefficient  Atom+Function         Bfn.  Coefficient  Atom+Function  
  ----- ------------  ---------------      ----- ------------  ---------------
    35      1.385364   2 C  s                36     -1.133257   2 C  s         
   156     -0.931193  10 H  s                66      0.838709   3 C  s         
    41     -0.806008   2 C  py              104     -0.754147   4 C  pz        
   157      0.655148  10 H  s                67      0.631761   3 C  s         
   126     -0.628033   5 H  s                71     -0.617671   3 C  px        
 
 Vector   81  Occ=0.000000D+00  E= 1.866969D+00
              MO Center=  5.5D-01,  1.4D-01, -4.8D-01, r^2= 4.0D+00
   Bfn.  Coefficient  Atom+Function         Bfn.  Coefficient  Atom+Function  
  ----- ------------  ---------------      ----- ------------  ---------------
    35      6.575960   2 C  s                66     -4.138056   3 C  s         
    97     -3.442947   4 C  s                72      3.380263   3 C  py        
    36      2.202609   2 C  s               104     -1.952950   4 C  pz        
    67     -1.657698   3 C  s                34     -1.634209   2 C  s         
    45     -1.396113   2 C  pz               41      1.313051   2 C  py        
 
 Vector   82  Occ=0.000000D+00  E= 1.919419D+00
              MO Center=  2.9D-01, -1.4D-01, -2.9D-01, r^2= 3.2D+00
   Bfn.  Coefficient  Atom+Function         Bfn.  Coefficient  Atom+Function  
  ----- ------------  ---------------      ----- ------------  ---------------
    36      1.480323   2 C  s                98     -1.410467   4 C  s         
    35      1.345129   2 C  s                45     -1.288996   2 C  pz        
    97     -1.170123   4 C  s               103     -1.173438   4 C  py        
    66     -1.115733   3 C  s                41      0.890239   2 C  py        
   150     -0.734481   9 H  s                42     -0.728944   2 C  pz        
 
 Vector   83  Occ=0.000000D+00  E= 1.988834D+00
              MO Center=  6.4D-01, -8.4D-02, -1.5D-01, r^2= 3.2D+00
   Bfn.  Coefficient  Atom+Function         Bfn.  Coefficient  Atom+Function  
  ----- ------------  ---------------      ----- ------------  ---------------
    35      2.441888   2 C  s                40     -2.285558   2 C  px        
    66     -2.288170   3 C  s                98      2.064758   4 C  s         
    72      1.679879   3 C  py               67     -1.662869   3 C  s         
    41      1.488425   2 C  py               43     -1.491539   2 C  px        
    71     -1.365238   3 C  px              126      1.251827   5 H  s         
 
 Vector   84  Occ=0.000000D+00  E= 1.994101D+00
              MO Center=  8.2D-01, -2.5D-01, -9.3D-01, r^2= 3.4D+00
   Bfn.  Coefficient  Atom+Function         Bfn.  Coefficient  Atom+Function  
  ----- ------------  ---------------      ----- ------------  ---------------
    98     -4.838535   4 C  s                36      4.655448   2 C  s         
    35     -3.131638   2 C  s                45     -1.980024   2 C  pz        
    66      1.571124   3 C  s               107     -1.329954   4 C  pz        
   156      1.242045  10 H  s                34      1.122247   2 C  s         
    67     -1.082943   3 C  s               104      1.039707   4 C  pz        
 
 Vector   85  Occ=0.000000D+00  E= 2.090781D+00
              MO Center= -5.7D-02,  1.8D-01, -1.3D-02, r^2= 3.5D+00
   Bfn.  Coefficient  Atom+Function         Bfn.  Coefficient  Atom+Function  
  ----- ------------  ---------------      ----- ------------  ---------------
    36      3.085692   2 C  s                98     -2.432379   4 C  s         
    67     -1.129948   3 C  s                35     -0.846532   2 C  s         
   138     -0.752941   7 H  s               156      0.745300  10 H  s         
    45     -0.623983   2 C  pz               40     -0.589509   2 C  px        
   144      0.591664   8 H  s                14     -0.575407   1 O  pz        
 
 Vector   86  Occ=0.000000D+00  E= 2.096551D+00
              MO Center= -3.4D-01,  5.8D-02,  2.9D-02, r^2= 3.0D+00
   Bfn.  Coefficient  Atom+Function         Bfn.  Coefficient  Atom+Function  
  ----- ------------  ---------------      ----- ------------  ---------------
    67     -5.425636   3 C  s                36      5.297803   2 C  s         
    66      3.240840   3 C  s                35     -3.163176   2 C  s         
    41     -3.044306   2 C  py               71      2.721444   3 C  px        
    13      1.806765   1 O  py               82     -1.442727   3 C  d -2      
    43     -1.308831   2 C  px               55      1.307521   2 C  d  2      
 
 Vector   87  Occ=0.000000D+00  E= 2.165382D+00
              MO Center=  5.0D-01, -5.8D-03, -4.8D-01, r^2= 3.2D+00
   Bfn.  Coefficient  Atom+Function         Bfn.  Coefficient  Atom+Function  
  ----- ------------  ---------------      ----- ------------  ---------------
    98     -2.109806   4 C  s                67      2.025782   3 C  s         
    35      1.375641   2 C  s                36     -1.083644   2 C  s         
    73     -1.007343   3 C  pz               40     -0.889611   2 C  px        
    43      0.888392   2 C  px               44     -0.866000   2 C  py        
   156      0.870002  10 H  s                42      0.836392   2 C  pz        
 
 Vector   88  Occ=0.000000D+00  E= 2.202459D+00
              MO Center=  4.2D-01,  1.9D-01, -3.0D-01, r^2= 3.7D+00
   Bfn.  Coefficient  Atom+Function         Bfn.  Coefficient  Atom+Function  
  ----- ------------  ---------------      ----- ------------  ---------------
    98      2.236507   4 C  s                36     -1.553669   2 C  s         
    45      1.128049   2 C  pz               76     -1.004108   3 C  pz        
   132      0.802749   6 H  s                42     -0.728822   2 C  pz        
    97     -0.669740   4 C  s               103     -0.672089   4 C  py        
   117     -0.623530   4 C  d  2            138     -0.613642   7 H  s         
 
 Vector   89  Occ=0.000000D+00  E= 2.230559D+00
              MO Center=  7.0D-01, -2.6D-02, -1.5D-01, r^2= 3.6D+00
   Bfn.  Coefficient  Atom+Function         Bfn.  Coefficient  Atom+Function  
  ----- ------------  ---------------      ----- ------------  ---------------
    36      3.171946   2 C  s                67     -1.703801   3 C  s         
    98     -1.299355   4 C  s                 5     -1.092319   1 O  s         
    42     -1.058011   2 C  pz               72     -0.850702   3 C  py        
    35     -0.741470   2 C  s                43     -0.728482   2 C  px        
    45     -0.730637   2 C  pz              150      0.719344   9 H  s         
 
 Vector   90  Occ=0.000000D+00  E= 2.244978D+00
              MO Center=  7.0D-01, -2.5D-01, -7.3D-01, r^2= 3.6D+00
   Bfn.  Coefficient  Atom+Function         Bfn.  Coefficient  Atom+Function  
  ----- ------------  ---------------      ----- ------------  ---------------
   150      1.289202   9 H  s                36      0.902337   2 C  s         
   144     -0.902655   8 H  s               117      0.806008   4 C  d  2      
    66     -0.793207   3 C  s                72      0.764679   3 C  py        
    98     -0.760735   4 C  s                67     -0.614161   3 C  s         
    83      0.566726   3 C  d -1            149     -0.485697   9 H  s         
 
 Vector   91  Occ=0.000000D+00  E= 2.266481D+00
              MO Center=  8.8D-01, -2.1D-01, -1.1D+00, r^2= 3.1D+00
   Bfn.  Coefficient  Atom+Function         Bfn.  Coefficient  Atom+Function  
  ----- ------------  ---------------      ----- ------------  ---------------
    36      2.304998   2 C  s                66      1.966808   3 C  s         
    98     -1.608544   4 C  s                67     -1.449689   3 C  s         
    41     -1.362155   2 C  py               35     -0.943747   2 C  s         
   156      0.916868  10 H  s                76      0.832180   3 C  pz        
    71      0.822543   3 C  px               72     -0.824153   3 C  py        
 
 Vector   92  Occ=0.000000D+00  E= 2.282740D+00
              MO Center=  5.8D-01,  4.5D-02, -2.6D-01, r^2= 3.7D+00
   Bfn.  Coefficient  Atom+Function         Bfn.  Coefficient  Atom+Function  
  ----- ------------  ---------------      ----- ------------  ---------------
    98      3.530644   4 C  s                66      2.577538   3 C  s         
[...]
    21     -0.872408   1 O  d -1             42     -0.802703   2 C  pz        
    97     -0.703116   4 C  s                45     -0.690806   2 C  pz        
     5     -0.549539   1 O  s                67     -0.503228   3 C  s         
   102      0.498008   4 C  px               98     -0.490129   4 C  s         
 
 Vector  154  Occ=0.000000D+00  E= 6.675423D+00
              MO Center= -8.7D-01, -1.8D-01,  1.9D-01, r^2= 5.7D-01
   Bfn.  Coefficient  Atom+Function         Bfn.  Coefficient  Atom+Function  
  ----- ------------  ---------------      ----- ------------  ---------------
    18      1.059267   1 O  d  1             23     -1.033182   1 O  d  1      
    97     -0.818995   4 C  s                42     -0.760134   2 C  pz        
    35      0.728624   2 C  s               102      0.633099   4 C  px        
    54     -0.548719   2 C  d  1             14      0.401164   1 O  pz        
    16     -0.394397   1 O  d -1             11      0.387741   1 O  pz        
 
 Vector  155  Occ=0.000000D+00  E= 6.842716D+00
              MO Center= -8.8D-01, -1.9D-01,  2.0D-01, r^2= 5.9D-01
   Bfn.  Coefficient  Atom+Function         Bfn.  Coefficient  Atom+Function  
  ----- ------------  ---------------      ----- ------------  ---------------
     5      2.104283   1 O  s                40      1.768310   2 C  px        
     9      1.351634   1 O  px               97     -1.284541   4 C  s         
     4      1.191625   1 O  s                20      1.052529   1 O  d -2      
    42     -0.977553   2 C  pz               35     -0.858825   2 C  s         
    12      0.843128   1 O  px               15     -0.836726   1 O  d -2      
 
 Vector  156  Occ=0.000000D+00  E= 7.056278D+00
              MO Center= -8.8D-01, -1.9D-01,  2.0D-01, r^2= 6.4D-01
   Bfn.  Coefficient  Atom+Function         Bfn.  Coefficient  Atom+Function  
  ----- ------------  ---------------      ----- ------------  ---------------
    66     -3.176871   3 C  s                35      3.034788   2 C  s         
    40     -2.724394   2 C  px               72      2.692735   3 C  py        
    24     -1.586064   1 O  d  2             36      1.416198   2 C  s         
    10      1.281249   1 O  py               67     -1.284424   3 C  s         
    19      1.020813   1 O  d  2             13      0.864706   1 O  py        
 
 Vector  157  Occ=0.000000D+00  E= 2.193933D+01
              MO Center=  8.8D-02,  7.7D-01,  3.9D-02, r^2= 1.3D+00
   Bfn.  Coefficient  Atom+Function         Bfn.  Coefficient  Atom+Function  
  ----- ------------  ---------------      ----- ------------  ---------------
    64      1.573528   3 C  s                65     -1.335612   3 C  s         
    67     -1.289041   3 C  s                63     -1.240308   3 C  s         
    98      1.075179   4 C  s                95     -0.781989   4 C  s         
    96      0.640710   4 C  s                94      0.618554   4 C  s         
    40     -0.488141   2 C  px               35      0.452638   2 C  s         
 
 Vector  158  Occ=0.000000D+00  E= 2.198488D+01
              MO Center=  8.7D-01, -2.4D-01, -7.1D-01, r^2= 1.2D+00
   Bfn.  Coefficient  Atom+Function         Bfn.  Coefficient  Atom+Function  
  ----- ------------  ---------------      ----- ------------  ---------------
    95      1.421008   4 C  s                96     -1.313111   4 C  s         
    98     -1.136674   4 C  s                94     -1.117818   4 C  s         
    34     -0.951812   2 C  s                36     -0.877412   2 C  s         
    33      0.860572   2 C  s                32     -0.672138   2 C  s         
    65     -0.670547   3 C  s                64      0.626624   3 C  s         
 
 Vector  159  Occ=0.000000D+00  E= 2.210152D+01
              MO Center=  6.1D-01, -1.1D-01, -6.7D-02, r^2= 6.8D-01
   Bfn.  Coefficient  Atom+Function         Bfn.  Coefficient  Atom+Function  
  ----- ------------  ---------------      ----- ------------  ---------------
    36      2.206335   2 C  s                33     -1.551756   2 C  s         
    34      1.548984   2 C  s                35     -1.393788   2 C  s         
    98     -1.296923   4 C  s                32      1.215087   2 C  s         
    67     -1.158497   3 C  s                95      0.705274   4 C  s         
    97      0.705751   4 C  s                96     -0.638220   4 C  s         
 
 Vector  160  Occ=0.000000D+00  E= 4.341253D+01
              MO Center= -8.7D-01, -1.8D-01,  2.0D-01, r^2= 1.2D-01
   Bfn.  Coefficient  Atom+Function         Bfn.  Coefficient  Atom+Function  
  ----- ------------  ---------------      ----- ------------  ---------------
     4      2.501478   1 O  s                 3     -1.873120   1 O  s         
     2      1.731412   1 O  s                 1     -1.395823   1 O  s         
     5     -0.872043   1 O  s                36      0.807042   2 C  s         
     9      0.558198   1 O  px               66     -0.509563   3 C  s         
    40      0.455942   2 C  px               72      0.456642   3 C  py        
 

 center of mass
 --------------
 x =   0.30619319 y =   0.09486532 z =  -0.27792487

 moments of inertia (a.u.)
 ------------------
         200.609951512521          46.187224747851          83.409327153506
          46.187224747851         247.710421930188         -53.692492719856
          83.409327153506         -53.692492719856         238.989529119255
 
     Multipole analysis of the density
     ---------------------------------
 
     L   x y z        total         alpha         beta         nuclear
     -   - - -        -----         -----         ----         -------
     0   0 0 0     -0.000000    -16.000000    -16.000000     32.000000
 
     1   1 0 0      0.684394     -6.214042     -6.214042     13.112478
     1   0 1 0      0.325399     -1.606179     -1.606179      3.537756
     1   0 0 1     -0.051421      5.311085      5.311085    -10.673592
 
     2   2 0 0    -20.020893    -54.236760    -54.236760     88.452628
     2   1 1 0     -1.123940     14.071109     14.071109    -29.266158
     2   1 0 1      0.138442     26.384529     26.384529    -52.630617
     2   0 2 0    -17.836808    -40.624069    -40.624069     63.411331
     2   0 1 1      0.259789    -15.723550    -15.723550     31.706888
     2   0 0 2    -18.190054    -45.784260    -45.784260     73.378466
 
 *** CALLING NEW AORESP DRIVER FOR CLOSED AND OPEN SHELLS ***
 Entering AOResponse driver routine


--------------------------------------------------------------------------------

          ****************
          *** RESPONSE ***
          ****************

 Response module for NWChem and dynamic CPKS solver
 developed by J. Autschbach and coworkers, SUNY Buffalo
 The methodology used in this program is described in 
 ChemPhysChem 12 (2011), 3224-3235 (main reference)
 J. Chem. Phys. 123 (2005), 114103
 J. Chem. Phys. 122 (2005), 224115
 J. Chem. Phys. 122 (2005), 074105
 Comp. Lett. 3 (2007), 131-150 (contact JA for a copy)
 Please cite this work in publications based on results
 obtained with this code. Thank you!

 For extension of response module to open shell
 calculations please acknowledge:
 F. Aquino, Northwestern University, Schatz Rsrch Group
 The update to the methodology is described in
 J. Phys. Chem. A 118 (2014) 517-525



          -----------------------------------------------
          Solving response equations for perturbing field
          -----------------------------------------------

 number of frequencies:     1
 frequency in a.u.:  0.9319600E-01
 Perturbing field: electric
 Using GIAO formalism for OptRot
 Adding quadrupole terms to OptRot
 to create an origin in dependent tensor.
 Using El. Dipole Length Gauge
 
 Applying DAMPING constant of  0.003700 a.u.
 
 Setting up CPKS
 with frequency omega =      0.09319600 a.u.
 and a damping of            0.00370000 a.u.

 
                            NWChem Dynamic CPHF Module
                            --------------------------
 
 
    scftype = RHF 
    nclosed =   16
      nopen =    0
  variables =     9216
  num. vecs =        3
  tolerance =   1.0D-07
  max. iter =  100

 SCF residual:   1.530087070495342E-006


Iterative solution of linear equations
  No. of variables     4608
  No. of equations        3
  Maximum subspace       99
       Convergence  1.0D-07
        Start time     61.7


   iter   nsub   residual    time 
   ----  ------  --------  --------- 
 dft_CPHF2_read: failed to open
 ./methyloxirane_blyp-def2-tzvp_488.9_26.inp.aoresp_fiao_f1
     1      3    3.76D+00      90.8
     2      6    2.68D+00     120.1
     3      9    2.42D-01     149.3
     4     12    5.18D-02     178.6
     5     15    1.03D-02     207.9
     6     18    1.28D-03     237.2
     7     21    1.41D-04     266.5
     8     24    1.33D-05     295.8
     9     27    1.28D-06     325.1
    10     30    4.70D-07     354.4
    11     33    1.88D-08     383.7

 Calculating some arrays needed for GIAO optical rotation

    0 giaofock schwarz done =      95.58%
    0 giaofock schwarz done =      93.60%
 aor_r1_tensor_giao: roadata output requested
 dip-quad polarizability Re:

              1        2        3        4        5        6      
    1   77.3804  -6.3434 -27.7571  -4.7691   1.0728   9.1359
    2  -11.7682  25.2455   3.1717  23.3576 -21.3857   4.3286
    3   -6.9241   0.9527  39.1647  -0.0201  14.0916 -40.3093
 traceless dip-quad polarizability:

              1        2        3      
    1   75.1970  -9.5151 -41.6356
    2   -9.5151 -48.0272   1.6092
    3  -41.6356   1.6092 -27.1698

              1        2        3      
    1  -25.6113  37.8683   4.7575
    2   37.8683  27.0775 -32.0786
    3    4.7575 -32.0786  -1.4661

              1        2        3      
    1   13.2406   1.4291  58.7471
    2    1.4291  23.5966  21.1374
    3   58.7471  21.1374 -36.8372

 roa begin

 alpha real:
 XX       0.4101502501791E+02
 XY      -0.5264946654475E+01
 XZ      -0.3017734568206E+01
 YX      -0.5264946666628E+01
 YY       0.4405999417242E+02
 YZ       0.3259567329335E+01
 ZX      -0.3017734577658E+01
 ZY       0.3259567329103E+01
 ZZ       0.4154104613721E+02

 alpha im:
 XX       0.1112373848420E+00
 XY      -0.3039566747599E-01
 XZ      -0.1116237235822E-01
 YX      -0.3039566167985E-01
 YY       0.1294371702746E+00
 YZ       0.1875912436311E-01
 ZX      -0.1116236897082E-01
 ZY       0.1875912278488E-01
 ZZ       0.1234409914156E+00

 beta real:
 XX      -0.1445021036418E+00
 XY       0.9402514500310E+00
 XZ       0.2037987941050E+00
 YX      -0.8810150660208E+00
 YY       0.1485592591718E+00
 YZ      -0.1551398302144E+01
 ZX      -0.4852489445645E+00
 ZY       0.1871678165167E+01
 ZZ      -0.6231128672675E-02

 G-prime = -omega beta(real):
 XX      -0.1445021036418E+00
 XY       0.9402514500310E+00
 XZ       0.2037987941050E+00
 YX      -0.8810150660208E+00
 YY       0.1485592591718E+00
 YZ      -0.1551398302144E+01
 ZX      -0.4852489445645E+00
 ZY       0.1871678165167E+01
 ZZ      -0.6231128672675E-02

 beta im:
 XX      -0.6167381953860E-02
 XY       0.1328912597610E-01
 XZ       0.3034073855616E-02
 YX      -0.7467895095761E-02
 YY       0.4937098851473E-02
 YZ      -0.2379726849639E-01
 ZX      -0.1391393533476E-01
 ZY       0.4017484944528E-01
 ZZ       0.5165162964552E-03

 G-prime = -omega beta(imag):
 XX      -0.6167381953860E-02
 XY       0.1328912597610E-01
 XZ       0.3034073855616E-02
 YX      -0.7467895095761E-02
 YY       0.4937098851473E-02
 YZ      -0.2379726849639E-01
 ZX      -0.1391393533476E-01
 ZY       0.4017484944528E-01
 ZZ       0.5165162964552E-03

 dipole-quadrupole real (Cartesian):
 XXX      0.7738041723371E+02
 XXY     -0.6343411100759E+01
 XXZ     -0.2775706937119E+02
 XYY     -0.4769067288947E+01
 XYZ      0.1072770265211E+01
 XZZ      0.9135866401543E+01
 YXX     -0.1176823657942E+02
 YXY      0.2524550231777E+02
 YXZ      0.3171667149067E+01
 YYY      0.2335763374211E+02
 YYZ     -0.2138573421277E+02
 YZZ      0.4328563755946E+01
 ZXX     -0.6924104343112E+01
 ZXY      0.9527266153853E+00
 ZXZ      0.3916472034347E+02
 ZYY     -0.2005925184174E-01
 ZYZ      0.1409159849641E+02
 ZZZ     -0.4030927674788E+02

 dipole-quadrupole imag (Cartesian):
 XXX      0.2710172106860E+00
 XXY     -0.3538460415604E-01
 XXZ     -0.7733381114580E-01
 XYY     -0.3030883220316E-01
 XYZ      0.1616632039284E-02
 XZZ      0.6130977978072E-01
 YXX     -0.5695893246623E-01
 YXY      0.6075130760391E-01
 YXZ      0.1835082256746E-01
 YYY      0.9290196263336E-01
 YYZ     -0.6014733820337E-01
 YZZ      0.1116668428529E-01
 ZXX     -0.3511713398804E-01
 ZXY     -0.9239143120419E-03
 ZXZ      0.1453909504907E+00
 ZYY      0.5545089919318E-02
 ZYZ      0.6760592103539E-01
 ZZZ     -0.9099764474426E-01

 dipole-quadrupole (traceless):
 XXX      0.7519701767741E+02
 XXY     -0.9515116651138E+01
 XXZ     -0.4163560405678E+02
 XYY     -0.4802720910657E+02
 XYZ      0.1609155397816E+01
 XZZ     -0.2716980857084E+02
 YXX     -0.2561133532845E+02
 YXY      0.3786825347665E+02
 YXZ      0.4757500723601E+01
 YYY      0.2707747015385E+02
 YYZ     -0.3207860131916E+02
 YZZ     -0.1466134825400E+01
 ZXX      0.1324056365675E+02
 ZXY      0.1429089923078E+01
 ZXZ      0.5874708051520E+02
 ZYY      0.2359663129366E+02
 ZYZ      0.2113739774461E+02
 ZZZ     -0.3683719495041E+02

 roa end


 Electric Dipole Response Matrix (nonzero elements):

              1        2        3      
    1   41.0150  -5.2649  -3.0177
    2   -5.2649  44.0600   3.2596
    3   -3.0177   3.2596  41.5410
 
 Imaginary part:

              1        2        3      
    1    0.1112  -0.0304  -0.0112
    2   -0.0304   0.1294   0.0188
    3   -0.0112   0.0188   0.1234

 ------------------------------------------
 average:        42.20536 + I       0.12137


 DFT Linear Response polarizability / au 
 Frequency  =       0.0931960 / au
 Wavelength =     488.8981609 / nm
              X              Y              Z
 -----------------------------------------------
 X      41.0150250     -5.2649467     -3.0177346
 Y      -5.2649467     44.0599942      3.2595673
 Z      -3.0177346      3.2595673     41.5410461
 -----------------------------------------------
 Eigenvalues =      36.9831386     50.2613182     39.3716085
 Isotropic   =      42.2053551
 Anisotropic =      10.0100053
 -----------------------------------------------
 *************************

 DFT Linear Response IMAG polarizability / au 
 Frequency  =       0.0931960 / au
 Wavelength =     488.8981609 / nm
              X              Y              Z
 -----------------------------------------------
 X       0.1112374     -0.0303957     -0.0111624
 Y      -0.0303957      0.1294372      0.0187591
 Z      -0.0111624      0.0187591      0.1234410
 -----------------------------------------------
 Eigenvalues =       0.0884255      0.1637742      0.1119158
 Isotropic   =       0.1213718
 Anisotropic =       0.0545237
 -----------------------------------------------
 *************************

 Magnetic Dipole Response Matrix (nonzero elements):
 Optical rotation tensor Beta
 (Buckingham-Dunn version including dipole-quadrupole terms)

              1        2        3      
    1    2.6600  -0.4510   0.4254
    2   -0.4510  -1.6541  -1.7147
    3    0.4254  -1.7147  -0.9826
 
 Imaginary part:

              1        2        3      
    1    0.0662  -0.1426  -0.0326
    2    0.0801  -0.0530   0.2553
    3    0.1493  -0.4311  -0.0055

 ------------------------------------------
 average:         0.00778 + I       0.00255

 Principal components and PAS (Real part)
                 -3.06671
                  2.81929
                  0.27074
 ------------------------
 average:         0.00778

              1        2        3      
    1    0.0138   0.9684  -0.2491
    2    0.7735  -0.1683  -0.6110
    3    0.6336   0.1842   0.7514

 Chiral response tensor (Real part):

              1        2        3      
    1   -1.3183   0.2255  -0.2127
    2    0.2255   0.8387   0.8574
    3   -0.2127   0.8574   0.5030
 
 Principal components and PAS (Real part)
                  1.54502
                 -1.39798
                 -0.12371
 ------------------------
 average:         0.00778

              1        2        3      
    1    0.0138   0.9684  -0.2491
    2    0.7735  -0.1683  -0.6110
    3    0.6336   0.1842   0.7514
 Exiting AOResponse driver routine

 Task  times  cpu:      374.2s     wall:      383.8s
 
 
                                NWChem Input Module
                                -------------------
 
 
 Summary of allocated global arrays
-----------------------------------
  No active global arrays



                         GA Statistics for process    0
                         ------------------------------

       create   destroy   get      put      acc     scatter   gather  read&inc
calls: 3294     3294     7.94e+06 3.14e+06 7.48e+05 2694        0     1096     
number of processes/call 1.01e+00 1.03e+00 1.42e+00 0.00e+00 0.00e+00
bytes total:             1.71e+09 1.26e+08 1.76e+09 1.84e+02 0.00e+00 8.77e+03
bytes remote:            7.12e+08 3.29e+07 1.01e+09 0.00e+00 0.00e+00 0.00e+00
Max memory consumed for GA by this process: 11242192 bytes
 
MA_summarize_allocated_blocks: starting scan ...
MA_summarize_allocated_blocks: scan completed: 0 heap blocks, 0 stack blocks
MA usage statistics:

	allocation statistics:
					      heap	     stack
					      ----	     -----
	current number of blocks	         0	         0
	maximum number of blocks	        24	        52
	current total bytes		         0	         0
	maximum total bytes		   7519824	  48565064
	maximum total K-bytes		      7520	     48566
	maximum total M-bytes		         8	        49
 
 
                                     CITATION
                                     --------
                Please cite the following reference when publishing
                           results obtained with NWChem:
 
                 M. Valiev, E.J. Bylaska, N. Govind, K. Kowalski,
              T.P. Straatsma, H.J.J. van Dam, D. Wang, J. Nieplocha,
                        E. Apra, T.L. Windus, W.A. de Jong
                 "NWChem: a comprehensive and scalable open-source
                  solution for large scale molecular simulations"
                      Comput. Phys. Commun. 181, 1477 (2010)
                           doi:10.1016/j.cpc.2010.04.018
 
                                      AUTHORS
                                      -------
          E. Apra, E. J. Bylaska, W. A. de Jong, N. Govind, K. Kowalski,
       T. P. Straatsma, M. Valiev, H. J. J. van Dam, D. Wang, T. L. Windus,
        J. Hammond, J. Autschbach, K. Bhaskaran-Nair, J. Brabec, K. Lopata,
    S. A. Fischer, S. Krishnamoorthy, M. Jacquelin, W. Ma, M. Klemm, O. Villa,
      Y. Chen, V. Anisimov, F. Aquino, S. Hirata, M. T. Hackler, V. Konjkov,
            D. Mejia-Rodriguez, T. Risthaus, M. Malagoli, A. Marenich,
   A. Otero-de-la-Roza, J. Mullin, P. Nichols, R. Peverati, J. Pittner, Y. Zhao,
        P.-D. Fan, A. Fonari, M. J. Williamson, R. J. Harrison, J. R. Rehr,
      M. Dupuis, D. Silverstein, D. M. A. Smith, J. Nieplocha, V. Tipparaju,
    M. Krishnan, B. E. Van Kuiken, A. Vazquez-Mayagoitia, L. Jensen, M. Swart,
      Q. Wu, T. Van Voorhis, A. A. Auer, M. Nooijen, L. D. Crosby, E. Brown,
      G. Cisneros, G. I. Fann, H. Fruchtl, J. Garza, K. Hirao, R. A. Kendall,
      J. A. Nichols, K. Tsemekhman, K. Wolinski, J. Anchell, D. E. Bernholdt,
      P. Borowski, T. Clark, D. Clerc, H. Dachsel, M. J. O. Deegan, K. Dyall,
    D. Elwood, E. Glendening, M. Gutowski, A. C. Hess, J. Jaffe, B. G. Johnson,
     J. Ju, R. Kobayashi, R. Kutteh, Z. Lin, R. Littlefield, X. Long, B. Meng,
      T. Nakajima, S. Niu, L. Pollack, M. Rosing, K. Glaesemann, G. Sandrone,
      M. Stave, H. Taylor, G. Thomas, J. H. van Lenthe, A. T. Wong, Z. Zhang.

 Total times  cpu:      422.3s     wall:      432.8s
