 argument  1 = methyloxirane_blyp-def2-tzvp_488.9_20.inp
 


============================== echo of input deck ==============================
echo
start methyloxirane_blyp-def2-tzvp_488.9_20.inp
title "methyloxirane roa calculations at 488.9 nm, input generated in va  with delta_type=2"
charge 0



geometry units angstrom nocenter noautoz noautosym nucleus point;symmetry c1
 O -0.879086 -0.180348  0.205246
 C  0.574239 -0.157740  0.122927
 C -0.185133  1.086612  0.339881
 C  1.185344 -0.520264 -1.211488
 H  1.056605 -0.601969  0.994478
 H -0.228797  1.545977  1.354827
 H -0.328093  1.795319 -0.509721
 H  2.241976 -0.215967 -1.245776
 H  1.142382 -1.607329 -1.374475
 H  0.652492 -0.027898 -2.032329
end

basis spherical
* library def2-TZVP
end

 set prop:newaoresp 1
 set aor:roadata T
 set cphf:maxsub 100
 set cphf:acc 1.0d-10
 set cphf:maxiter 100

property
    response 1   0.093196
    bdtensor
    convergence 1e-7
    damping 0.0037
    giao
end

dft
 direct
 mult 1
 xc becke88 lyp
 iterations 250
 tolerances tight
 grid xfine
 convergence nolevelshifting
 convergence energy 1e-8
 convergence gradient 1e-7


end

task dft gradient
task dft property
================================================================================


                                         
                                         
 
 
              Northwest Computational Chemistry Package (NWChem) 6.8
              ------------------------------------------------------
 
 
                    Environmental Molecular Sciences Laboratory
                       Pacific Northwest National Laboratory
                                Richland, WA 99352
 
                              Copyright (c) 1994-2017
                       Pacific Northwest National Laboratory
                            Battelle Memorial Institute
 
             NWChem is an open-source computational chemistry package
                        distributed under the terms of the
                      Educational Community License (ECL) 2.0
             A copy of the license is included with this distribution
                              in the LICENSE.TXT file
 
                                  ACKNOWLEDGMENT
                                  --------------

            This software and its documentation were developed at the
            EMSL at Pacific Northwest National Laboratory, a multiprogram
            national laboratory, operated for the U.S. Department of Energy
            by Battelle under Contract Number DE-AC05-76RL01830. Support
            for this work was provided by the Department of Energy Office
            of Biological and Environmental Research, Office of Basic
            Energy Sciences, and the Office of Advanced Scientific Computing.


           Job information
           ---------------

    hostname        = cpn-f15-33.cbls.ccr.buffalo.edu
    program         = /util/academic/nwchem/nwchem-6.8/bin/LINUX64/nwchem
    date            = Fri Mar  1 10:15:57 2019

    compiled        = Tue_Nov_06_14:59:08_2018
    source          = /util/academic/nwchem/nwchem-6.8
    nwchem branch   = 6.8
    nwchem revision = v6.8-47-gdf6c956
    ga revision     = ga-5.6.3
    use scalapack   = F
    input           = methyloxirane_blyp-def2-tzvp_488.9_20.inp
    prefix          = methyloxirane_blyp-def2-tzvp_488.9_20.inp.
    data base       = ./methyloxirane_blyp-def2-tzvp_488.9_20.inp.db
    status          = startup
    nproc           =        7
    time left       =     -1s



           Memory information
           ------------------

    heap     =   13107198 doubles =    100.0 Mbytes
    stack    =   13107195 doubles =    100.0 Mbytes
    global   =   26214400 doubles =    200.0 Mbytes (distinct from heap & stack)
    total    =   52428793 doubles =    400.0 Mbytes
    verify   = yes
    hardfail = no 


           Directory information
           ---------------------
 
  0 permanent = .
  0 scratch   = .
 
 
 
 
                                NWChem Input Module
                                -------------------
 
 
                    methyloxirane roa calculations at 488.9 nm, input generated in va  with delta_type=2
                    ------------------------------------------

 Scaling coordinates for geometry "geometry" by  1.889725989
 (inverse scale =  0.529177249)

 
 
                             Geometry "geometry" -> ""
                             -------------------------
 
 Output coordinates in angstroms (scale by  1.889725989 to convert to a.u.)
 
  No.       Tag          Charge          X              Y              Z
 ---- ---------------- ---------- -------------- -------------- --------------
    1 O                    8.0000    -0.87908600    -0.18034800     0.20524600
    2 C                    6.0000     0.57423900    -0.15774000     0.12292700
    3 C                    6.0000    -0.18513300     1.08661200     0.33988100
    4 C                    6.0000     1.18534400    -0.52026400    -1.21148800
    5 H                    1.0000     1.05660500    -0.60196900     0.99447800
    6 H                    1.0000    -0.22879700     1.54597700     1.35482700
    7 H                    1.0000    -0.32809300     1.79531900    -0.50972100
    8 H                    1.0000     2.24197600    -0.21596700    -1.24577600
    9 H                    1.0000     1.14238200    -1.60732900    -1.37447500
   10 H                    1.0000     0.65249200    -0.02789800    -2.03232900
 
      Atomic Mass 
      ----------- 
 
      O                 15.994910
      C                 12.000000
      H                  1.007825
 

 Effective nuclear repulsion energy (a.u.)     123.4067187459

            Nuclear Dipole moment (a.u.) 
            ----------------------------
        X                 Y               Z
 ---------------- ---------------- ----------------
    13.1346859925     3.5848045312   -10.7017223637
 
 
            XYZ format geometry
            -------------------
    10
 geometry
 O                    -0.87908600    -0.18034800     0.20524600
 C                     0.57423900    -0.15774000     0.12292700
 C                    -0.18513300     1.08661200     0.33988100
 C                     1.18534400    -0.52026400    -1.21148800
 H                     1.05660500    -0.60196900     0.99447800
 H                    -0.22879700     1.54597700     1.35482700
 H                    -0.32809300     1.79531900    -0.50972100
 H                     2.24197600    -0.21596700    -1.24577600
 H                     1.14238200    -1.60732900    -1.37447500
 H                     0.65249200    -0.02789800    -2.03232900
 
 ==============================================================================
                                internuclear distances
 ------------------------------------------------------------------------------
       center one      |      center two      | atomic units |  angstroms
 ------------------------------------------------------------------------------
    2 C                |   1 O                |     2.75112  |     1.45583
    3 C                |   1 O                |     2.74166  |     1.45082
    3 C                |   2 C                |     2.78510  |     1.47381
    4 C                |   2 C                |     2.85689  |     1.51180
    5 H                |   2 C                |     2.06112  |     1.09070
    6 H                |   3 C                |     2.10689  |     1.11492
    7 H                |   3 C                |     2.10815  |     1.11558
    8 H                |   4 C                |     2.07891  |     1.10011
    9 H                |   4 C                |     2.07880  |     1.10005
   10 H                |   4 C                |     2.07021  |     1.09551
 ------------------------------------------------------------------------------
                         number of included internuclear distances:         10
 ==============================================================================



 ==============================================================================
                                 internuclear angles
 ------------------------------------------------------------------------------
        center 1       |       center 2       |       center 3       |  degrees
 ------------------------------------------------------------------------------
    2 C                |   1 O                |   3 C                |    60.93
    2 C                |   1 O                |   3 C                |    60.93
    1 O                |   2 C                |   4 C                |   116.73
    1 O                |   2 C                |   5 H                |   112.95
    3 C                |   2 C                |   4 C                |   122.73
    3 C                |   2 C                |   5 H                |   117.01
    4 C                |   2 C                |   5 H                |   115.40
    3 C                |   1 O                |   2 C                |    60.93
    1 O                |   3 C                |   6 H                |   115.19
    1 O                |   3 C                |   7 H                |   115.01
    2 C                |   3 C                |   6 H                |   120.14
    2 C                |   3 C                |   7 H                |   119.36
    6 H                |   3 C                |   7 H                |   115.25
    2 C                |   4 C                |   8 H                |   110.45
    2 C                |   4 C                |   9 H                |   110.61
    2 C                |   4 C                |  10 H                |   110.91
    8 H                |   4 C                |   9 H                |   107.83
    8 H                |   4 C                |  10 H                |   108.63
    9 H                |   4 C                |  10 H                |   108.31
 ------------------------------------------------------------------------------
                            number of included internuclear angles:         19
 ==============================================================================



  warning:::::::::::::: from_environment
  NWCHEM_BASIS_LIBRARY set to: <
 /util/academic/nwchem/nwchem-6.8/src/basis/libraries>
  but file does not exist !
  using .nwchemrc or compiled library


 Summary of "ao basis" -> "" (spherical)
 ------------------------------------------------------------------------------
       Tag                 Description            Shells   Functions and Types
 ---------------- ------------------------------  ------  ---------------------
 *                         def2-TZVP                  on all atoms 


 
                                 NWChem DFT Module
                                 -----------------
 
 
                    methyloxirane roa calculations at 488.9 nm, input generated in va  with delta_type=2
 
 
                      Basis "ao basis" -> "ao basis" (spherical)
                      -----
  O (Oxygen)
  ----------
            Exponent  Coefficients 
       -------------- ---------------------------------------------------------
  1 S  2.70323826E+04  0.000217
  1 S  4.05238714E+03  0.001684
  1 S  9.22327227E+02  0.008740
  1 S  2.61240710E+02  0.035240
  1 S  8.53546414E+01  0.111535
  1 S  3.10350352E+01  0.255890
 
  2 S  1.22608607E+01  0.397687
  2 S  4.99870760E+00  0.246278
 
  3 S  1.17031082E+00  1.000000
 
  4 S  4.64747410E-01  1.000000
 
  5 S  1.85045364E-01  1.000000
 
  6 P  6.32749548E+01  0.006069
  6 P  1.46270494E+01  0.041913
  6 P  4.45012235E+00  0.161538
  6 P  1.52757996E+00  0.357070
 
  7 P  5.29351179E-01  1.000000
 
  8 P  1.74784213E-01  1.000000
 
  9 D  2.31400000E+00  1.000000
 
 10 D  6.45000000E-01  1.000000
 
 11 F  1.42800000E+00  1.000000
 
  C (Carbon)
  ----------
            Exponent  Coefficients 
       -------------- ---------------------------------------------------------
  1 S  1.35753497E+04  0.000222
  1 S  2.03523337E+03  0.001723
  1 S  4.63225624E+02  0.008926
  1 S  1.31200196E+02  0.035728
  1 S  4.28530159E+01  0.110763
  1 S  1.55841858E+01  0.242956
 
  2 S  6.20671385E+00  0.414403
  2 S  2.57648965E+00  0.237450
 
  3 S  5.76963394E-01  1.000000
 
  4 S  2.29728314E-01  1.000000
 
  5 S  9.51644400E-02  1.000000
 
  6 P  3.46972322E+01  0.005333
  6 P  7.95826228E+00  0.035864
  6 P  2.37808269E+00  0.142159
  6 P  8.14332082E-01  0.342705
 
  7 P  2.88875473E-01  1.000000
 
  8 P  1.00568237E-01  1.000000
 
  9 D  1.09700000E+00  1.000000
 
 10 D  3.18000000E-01  1.000000
 
 11 F  7.61000000E-01  1.000000
 
  H (Hydrogen)
  ------------
            Exponent  Coefficients 
       -------------- ---------------------------------------------------------
  1 S  3.40613410E+01  0.006025
  1 S  5.12357460E+00  0.045021
  1 S  1.16466260E+00  0.201897
 
  2 S  3.27230410E-01  1.000000
 
  3 S  1.03072410E-01  1.000000
 
  4 P  8.00000000E-01  1.000000
 


 Summary of "ao basis" -> "ao basis" (spherical)
 ------------------------------------------------------------------------------
       Tag                 Description            Shells   Functions and Types
 ---------------- ------------------------------  ------  ---------------------
 O                         def2-TZVP                11       31   5s3p2d1f
 C                         def2-TZVP                11       31   5s3p2d1f
 H                         def2-TZVP                 4        6   3s1p




 Summary of "ao basis" -> "ao basis" (spherical)
 ------------------------------------------------------------------------------
       Tag                 Description            Shells   Functions and Types
 ---------------- ------------------------------  ------  ---------------------
 O                         def2-TZVP                11       31   5s3p2d1f
 C                         def2-TZVP                11       31   5s3p2d1f
 H                         def2-TZVP                 4        6   3s1p


  Caching 1-el integrals 
  itol2e modified to match energy
  convergence criterion.
  tol_rho modified to match energy
  convergence criterion.
 
            General Information
            -------------------
          SCF calculation type: DFT
          Wavefunction type:  closed shell.
          No. of atoms     :    10
          No. of electrons :    32
           Alpha electrons :    16
            Beta electrons :    16
          Charge           :     0
          Spin multiplicity:     1
          Use of symmetry is: off; symmetry adaption is: off
          Maximum number of iterations: 250
          This is a Direct SCF calculation.
          AO basis - number of functions:   160
                     number of shells:    68
          Convergence on energy requested:  1.00D-08
          Convergence on density requested:  1.00D-05
          Convergence on gradient requested:  1.00D-07
 
              XC Information
              --------------
                    Becke 1988 Exchange Functional  1.000          
              Lee-Yang-Parr Correlation Functional  1.000          
 
             Grid Information
             ----------------
          Grid used for XC integration:  xfine     
          Radial quadrature: Mura-Knowles        
          Angular quadrature: Lebedev. 
          Tag              B.-S. Rad. Rad. Pts. Rad. Cut. Ang. Pts.
          ---              ---------- --------- --------- ---------
          O                   0.60      100          11.0      1454
          C                   0.70      100          11.0      1454
          H                   0.35      100          12.0      1202
          Grid pruning is: on 
          Number of quadrature shells:  1000
          Spatial weights used:  Erf1
 
          Convergence Information
          -----------------------
          Convergence aids based upon iterative change in 
          total energy or number of iterations. 
          Levelshifting, if invoked, occurs when the 
          HOMO/LUMO gap drops below (HL_TOL):  1.00D-02
          DIIS, if invoked, will attempt to extrapolate 
          using up to (NFOCK): 10 stored Fock matrices.

                    Damping( 0%)  Levelshifting(0.0)       DIIS
                  --------------- ------------------- ---------------
          dE  on:    start             N/A                start   
          dE off:    2 iters           N/A              250 iters 

 
      Screening Tolerance Information
      -------------------------------
          Density screening/tol_rho:  1.00D-11
          AO Gaussian exp screening on grid/accAOfunc:  18
          CD Gaussian exp screening on grid/accCDfunc:  20
          XC Gaussian exp screening on grid/accXCfunc:  20
          Schwarz screening/accCoul:  1.00D-09

 
      Superposition of Atomic Density Guess
      -------------------------------------
 
 Sum of atomic energies:        -190.79714706
 
      Non-variational initial energy
      ------------------------------

 Total energy =    -193.138247
 1-e energy   =    -501.811473
 2-e energy   =     185.266507
 HOMO         =      -0.350706
 LUMO         =       0.090548
 
   Time after variat. SCF:      0.5
   Time prior to 1st pass:      0.5

 Grid_pts file          = ./methyloxirane_blyp-def2-tzvp_488.9_20.inp.gridpts.0
 Record size in doubles =  12289        No. of grid_pts per rec  =   3070
 Max. records in memory =     76        Max. recs in file   =   1218515


           Memory utilization after 1st SCF pass: 
           Heap Space remaining (MW):       12.17            12167542
          Stack Space remaining (MW):       13.11            13106116

   convergence    iter        energy       DeltaE   RMS-Dens  Diis-err    time
 ---------------- ----- ----------------- --------- --------- ---------  ------
 d= 0,ls=0.0,diis     1   -193.0187428109 -3.16D+02  9.17D-03  1.07D+00     4.6
 d= 0,ls=0.0,diis     2   -192.8519613805  1.67D-01  7.59D-03  2.62D+00     8.5
 d= 0,ls=0.0,diis     3   -193.0768670265 -2.25D-01  1.82D-03  3.84D-01    12.5
 d= 0,ls=0.0,diis     4   -193.1066663383 -2.98D-02  6.96D-04  1.89D-02    16.4
 d= 0,ls=0.0,diis     5   -193.1084031667 -1.74D-03  2.96D-04  2.81D-03    20.4
 d= 0,ls=0.0,diis     6   -193.1087548130 -3.52D-04  3.20D-05  3.77D-05    24.3
 d= 0,ls=0.0,diis     7   -193.1087589752 -4.16D-06  1.21D-05  6.54D-06    28.2
 d= 0,ls=0.0,diis     8   -193.1087597390 -7.64D-07  2.74D-06  5.71D-07    32.1
 d= 0,ls=0.0,diis     9   -193.1087598042 -6.52D-08  5.70D-07  2.90D-08    36.0
 d= 0,ls=0.0,diis    10   -193.1087598071 -2.90D-09  2.19D-07  2.87D-09    40.0


         Total DFT energy =     -193.108759807097
      One electron energy =     -505.438310637190
           Coulomb energy =      215.930819313819
    Exchange-Corr. energy =      -27.007987229648
 Nuclear repulsion energy =      123.406718745921

 Numeric. integr. density =       31.999999969759

     Total iterative time =     39.5s


 
                       DFT Final Molecular Orbital Analysis
                       ------------------------------------
 
 Vector    1  Occ=2.000000D+00  E=-1.878035D+01
              MO Center= -8.8D-01, -1.8D-01,  2.1D-01, r^2= 1.5D-02
   Bfn.  Coefficient  Atom+Function         Bfn.  Coefficient  Atom+Function  
  ----- ------------  ---------------      ----- ------------  ---------------
     2      0.638477   1 O  s                 1      0.435422   1 O  s         
     3      0.039892   1 O  s                 4     -0.033258   1 O  s         
 
 Vector    2  Occ=2.000000D+00  E=-9.963069D+00
              MO Center=  5.7D-01, -1.6D-01,  1.2D-01, r^2= 2.9D-02
   Bfn.  Coefficient  Atom+Function         Bfn.  Coefficient  Atom+Function  
  ----- ------------  ---------------      ----- ------------  ---------------
    33      0.606743   2 C  s                32      0.467133   2 C  s         
    34      0.042496   2 C  s                36      0.037258   2 C  s         
    35     -0.026948   2 C  s         
 
 Vector    3  Occ=2.000000D+00  E=-9.959562D+00
              MO Center= -1.8D-01,  1.1D+00,  3.4D-01, r^2= 2.9D-02
   Bfn.  Coefficient  Atom+Function         Bfn.  Coefficient  Atom+Function  
  ----- ------------  ---------------      ----- ------------  ---------------
    64      0.606934   3 C  s                63      0.467115   3 C  s         
    65      0.039478   3 C  s         
 
 Vector    4  Occ=2.000000D+00  E=-9.908109D+00
              MO Center=  1.2D+00, -5.2D-01, -1.2D+00, r^2= 2.8D-02
   Bfn.  Coefficient  Atom+Function         Bfn.  Coefficient  Atom+Function  
  ----- ------------  ---------------      ----- ------------  ---------------
    95      0.606961   4 C  s                94      0.467215   4 C  s         
    96      0.040601   4 C  s                98      0.035690   4 C  s         
 
 Vector    5  Occ=2.000000D+00  E=-9.633700D-01
              MO Center= -4.7D-01,  5.5D-02,  2.1D-01, r^2= 6.5D-01
   Bfn.  Coefficient  Atom+Function         Bfn.  Coefficient  Atom+Function  
  ----- ------------  ---------------      ----- ------------  ---------------
     4      0.375437   1 O  s                 3      0.277458   1 O  s         
     2     -0.192823   1 O  s                34      0.139817   2 C  s         
    65      0.139165   3 C  s                 5      0.122724   1 O  s         
    35      0.105601   2 C  s                 6      0.093430   1 O  px        
    66      0.093017   3 C  s                69     -0.092271   3 C  py        
 
 Vector    6  Occ=2.000000D+00  E=-6.700481D-01
              MO Center=  9.4D-01, -3.9D-01, -7.7D-01, r^2= 1.5D+00
   Bfn.  Coefficient  Atom+Function         Bfn.  Coefficient  Atom+Function  
  ----- ------------  ---------------      ----- ------------  ---------------
    97      0.284728   4 C  s                96      0.275927   4 C  s         
    35      0.185901   2 C  s                34      0.175076   2 C  s         
    95     -0.173743   4 C  s                 4     -0.147811   1 O  s         
    33     -0.109412   2 C  s                 3     -0.103344   1 O  s         
    94     -0.083249   4 C  s                 5     -0.073261   1 O  s         
 
 Vector    7  Occ=2.000000D+00  E=-5.869493D-01
              MO Center= -1.1D-01,  6.7D-01,  2.0D-01, r^2= 2.0D+00
   Bfn.  Coefficient  Atom+Function         Bfn.  Coefficient  Atom+Function  
  ----- ------------  ---------------      ----- ------------  ---------------
    66      0.322970   3 C  s                65      0.274933   3 C  s         
     4     -0.242237   1 O  s                 3     -0.171495   1 O  s         
    64     -0.169375   3 C  s                 5     -0.151151   1 O  s         
     2      0.113102   1 O  s                38      0.106625   2 C  py        
    97     -0.104341   4 C  s               132      0.098148   6 H  s         
 
 Vector    8  Occ=2.000000D+00  E=-5.296861D-01
              MO Center=  4.1D-01,  3.4D-02, -8.7D-02, r^2= 2.7D+00
   Bfn.  Coefficient  Atom+Function         Bfn.  Coefficient  Atom+Function  
  ----- ------------  ---------------      ----- ------------  ---------------
    35      0.299989   2 C  s                34      0.222094   2 C  s         
    66     -0.165898   3 C  s                97     -0.152611   4 C  s         
    33     -0.136674   2 C  s               126      0.133979   5 H  s         
    96     -0.126646   4 C  s                65     -0.108763   3 C  s         
   125      0.107180   5 H  s                 6      0.104244   1 O  px        
 
 Vector    9  Occ=2.000000D+00  E=-4.467034D-01
              MO Center=  1.2D-01,  2.6D-01,  2.5D-01, r^2= 2.5D+00
   Bfn.  Coefficient  Atom+Function         Bfn.  Coefficient  Atom+Function  
  ----- ------------  ---------------      ----- ------------  ---------------
    70      0.201719   3 C  pz               39      0.156854   2 C  pz        
   132      0.141779   6 H  s                73      0.128840   3 C  pz        
     8      0.127029   1 O  pz              126      0.118274   5 H  s         
     6     -0.115707   1 O  px               37      0.108778   2 C  px        
    38     -0.107824   2 C  py              131      0.104297   6 H  s         
 
 Vector   10  Occ=2.000000D+00  E=-4.126163D-01
              MO Center=  5.2D-02,  2.9D-01, -2.5D-01, r^2= 2.6D+00
   Bfn.  Coefficient  Atom+Function         Bfn.  Coefficient  Atom+Function  
  ----- ------------  ---------------      ----- ------------  ---------------
    69      0.213476   3 C  py              101      0.156311   4 C  pz        
   138      0.153696   7 H  s                 6     -0.144058   1 O  px        
    38     -0.135173   2 C  py               37      0.128350   2 C  px        
    72      0.121102   3 C  py                7     -0.118565   1 O  py        
    70     -0.116722   3 C  pz                9     -0.115144   1 O  px        
 
 Vector   11  Occ=2.000000D+00  E=-3.765684D-01
              MO Center=  9.1D-01, -3.2D-01, -7.5D-01, r^2= 2.7D+00
   Bfn.  Coefficient  Atom+Function         Bfn.  Coefficient  Atom+Function  
  ----- ------------  ---------------      ----- ------------  ---------------
    99      0.207865   4 C  px              144      0.184828   8 H  s         
   100      0.168897   4 C  py              150     -0.143479   9 H  s         
   102      0.133346   4 C  px              143      0.129309   8 H  s         
    37      0.126345   2 C  px                6     -0.116338   1 O  px        
     7      0.114195   1 O  py              103      0.111775   4 C  py        
 
 Vector   12  Occ=2.000000D+00  E=-3.557773D-01
              MO Center=  5.9D-01, -3.4D-01, -8.9D-01, r^2= 2.8D+00
   Bfn.  Coefficient  Atom+Function         Bfn.  Coefficient  Atom+Function  
  ----- ------------  ---------------      ----- ------------  ---------------
   100      0.252987   4 C  py              150     -0.183395   9 H  s         
   156      0.180464  10 H  s                 7     -0.171148   1 O  py        
   103      0.163800   4 C  py               10     -0.137019   1 O  py        
   149     -0.127613   9 H  s               155      0.127791  10 H  s         
    70      0.112402   3 C  pz              106      0.102833   4 C  py        
 
 Vector   13  Occ=2.000000D+00  E=-3.280042D-01
              MO Center=  3.0D-01,  2.7D-01, -2.3D-01, r^2= 2.8D+00
   Bfn.  Coefficient  Atom+Function         Bfn.  Coefficient  Atom+Function  
  ----- ------------  ---------------      ----- ------------  ---------------
    39      0.204341   2 C  pz              101     -0.179667   4 C  pz        
     7     -0.177823   1 O  py               70     -0.169902   3 C  pz        
   138      0.164412   7 H  s                99      0.144925   4 C  px        
    10     -0.143656   1 O  py               42      0.138628   2 C  pz        
   104     -0.126830   4 C  pz               73     -0.109468   3 C  pz        
 
 Vector   14  Occ=2.000000D+00  E=-3.213131D-01
              MO Center=  4.1D-01, -2.6D-02, -2.0D-01, r^2= 3.0D+00
   Bfn.  Coefficient  Atom+Function         Bfn.  Coefficient  Atom+Function  
  ----- ------------  ---------------      ----- ------------  ---------------
     7      0.195119   1 O  py              126      0.168896   5 H  s         
    10      0.160118   1 O  py              156      0.153417  10 H  s         
    39      0.145581   2 C  pz               99     -0.145957   4 C  px        
     6     -0.139326   1 O  px              101     -0.132853   4 C  pz        
    37      0.125510   2 C  px              144     -0.123928   8 H  s         
 
 Vector   15  Occ=2.000000D+00  E=-2.638404D-01
              MO Center=  1.6D-02,  1.5D-01,  3.4D-02, r^2= 2.3D+00
   Bfn.  Coefficient  Atom+Function         Bfn.  Coefficient  Atom+Function  
  ----- ------------  ---------------      ----- ------------  ---------------
    68      0.263975   3 C  px               38      0.256624   2 C  py        
     6     -0.237664   1 O  px               41      0.199874   2 C  py        
    71      0.195627   3 C  px                9     -0.185920   1 O  px        
    12     -0.157087   1 O  px              150      0.115145   9 H  s         
   100     -0.111117   4 C  py               67      0.105532   3 C  s         
 
 Vector   16  Occ=2.000000D+00  E=-2.200101D-01
              MO Center= -5.8D-01, -1.4D-02,  2.0D-01, r^2= 1.6D+00
   Bfn.  Coefficient  Atom+Function         Bfn.  Coefficient  Atom+Function  
  ----- ------------  ---------------      ----- ------------  ---------------
     8      0.448159   1 O  pz               11      0.356994   1 O  pz        
    14      0.295503   1 O  pz              133     -0.132585   6 H  s         
   139      0.118077   7 H  s               132     -0.106334   6 H  s         
   138      0.105707   7 H  s               145     -0.101879   8 H  s         
   126     -0.095732   5 H  s                98      0.087901   4 C  s         
 
 Vector   17  Occ=0.000000D+00  E= 2.491203D-02
              MO Center=  1.1D+00,  9.8D-03, -5.5D-01, r^2= 7.4D+00
   Bfn.  Coefficient  Atom+Function         Bfn.  Coefficient  Atom+Function  
  ----- ------------  ---------------      ----- ------------  ---------------
    98      4.343012   4 C  s               145     -1.468502   8 H  s         
   151     -1.459319   9 H  s               157     -1.320645  10 H  s         
   127     -1.212509   5 H  s                45      1.087085   2 C  pz        
   139     -0.923363   7 H  s                67      0.847805   3 C  s         
   133     -0.692162   6 H  s                66      0.325706   3 C  s         
 
 Vector   18  Occ=0.000000D+00  E= 4.317383D-02
              MO Center= -1.0D-01,  6.4D-01,  9.1D-02, r^2= 4.6D+00
   Bfn.  Coefficient  Atom+Function         Bfn.  Coefficient  Atom+Function  
  ----- ------------  ---------------      ----- ------------  ---------------
    98      2.205590   4 C  s                36     -1.872723   2 C  s         
     5      1.303802   1 O  s                74      0.915305   3 C  px        
   151     -0.837004   9 H  s                45      0.532264   2 C  pz        
    13      0.441214   1 O  py              157     -0.418035  10 H  s         
   145     -0.404450   8 H  s                75      0.376561   3 C  py        
 
 Vector   19  Occ=0.000000D+00  E= 4.828378D-02
              MO Center=  3.1D-01,  9.1D-01, -1.0D-02, r^2= 6.7D+00
   Bfn.  Coefficient  Atom+Function         Bfn.  Coefficient  Atom+Function  
  ----- ------------  ---------------      ----- ------------  ---------------
    67      3.692590   3 C  s                98     -1.772690   4 C  s         
    36     -1.742445   2 C  s               139     -1.501694   7 H  s         
   133     -1.215624   6 H  s               145      1.116156   8 H  s         
    44     -0.970802   2 C  py              127      0.846471   5 H  s         
    45     -0.713709   2 C  pz               74      0.593946   3 C  px        
 
 Vector   20  Occ=0.000000D+00  E= 5.014571D-02
              MO Center=  6.4D-01,  2.0D-01,  2.6D-01, r^2= 7.5D+00
   Bfn.  Coefficient  Atom+Function         Bfn.  Coefficient  Atom+Function  
  ----- ------------  ---------------      ----- ------------  ---------------
    98      3.068218   4 C  s                36     -2.266423   2 C  s         
   127      1.939970   5 H  s               133      1.390889   6 H  s         
   157     -1.393197  10 H  s                76     -0.777585   3 C  pz        
    43     -0.768504   2 C  px              139     -0.739533   7 H  s         
   145     -0.705747   8 H  s                44      0.592976   2 C  py        
 
 Vector   21  Occ=0.000000D+00  E= 6.367676D-02
              MO Center=  3.0D-01,  2.8D-02, -1.5D-01, r^2= 4.5D+00
   Bfn.  Coefficient  Atom+Function         Bfn.  Coefficient  Atom+Function  
  ----- ------------  ---------------      ----- ------------  ---------------
    98      1.146852   4 C  s               139      1.091898   7 H  s         
   151     -0.935324   9 H  s                 5     -0.909853   1 O  s         
    43     -0.810107   2 C  px               75     -0.601032   3 C  py        
    67     -0.578291   3 C  s                12     -0.489083   1 O  px        
   133      0.426858   6 H  s                44     -0.397123   2 C  py        
 
 Vector   22  Occ=0.000000D+00  E= 8.577178D-02
              MO Center=  1.2D+00,  2.4D-01, -3.7D-01, r^2= 7.3D+00
   Bfn.  Coefficient  Atom+Function         Bfn.  Coefficient  Atom+Function  
  ----- ------------  ---------------      ----- ------------  ---------------
    36      3.166656   2 C  s               145      1.882418   8 H  s         
    67     -1.453181   3 C  s               127     -1.440054   5 H  s         
   133      1.257043   6 H  s               157     -1.224537  10 H  s         
   107     -1.174840   4 C  pz               98     -1.151618   4 C  s         
   105     -0.889211   4 C  px               75      0.801151   3 C  py        
 
 Vector   23  Occ=0.000000D+00  E= 9.063233D-02
              MO Center=  1.3D+00, -6.0D-01, -5.6D-01, r^2= 6.5D+00
   Bfn.  Coefficient  Atom+Function         Bfn.  Coefficient  Atom+Function  
  ----- ------------  ---------------      ----- ------------  ---------------
    36      2.361882   2 C  s               151      1.991018   9 H  s         
   145     -1.715972   8 H  s                98     -1.313014   4 C  s         
   105      1.228714   4 C  px              106      1.075494   4 C  py        
   133      0.894249   6 H  s               127     -0.796795   5 H  s         
    67     -0.759170   3 C  s                44     -0.664226   2 C  py        
 
 Vector   24  Occ=0.000000D+00  E= 1.012458D-01
              MO Center=  4.5D-01,  3.0D-01, -1.2D+00, r^2= 6.6D+00
   Bfn.  Coefficient  Atom+Function         Bfn.  Coefficient  Atom+Function  
  ----- ------------  ---------------      ----- ------------  ---------------
   157      2.136541  10 H  s               151     -1.524285   9 H  s         
   106     -1.512534   4 C  py              133      1.410583   6 H  s         
   139     -1.358344   7 H  s                98     -1.327986   4 C  s         
    76     -1.069853   3 C  pz               36      0.982812   2 C  s         
   105      0.936491   4 C  px               45     -0.495241   2 C  pz        
 
 Vector   25  Occ=0.000000D+00  E= 1.385131D-01
              MO Center=  8.2D-01,  1.5D-01, -4.8D-01, r^2= 7.8D+00
   Bfn.  Coefficient  Atom+Function         Bfn.  Coefficient  Atom+Function  
  ----- ------------  ---------------      ----- ------------  ---------------
    36      4.720143   2 C  s                98     -3.590201   4 C  s         
    45     -3.428478   2 C  pz               67     -2.855332   3 C  s         
   127      2.764414   5 H  s               105      2.109566   4 C  px        
    76      2.098792   3 C  pz              133     -1.660034   6 H  s         
   139      1.595186   7 H  s               107     -1.580707   4 C  pz        
 
 Vector   26  Occ=0.000000D+00  E= 1.700456D-01
              MO Center=  4.3D-01,  5.6D-01, -1.3D-01, r^2= 7.3D+00
   Bfn.  Coefficient  Atom+Function         Bfn.  Coefficient  Atom+Function  
  ----- ------------  ---------------      ----- ------------  ---------------
    75      2.332690   3 C  py               67     -1.711234   3 C  s         
   107      1.621597   4 C  pz               36      1.606516   2 C  s         
   139     -1.093187   7 H  s               157      1.077909  10 H  s         
    74     -0.984866   3 C  px               44      0.748357   2 C  py        
    43     -0.622043   2 C  px              106     -0.563874   4 C  py        
 
 Vector   27  Occ=0.000000D+00  E= 1.973304D-01
              MO Center=  8.3D-01, -7.2D-02, -9.9D-01, r^2= 5.1D+00
   Bfn.  Coefficient  Atom+Function         Bfn.  Coefficient  Atom+Function  
  ----- ------------  ---------------      ----- ------------  ---------------
    67      2.997376   3 C  s                44     -2.582101   2 C  py        
   106      2.003600   4 C  py               36     -1.677159   2 C  s         
    43      0.973846   2 C  px               74      0.727591   3 C  px        
    45     -0.698265   2 C  pz              105      0.698993   4 C  px        
   157     -0.678203  10 H  s               150      0.644362   9 H  s         
 
 Vector   28  Occ=0.000000D+00  E= 2.014961D-01
              MO Center=  9.5D-01, -4.4D-01, -6.9D-01, r^2= 6.7D+00
   Bfn.  Coefficient  Atom+Function         Bfn.  Coefficient  Atom+Function  
  ----- ------------  ---------------      ----- ------------  ---------------
    36      2.691537   2 C  s                75      1.688492   3 C  py        
   105     -1.417046   4 C  px              133     -1.138906   6 H  s         
   107     -0.885823   4 C  pz              106      0.817610   4 C  py        
    45      0.788723   2 C  pz              156     -0.719895  10 H  s         
   139     -0.681991   7 H  s                76      0.666022   3 C  pz        
 
 Vector   29  Occ=0.000000D+00  E= 2.359859D-01
              MO Center= -2.8D-01,  3.5D-01, -6.7D-02, r^2= 5.4D+00
   Bfn.  Coefficient  Atom+Function         Bfn.  Coefficient  Atom+Function  
  ----- ------------  ---------------      ----- ------------  ---------------
    67      4.207087   3 C  s                36     -3.024621   2 C  s         
    66     -1.450371   3 C  s               139     -1.439592   7 H  s         
    98      1.296344   4 C  s               133     -1.183061   6 H  s         
   107      1.041310   4 C  pz               74     -0.801316   3 C  px        
     5     -0.743447   1 O  s               106      0.740845   4 C  py        
 
 Vector   30  Occ=0.000000D+00  E= 2.471629D-01
              MO Center=  5.4D-01,  1.9D-02, -7.4D-02, r^2= 5.9D+00
   Bfn.  Coefficient  Atom+Function         Bfn.  Coefficient  Atom+Function  
  ----- ------------  ---------------      ----- ------------  ---------------
    67      6.128716   3 C  s                43      4.212781   2 C  px        
    75     -2.998323   3 C  py               44     -2.638242   2 C  py        
    36     -2.256963   2 C  s               107     -2.037457   4 C  pz        
   157     -1.844402  10 H  s                45     -1.457436   2 C  pz        
    98     -1.298891   4 C  s               105     -1.227353   4 C  px        
 
 Vector   31  Occ=0.000000D+00  E= 2.684104D-01
              MO Center=  2.8D-01, -1.6D-01,  2.5D-01, r^2= 5.6D+00
   Bfn.  Coefficient  Atom+Function         Bfn.  Coefficient  Atom+Function  
  ----- ------------  ---------------      ----- ------------  ---------------
    36      4.383855   2 C  s                 5     -2.238530   1 O  s         
    67      2.105605   3 C  s               105      1.505746   4 C  px        
    43     -1.498132   2 C  px               66     -1.167715   3 C  s         
    98     -1.171726   4 C  s               127     -0.914472   5 H  s         
   139     -0.874512   7 H  s               106     -0.815087   4 C  py        
 
 Vector   32  Occ=0.000000D+00  E= 2.777335D-01
              MO Center=  4.2D-01,  3.3D-01,  3.1D-01, r^2= 4.1D+00
   Bfn.  Coefficient  Atom+Function         Bfn.  Coefficient  Atom+Function  
  ----- ------------  ---------------      ----- ------------  ---------------
    36      2.449759   2 C  s                 5     -1.710877   1 O  s         
    67     -1.616938   3 C  s                43     -1.300056   2 C  px        
    74     -0.735257   3 C  px               98     -0.659737   4 C  s         
    45     -0.645028   2 C  pz              145      0.569666   8 H  s         
     4      0.493236   1 O  s                66      0.394333   3 C  s         
 
 Vector   33  Occ=0.000000D+00  E= 3.009620D-01
              MO Center=  4.5D-01,  3.7D-01, -3.8D-01, r^2= 5.0D+00
   Bfn.  Coefficient  Atom+Function         Bfn.  Coefficient  Atom+Function  
  ----- ------------  ---------------      ----- ------------  ---------------
    43      1.910205   2 C  px              106      1.765648   4 C  py        
   151      1.668361   9 H  s                98     -1.603055   4 C  s         
    36     -1.333971   2 C  s                44     -1.283263   2 C  py        
    76      1.144683   3 C  pz              107     -1.042623   4 C  pz        
    66      1.033373   3 C  s                 5      0.817851   1 O  s         
 
 Vector   34  Occ=0.000000D+00  E= 3.372875D-01
              MO Center=  9.4D-02,  4.6D-01, -4.1D-01, r^2= 5.9D+00
   Bfn.  Coefficient  Atom+Function         Bfn.  Coefficient  Atom+Function  
  ----- ------------  ---------------      ----- ------------  ---------------
    67      4.652338   3 C  s                76     -3.985192   3 C  pz        
   139     -3.115460   7 H  s                36     -2.509670   2 C  s         
   133      1.977456   6 H  s               107     -1.768338   4 C  pz        
   157     -1.776438  10 H  s                98      1.651037   4 C  s         
    43      1.374464   2 C  px               44     -1.174359   2 C  py        
 
 Vector   35  Occ=0.000000D+00  E= 3.624402D-01
              MO Center=  7.5D-01,  2.1D-02, -3.3D-01, r^2= 6.7D+00
   Bfn.  Coefficient  Atom+Function         Bfn.  Coefficient  Atom+Function  
  ----- ------------  ---------------      ----- ------------  ---------------
    98      7.350620   4 C  s                76      3.187614   3 C  pz        
   145     -3.172975   8 H  s                97     -3.011964   4 C  s         
   133     -2.166855   6 H  s               151     -1.805696   9 H  s         
    36      1.651135   2 C  s                67     -1.652448   3 C  s         
   139      1.658662   7 H  s                44      1.590276   2 C  py        
 
 Vector   36  Occ=0.000000D+00  E= 3.704918D-01
              MO Center=  4.8D-01,  3.6D-01, -2.2D-01, r^2= 6.4D+00
   Bfn.  Coefficient  Atom+Function         Bfn.  Coefficient  Atom+Function  
  ----- ------------  ---------------      ----- ------------  ---------------
    36     11.857668   2 C  s                98     -9.181706   4 C  s         
    67     -8.110706   3 C  s                97      2.618314   4 C  s         
   127     -2.624320   5 H  s               157      2.187804  10 H  s         
    44      1.951188   2 C  py              151      1.835911   9 H  s         
    35     -1.553714   2 C  s                74     -1.498940   3 C  px        
 
 Vector   37  Occ=0.000000D+00  E= 3.840853D-01
              MO Center=  9.1D-01, -3.5D-01, -3.9D-03, r^2= 6.0D+00
   Bfn.  Coefficient  Atom+Function         Bfn.  Coefficient  Atom+Function  
  ----- ------------  ---------------      ----- ------------  ---------------
    36      7.555096   2 C  s               127     -4.487575   5 H  s         
    67     -3.009675   3 C  s                45      2.945040   2 C  pz        
    98      2.868353   4 C  s                35     -2.463947   2 C  s         
   151     -1.975628   9 H  s                76     -1.863502   3 C  pz        
   145     -1.851854   8 H  s                43      1.512244   2 C  px        
 
 Vector   38  Occ=0.000000D+00  E= 3.932395D-01
              MO Center=  3.0D-01,  3.6D-01,  9.8D-02, r^2= 6.7D+00
   Bfn.  Coefficient  Atom+Function         Bfn.  Coefficient  Atom+Function  
  ----- ------------  ---------------      ----- ------------  ---------------
    98     11.492646   4 C  s                67     -7.361907   3 C  s         
    45      4.369204   2 C  pz              133      3.054914   6 H  s         
    76     -2.825633   3 C  pz               44      2.586800   2 C  py        
   157     -2.440679  10 H  s                43     -2.057651   2 C  px        
    97     -1.961072   4 C  s               145     -1.826052   8 H  s         
 
 Vector   39  Occ=0.000000D+00  E= 4.001928D-01
              MO Center= -3.6D-01,  1.9D-01,  1.0D-01, r^2= 6.4D+00
   Bfn.  Coefficient  Atom+Function         Bfn.  Coefficient  Atom+Function  
  ----- ------------  ---------------      ----- ------------  ---------------
    36     10.992794   2 C  s                67     -9.998800   3 C  s         
    98     -6.751210   4 C  s                45     -5.980214   2 C  pz        
    44      2.926920   2 C  py              127      2.881548   5 H  s         
    66      2.526420   3 C  s               105      2.530905   4 C  px        
   139      2.519382   7 H  s                76      2.054169   3 C  pz        
 
 Vector   40  Occ=0.000000D+00  E= 4.139481D-01
              MO Center=  6.1D-01, -2.2D-01, -6.7D-01, r^2= 6.1D+00
   Bfn.  Coefficient  Atom+Function         Bfn.  Coefficient  Atom+Function  
  ----- ------------  ---------------      ----- ------------  ---------------
    98      6.187687   4 C  s                67     -3.001619   3 C  s         
    45      2.379413   2 C  pz              105     -2.045015   4 C  px        
   151     -2.039038   9 H  s               157     -2.007219  10 H  s         
    44      1.672302   2 C  py              145      1.429584   8 H  s         
    97     -1.230540   4 C  s                75      1.182945   3 C  py        
 
 Vector   41  Occ=0.000000D+00  E= 4.227269D-01
              MO Center=  6.6D-01, -3.6D-02, -3.0D-01, r^2= 7.0D+00
   Bfn.  Coefficient  Atom+Function         Bfn.  Coefficient  Atom+Function  
  ----- ------------  ---------------      ----- ------------  ---------------
    36     11.215161   2 C  s                67     -6.483516   3 C  s         
    98     -5.508511   4 C  s                44      3.310437   2 C  py        
    75      2.936498   3 C  py              151      2.724760   9 H  s         
    43     -2.358110   2 C  px               45     -2.296674   2 C  pz        
   105      1.954043   4 C  px               74     -1.728461   3 C  px        
 
 Vector   42  Occ=0.000000D+00  E= 4.468751D-01
              MO Center=  1.1D-01, -1.4D-01, -2.6D-01, r^2= 6.1D+00
   Bfn.  Coefficient  Atom+Function         Bfn.  Coefficient  Atom+Function  
  ----- ------------  ---------------      ----- ------------  ---------------
    36      9.360382   2 C  s                98     -8.999103   4 C  s         
    45     -5.575349   2 C  pz               67     -3.066316   3 C  s         
   127      2.956937   5 H  s                76      2.566489   3 C  pz        
   157      2.327870  10 H  s                44      2.266488   2 C  py        
   106     -2.093679   4 C  py               35     -1.840333   2 C  s         
 
 Vector   43  Occ=0.000000D+00  E= 4.543242D-01
              MO Center=  8.3D-02,  7.6D-01, -3.5D-01, r^2= 5.1D+00
   Bfn.  Coefficient  Atom+Function         Bfn.  Coefficient  Atom+Function  
  ----- ------------  ---------------      ----- ------------  ---------------
   139      2.825817   7 H  s               157     -2.280343  10 H  s         
   107     -2.010885   4 C  pz               75     -1.901410   3 C  py        
    44     -1.411161   2 C  py               43      1.377831   2 C  px        
    45     -1.366123   2 C  pz              138     -1.330210   7 H  s         
    76      0.967587   3 C  pz              126     -0.857987   5 H  s         
 
 Vector   44  Occ=0.000000D+00  E= 4.675266D-01
              MO Center=  5.7D-01,  9.3D-03, -2.3D-01, r^2= 5.7D+00
   Bfn.  Coefficient  Atom+Function         Bfn.  Coefficient  Atom+Function  
  ----- ------------  ---------------      ----- ------------  ---------------
    98     -5.295338   4 C  s                36      5.016298   2 C  s         
    45     -2.486658   2 C  pz              107     -1.990467   4 C  pz        
   145      1.758151   8 H  s               157     -1.377254  10 H  s         
    35     -1.356340   2 C  s                67     -1.322879   3 C  s         
   133      1.229388   6 H  s                43      1.158779   2 C  px        
 
 Vector   45  Occ=0.000000D+00  E= 5.079063D-01
              MO Center=  9.1D-01, -3.8D-01, -9.4D-01, r^2= 4.8D+00
   Bfn.  Coefficient  Atom+Function         Bfn.  Coefficient  Atom+Function  
  ----- ------------  ---------------      ----- ------------  ---------------
    98     11.432487   4 C  s                36     -7.468629   2 C  s         
    45      4.635592   2 C  pz              107      3.091084   4 C  pz        
   144     -1.339429   8 H  s               106      1.327378   4 C  py        
   156     -1.240427  10 H  s               127     -1.210291   5 H  s         
   150     -1.069372   9 H  s                14     -1.050445   1 O  pz        
 
 Vector   46  Occ=0.000000D+00  E= 5.367481D-01
              MO Center=  1.0D-01, -4.1D-01, -4.9D-01, r^2= 4.4D+00
   Bfn.  Coefficient  Atom+Function         Bfn.  Coefficient  Atom+Function  
  ----- ------------  ---------------      ----- ------------  ---------------
    98     -7.138233   4 C  s                36      6.753411   2 C  s         
    45     -3.615329   2 C  pz               76      3.183301   3 C  pz        
   133     -1.676434   6 H  s               105      1.487895   4 C  px        
   107     -1.465231   4 C  pz              139      1.414113   7 H  s         
    14     -1.155874   1 O  pz                5     -1.138932   1 O  s         
 
 Vector   47  Occ=0.000000D+00  E= 6.577815D-01
              MO Center= -3.7D-01,  3.2D-02, -1.9D-02, r^2= 4.3D+00
   Bfn.  Coefficient  Atom+Function         Bfn.  Coefficient  Atom+Function  
  ----- ------------  ---------------      ----- ------------  ---------------
    36     11.583456   2 C  s                67     -8.904262   3 C  s         
    98     -4.050810   4 C  s                43     -2.614558   2 C  px        
    75      2.432365   3 C  py               13      2.206496   1 O  py        
    76      2.041982   3 C  pz              105      1.591517   4 C  px        
    44      1.489046   2 C  py              139      1.444599   7 H  s         
 
 Vector   48  Occ=0.000000D+00  E= 6.745088D-01
              MO Center= -2.9D-01,  3.5D-01,  1.2D-01, r^2= 3.9D+00
   Bfn.  Coefficient  Atom+Function         Bfn.  Coefficient  Atom+Function  
  ----- ------------  ---------------      ----- ------------  ---------------
    36      8.230218   2 C  s                67     -7.901630   3 C  s         
     5      2.992039   1 O  s                75      2.600812   3 C  py        
    98     -2.233823   4 C  s                13      2.124764   1 O  py        
    43     -1.270923   2 C  px               45     -1.270866   2 C  pz        
     4     -1.109878   1 O  s                44      0.972376   2 C  py        
 
 Vector   49  Occ=0.000000D+00  E= 7.068927D-01
              MO Center=  1.6D-01, -3.1D-01, -2.6D-01, r^2= 4.5D+00
   Bfn.  Coefficient  Atom+Function         Bfn.  Coefficient  Atom+Function  
  ----- ------------  ---------------      ----- ------------  ---------------
    67      9.478541   3 C  s                36     -7.310099   2 C  s         
    43      3.658188   2 C  px               44     -3.481567   2 C  py        
    75     -2.758577   3 C  py               98     -2.553878   4 C  s         
     5      2.214476   1 O  s                12      1.678235   1 O  px        
   106      1.645524   4 C  py               13     -1.322750   1 O  py        
 
 Vector   50  Occ=0.000000D+00  E= 7.613524D-01
              MO Center=  6.3D-01, -1.2D-02, -3.4D-01, r^2= 4.1D+00
   Bfn.  Coefficient  Atom+Function         Bfn.  Coefficient  Atom+Function  
  ----- ------------  ---------------      ----- ------------  ---------------
    45      2.403625   2 C  pz              127     -1.707607   5 H  s         
   105     -1.625297   4 C  px               36      1.581900   2 C  s         
     5     -1.478103   1 O  s                43      1.429282   2 C  px        
   126     -1.359940   5 H  s               144      1.266982   8 H  s         
    76     -1.010219   3 C  pz               66      0.965276   3 C  s         
 
 Vector   51  Occ=0.000000D+00  E= 7.939398D-01
              MO Center=  2.7D-01,  5.5D-02, -1.8D-01, r^2= 4.4D+00
   Bfn.  Coefficient  Atom+Function         Bfn.  Coefficient  Atom+Function  
  ----- ------------  ---------------      ----- ------------  ---------------
     5      4.160127   1 O  s                36     -2.852111   2 C  s         
    76     -2.501491   3 C  pz                4     -1.611130   1 O  s         
    45      1.582946   2 C  pz               12      1.357841   1 O  px        
   133      1.275799   6 H  s                43      1.266850   2 C  px        
    66     -1.035931   3 C  s                35     -1.012817   2 C  s         
 
 Vector   52  Occ=0.000000D+00  E= 8.322984D-01
              MO Center=  3.3D-01,  1.5D-01, -1.7D-02, r^2= 4.4D+00
   Bfn.  Coefficient  Atom+Function         Bfn.  Coefficient  Atom+Function  
  ----- ------------  ---------------      ----- ------------  ---------------
    36      6.648468   2 C  s                98     -4.132673   4 C  s         
     5     -3.961093   1 O  s                43     -2.586616   2 C  px        
   105      1.961527   4 C  px               35     -1.815493   2 C  s         
    45     -1.802349   2 C  pz               44      1.496544   2 C  py        
    66     -1.200155   3 C  s                97      1.072377   4 C  s         
 
 Vector   53  Occ=0.000000D+00  E= 8.537810D-01
              MO Center=  6.1D-01,  1.2D-01, -4.0D-01, r^2= 4.2D+00
   Bfn.  Coefficient  Atom+Function         Bfn.  Coefficient  Atom+Function  
  ----- ------------  ---------------      ----- ------------  ---------------
    36      4.610227   2 C  s                98     -4.632094   4 C  s         
    45     -4.547563   2 C  pz               76      1.988616   3 C  pz        
   127      1.809826   5 H  s               106     -1.571285   4 C  py        
    44      1.483438   2 C  py              105      1.353663   4 C  px        
   150     -1.218955   9 H  s                 5     -1.037922   1 O  s         
 
 Vector   54  Occ=0.000000D+00  E= 8.705617D-01
              MO Center=  1.9D-01, -4.4D-02, -1.1D-01, r^2= 4.2D+00
   Bfn.  Coefficient  Atom+Function         Bfn.  Coefficient  Atom+Function  
  ----- ------------  ---------------      ----- ------------  ---------------
     5      4.566916   1 O  s                36     -1.669260   2 C  s         
     4     -1.552607   1 O  s                76      1.326827   3 C  pz        
   138      1.328451   7 H  s                67     -1.199507   3 C  s         
    12      1.192380   1 O  px               66     -1.130259   3 C  s         
    98     -1.053241   4 C  s                97      0.865856   4 C  s         
 
 Vector   55  Occ=0.000000D+00  E= 9.205618D-01
              MO Center=  5.1D-01,  3.1D-01, -4.8D-01, r^2= 4.5D+00
   Bfn.  Coefficient  Atom+Function         Bfn.  Coefficient  Atom+Function  
  ----- ------------  ---------------      ----- ------------  ---------------
    35      4.953373   2 C  s                36     -1.720796   2 C  s         
    67      1.400216   3 C  s                66     -1.285671   3 C  s         
    72      1.240966   3 C  py              132     -1.227754   6 H  s         
   156     -1.182629  10 H  s                84      1.134859   3 C  d  0      
    41      1.124703   2 C  py              116     -1.091356   4 C  d  1      
 
 Vector   56  Occ=0.000000D+00  E= 9.610058D-01
              MO Center=  4.5D-01,  3.0D-01, -5.3D-01, r^2= 4.7D+00
   Bfn.  Coefficient  Atom+Function         Bfn.  Coefficient  Atom+Function  
  ----- ------------  ---------------      ----- ------------  ---------------
    35      4.188077   2 C  s                67      2.582891   3 C  s         
   138     -2.217160   7 H  s                76     -1.794503   3 C  pz        
    42     -1.747122   2 C  pz               83     -1.612763   3 C  d -1      
    36     -1.532172   2 C  s               115     -1.471414   4 C  d  0      
    98     -1.372184   4 C  s               107     -1.290943   4 C  pz        
 
 Vector   57  Occ=0.000000D+00  E= 9.922387D-01
              MO Center=  3.4D-01,  4.9D-01, -1.2D-01, r^2= 4.1D+00
   Bfn.  Coefficient  Atom+Function         Bfn.  Coefficient  Atom+Function  
  ----- ------------  ---------------      ----- ------------  ---------------
    36      7.418466   2 C  s                98     -4.842721   4 C  s         
    67     -3.923264   3 C  s                45     -3.750794   2 C  pz        
    43     -2.313264   2 C  px               44      2.134810   2 C  py        
    66     -1.643583   3 C  s               127      1.582536   5 H  s         
    75      1.450837   3 C  py              126      1.378553   5 H  s         
 
 Vector   58  Occ=0.000000D+00  E= 1.012284D+00
              MO Center=  3.7D-01,  5.5D-01, -4.8D-02, r^2= 4.3D+00
   Bfn.  Coefficient  Atom+Function         Bfn.  Coefficient  Atom+Function  
  ----- ------------  ---------------      ----- ------------  ---------------
    36      5.491970   2 C  s                67     -4.465696   3 C  s         
    45     -2.187420   2 C  pz               44      1.856093   2 C  py        
    98     -1.750857   4 C  s               156     -1.484852  10 H  s         
    82      1.346299   3 C  d -2            144      1.340541   8 H  s         
    74     -1.333112   3 C  px               43     -1.321055   2 C  px        
 
 Vector   59  Occ=0.000000D+00  E= 1.041751D+00
              MO Center=  7.1D-01, -1.8D-01, -4.7D-01, r^2= 4.2D+00
   Bfn.  Coefficient  Atom+Function         Bfn.  Coefficient  Atom+Function  
  ----- ------------  ---------------      ----- ------------  ---------------
    36      2.757563   2 C  s                35      2.712922   2 C  s         
    66     -2.273068   3 C  s               150      1.963428   9 H  s         
   144     -1.914592   8 H  s                 5     -1.900931   1 O  s         
   117      1.725712   4 C  d  2             41      1.488088   2 C  py        
    44      1.358794   2 C  py               67     -1.354479   3 C  s         
 
 Vector   60  Occ=0.000000D+00  E= 1.078911D+00
              MO Center=  6.7D-01,  2.6D-02, -6.5D-02, r^2= 4.1D+00
   Bfn.  Coefficient  Atom+Function         Bfn.  Coefficient  Atom+Function  
  ----- ------------  ---------------      ----- ------------  ---------------
    66     -4.028336   3 C  s                98      4.014820   4 C  s         
    45      3.702716   2 C  pz               97      3.681227   4 C  s         
    36     -3.120904   2 C  s                41      2.572487   2 C  py        
   104      2.513271   4 C  pz               42      2.364561   2 C  pz        
    72      2.335910   3 C  py               40     -2.201548   2 C  px        
 
 Vector   61  Occ=0.000000D+00  E= 1.105374D+00
              MO Center=  3.6D-01,  6.4D-02,  6.5D-02, r^2= 3.8D+00
   Bfn.  Coefficient  Atom+Function         Bfn.  Coefficient  Atom+Function  
  ----- ------------  ---------------      ----- ------------  ---------------
    36      7.622701   2 C  s                67     -5.230143   3 C  s         
    98     -3.056723   4 C  s                66      2.332406   3 C  s         
    45     -2.024486   2 C  pz              126     -2.031876   5 H  s         
    72     -1.621134   3 C  py              132      1.589956   6 H  s         
    41     -1.547334   2 C  py               53      1.495113   2 C  d  0      
 
 Vector   62  Occ=0.000000D+00  E= 1.146509D+00
              MO Center=  6.3D-01,  7.0D-03, -3.9D-02, r^2= 3.6D+00
   Bfn.  Coefficient  Atom+Function         Bfn.  Coefficient  Atom+Function  
  ----- ------------  ---------------      ----- ------------  ---------------
    67      5.073285   3 C  s                36     -3.876992   2 C  s         
    44     -2.375841   2 C  py              126      1.834327   5 H  s         
    97     -1.774812   4 C  s                54      1.578488   2 C  d  1      
    43      1.543431   2 C  px               55      1.482477   2 C  d  2      
    42     -1.437553   2 C  pz               75     -1.408679   3 C  py        
 
 Vector   63  Occ=0.000000D+00  E= 1.214696D+00
              MO Center=  5.6D-01,  2.0D-01, -1.4D-01, r^2= 3.8D+00
   Bfn.  Coefficient  Atom+Function         Bfn.  Coefficient  Atom+Function  
  ----- ------------  ---------------      ----- ------------  ---------------
    36      6.759418   2 C  s                66     -4.965101   3 C  s         
    67     -3.362940   3 C  s                97     -3.338406   4 C  s         
    35      3.229692   2 C  s                72      2.020707   3 C  py        
    51     -1.786530   2 C  d -2             52      1.684854   2 C  d -1      
    41      1.546411   2 C  py              138      1.534520   7 H  s         
 
 Vector   64  Occ=0.000000D+00  E= 1.351274D+00
              MO Center=  3.8D-01,  5.0D-01,  2.0D-01, r^2= 3.5D+00
   Bfn.  Coefficient  Atom+Function         Bfn.  Coefficient  Atom+Function  
  ----- ------------  ---------------      ----- ------------  ---------------
    66      4.346509   3 C  s                35      4.097341   2 C  s         
    36     -2.938493   2 C  s                67     -2.749047   3 C  s         
    65     -2.332114   3 C  s               132     -1.863525   6 H  s         
    34     -1.527504   2 C  s               133      1.303159   6 H  s         
    72      1.292844   3 C  py              139      0.991230   7 H  s         
 
 Vector   65  Occ=0.000000D+00  E= 1.418938D+00
              MO Center=  1.8D-01,  4.8D-01, -4.0D-02, r^2= 3.4D+00
   Bfn.  Coefficient  Atom+Function         Bfn.  Coefficient  Atom+Function  
  ----- ------------  ---------------      ----- ------------  ---------------
    36     -4.226738   2 C  s                66     -4.057307   3 C  s         
    35      3.972042   2 C  s                67      3.925928   3 C  s         
    73      2.084943   3 C  pz              138      2.053267   7 H  s         
   139     -2.062674   7 H  s               126     -1.894555   5 H  s         
    65      1.688139   3 C  s                34     -1.601207   2 C  s         
 
 Vector   66  Occ=0.000000D+00  E= 1.431927D+00
              MO Center=  1.0D+00, -4.1D-01, -1.0D+00, r^2= 3.7D+00
   Bfn.  Coefficient  Atom+Function         Bfn.  Coefficient  Atom+Function  
  ----- ------------  ---------------      ----- ------------  ---------------
    98      9.606633   4 C  s                97     -7.379111   4 C  s         
    96      2.972007   4 C  s                36     -2.455427   2 C  s         
   145     -2.371337   8 H  s               151     -2.149271   9 H  s         
   157     -2.041522  10 H  s               144      1.733145   8 H  s         
   150      1.490789   9 H  s               104      1.435996   4 C  pz        
 
 Vector   67  Occ=0.000000D+00  E= 1.443845D+00
              MO Center=  3.7D-01,  1.8D-03, -2.2D-01, r^2= 4.3D+00
   Bfn.  Coefficient  Atom+Function         Bfn.  Coefficient  Atom+Function  
  ----- ------------  ---------------      ----- ------------  ---------------
    66      4.259365   3 C  s                98      3.612741   4 C  s         
    67     -2.873315   3 C  s                35     -2.784221   2 C  s         
    45      1.861692   2 C  pz              133      1.861536   6 H  s         
    97     -1.808067   4 C  s                76     -1.732802   3 C  pz        
    36      1.621139   2 C  s                65     -1.562736   3 C  s         
 
 Vector   68  Occ=0.000000D+00  E= 1.446748D+00
              MO Center=  3.1D-01, -3.2D-03, -1.3D-01, r^2= 3.2D+00
   Bfn.  Coefficient  Atom+Function         Bfn.  Coefficient  Atom+Function  
  ----- ------------  ---------------      ----- ------------  ---------------
    98      5.481755   4 C  s                97     -3.036229   4 C  s         
    36     -2.875855   2 C  s                45      2.077798   2 C  pz        
     5      1.981310   1 O  s                35     -1.313767   2 C  s         
    96      1.277693   4 C  s               127     -1.278072   5 H  s         
    76     -1.039584   3 C  pz               44     -1.011978   2 C  py        
 
 Vector   69  Occ=0.000000D+00  E= 1.474261D+00
              MO Center=  9.1D-01, -2.5D-01, -9.4D-01, r^2= 3.6D+00
   Bfn.  Coefficient  Atom+Function         Bfn.  Coefficient  Atom+Function  
  ----- ------------  ---------------      ----- ------------  ---------------
    66      2.255725   3 C  s                67     -1.432917   3 C  s         
    36      1.419252   2 C  s                 5     -1.237115   1 O  s         
    65     -0.995079   3 C  s               103      0.979482   4 C  py        
    71     -0.924464   3 C  px              133      0.922528   6 H  s         
    97      0.865814   4 C  s                98     -0.851725   4 C  s         
 
 Vector   70  Occ=0.000000D+00  E= 1.477185D+00
              MO Center=  9.7D-01, -3.8D-01, -1.0D+00, r^2= 3.4D+00
   Bfn.  Coefficient  Atom+Function         Bfn.  Coefficient  Atom+Function  
  ----- ------------  ---------------      ----- ------------  ---------------
    36      2.858331   2 C  s               156     -2.731593  10 H  s         
   102     -2.091564   4 C  px              157      2.085565  10 H  s         
   104     -1.775025   4 C  pz              126      1.774280   5 H  s         
   103      1.680653   4 C  py               66     -1.664277   3 C  s         
    35     -1.484805   2 C  s               127     -1.389396   5 H  s         
 
 Vector   71  Occ=0.000000D+00  E= 1.508495D+00
              MO Center=  2.8D-01,  2.2D-01, -2.8D-01, r^2= 4.0D+00
   Bfn.  Coefficient  Atom+Function         Bfn.  Coefficient  Atom+Function  
  ----- ------------  ---------------      ----- ------------  ---------------
    98      3.046890   4 C  s               144      1.778537   8 H  s         
    97     -1.472133   4 C  s               102     -1.457053   4 C  px        
   145     -1.380180   8 H  s                36     -1.314485   2 C  s         
    45      1.312423   2 C  pz              103     -1.276447   4 C  py        
   150     -0.841639   9 H  s                66      0.772681   3 C  s         
 
 Vector   72  Occ=0.000000D+00  E= 1.541052D+00
              MO Center=  4.1D-01,  4.3D-01, -2.5D-01, r^2= 4.7D+00
   Bfn.  Coefficient  Atom+Function         Bfn.  Coefficient  Atom+Function  
  ----- ------------  ---------------      ----- ------------  ---------------
    36      4.074541   2 C  s                35     -3.342368   2 C  s         
    98     -3.358007   4 C  s                97      2.910589   4 C  s         
    67     -2.334333   3 C  s                73      2.086833   3 C  pz        
   132     -1.658907   6 H  s               102     -1.491826   4 C  px        
   133      1.434196   6 H  s               151      1.346964   9 H  s         
 
 Vector   73  Occ=0.000000D+00  E= 1.574976D+00
              MO Center=  4.5D-01,  4.5D-02, -5.6D-02, r^2= 3.3D+00
   Bfn.  Coefficient  Atom+Function         Bfn.  Coefficient  Atom+Function  
  ----- ------------  ---------------      ----- ------------  ---------------
    35      3.041254   2 C  s                36     -2.456589   2 C  s         
    97     -2.104162   4 C  s                40     -1.904495   2 C  px        
   126      1.828284   5 H  s                67      1.658110   3 C  s         
    42     -1.630832   2 C  pz               72      1.427499   3 C  py        
    34     -1.343500   2 C  s               127     -1.339488   5 H  s         
 
 Vector   74  Occ=0.000000D+00  E= 1.592764D+00
              MO Center=  3.5D-01,  3.9D-01, -1.5D-01, r^2= 3.4D+00
   Bfn.  Coefficient  Atom+Function         Bfn.  Coefficient  Atom+Function  
  ----- ------------  ---------------      ----- ------------  ---------------
    35      5.704106   2 C  s                36     -5.569598   2 C  s         
    66     -5.329991   3 C  s                67      4.050457   3 C  s         
    41      3.733929   2 C  py               71     -2.554087   3 C  px        
    72      2.524088   3 C  py               40     -2.269581   2 C  px        
    98      2.092709   4 C  s                82      1.673621   3 C  d -2      
 
 Vector   75  Occ=0.000000D+00  E= 1.638734D+00
              MO Center=  4.9D-01,  1.5D-01, -5.1D-02, r^2= 3.7D+00
   Bfn.  Coefficient  Atom+Function         Bfn.  Coefficient  Atom+Function  
  ----- ------------  ---------------      ----- ------------  ---------------
    66      2.925924   3 C  s                35      2.028412   2 C  s         
    98      2.002367   4 C  s                 5     -1.827478   1 O  s         
    97     -1.772324   4 C  s                67     -1.547631   3 C  s         
   104     -1.208129   4 C  pz               41     -1.174617   2 C  py        
   144      1.178253   8 H  s               103     -1.133672   4 C  py        
 
 Vector   76  Occ=0.000000D+00  E= 1.695264D+00
              MO Center=  6.1D-01, -4.7D-04, -4.2D-01, r^2= 3.5D+00
   Bfn.  Coefficient  Atom+Function         Bfn.  Coefficient  Atom+Function  
  ----- ------------  ---------------      ----- ------------  ---------------
    97     -5.119347   4 C  s                35      5.044222   2 C  s         
   104     -2.578758   4 C  pz               42     -2.465776   2 C  pz        
   102      1.836054   4 C  px               66     -1.771698   3 C  s         
    40      1.577041   2 C  px               96      1.438078   4 C  s         
    34     -1.420997   2 C  s                67      1.056947   3 C  s         
 
 Vector   77  Occ=0.000000D+00  E= 1.701575D+00
              MO Center= -8.4D-02,  3.8D-01, -8.5D-02, r^2= 3.7D+00
   Bfn.  Coefficient  Atom+Function         Bfn.  Coefficient  Atom+Function  
  ----- ------------  ---------------      ----- ------------  ---------------
     5      3.957925   1 O  s                72      3.347988   3 C  py        
    97      2.911444   4 C  s                36     -2.628419   2 C  s         
    42      2.043237   2 C  pz              138     -1.923498   7 H  s         
    66     -1.873158   3 C  s               104      1.833210   4 C  pz        
    35     -1.818588   2 C  s                41      1.564977   2 C  py        
 
 Vector   78  Occ=0.000000D+00  E= 1.787181D+00
              MO Center=  4.2D-01,  2.6D-01, -9.1D-03, r^2= 3.5D+00
   Bfn.  Coefficient  Atom+Function         Bfn.  Coefficient  Atom+Function  
  ----- ------------  ---------------      ----- ------------  ---------------
    35      2.799026   2 C  s                97     -2.764486   4 C  s         
    36      1.756764   2 C  s                45     -1.340109   2 C  pz        
   104     -1.152672   4 C  pz               67     -1.130618   3 C  s         
    42     -1.040732   2 C  pz              102      0.977019   4 C  px        
    72      0.932860   3 C  py              103     -0.903060   4 C  py        
 
 Vector   79  Occ=0.000000D+00  E= 1.814008D+00
              MO Center= -6.6D-01,  2.0D-01,  2.1D-01, r^2= 2.5D+00
   Bfn.  Coefficient  Atom+Function         Bfn.  Coefficient  Atom+Function  
  ----- ------------  ---------------      ----- ------------  ---------------
    35      4.165399   2 C  s                 5     -3.373265   1 O  s         
    40     -2.478685   2 C  px               41      2.116476   2 C  py        
    72      1.986225   3 C  py               66     -1.845948   3 C  s         
    71     -1.694955   3 C  px               12     -1.399323   1 O  px        
   132     -1.034043   6 H  s               138     -1.013832   7 H  s         
 
 Vector   80  Occ=0.000000D+00  E= 1.838264D+00
              MO Center=  4.3D-02,  2.9D-01, -2.9D-02, r^2= 3.6D+00
   Bfn.  Coefficient  Atom+Function         Bfn.  Coefficient  Atom+Function  
  ----- ------------  ---------------      ----- ------------  ---------------
    36      1.333562   2 C  s                66     -1.092111   3 C  s         
    35     -1.044357   2 C  s               156      0.922200  10 H  s         
    41      0.850005   2 C  py               67     -0.771030   3 C  s         
   126      0.641780   5 H  s               104      0.638453   4 C  pz        
   157     -0.639773  10 H  s                71      0.607651   3 C  px        
 
 Vector   81  Occ=0.000000D+00  E= 1.866574D+00
              MO Center=  5.8D-01,  1.4D-01, -4.8D-01, r^2= 4.0D+00
   Bfn.  Coefficient  Atom+Function         Bfn.  Coefficient  Atom+Function  
  ----- ------------  ---------------      ----- ------------  ---------------
    35      6.791181   2 C  s                66     -4.429398   3 C  s         
    72      3.456844   3 C  py               97     -3.341245   4 C  s         
    36      1.979181   2 C  s               104     -1.948728   4 C  pz        
    34     -1.663339   2 C  s                41      1.460693   2 C  py        
    67     -1.416787   3 C  s                45     -1.360203   2 C  pz        
 
 Vector   82  Occ=0.000000D+00  E= 1.920809D+00
              MO Center=  3.2D-01, -1.6D-01, -3.1D-01, r^2= 3.2D+00
   Bfn.  Coefficient  Atom+Function         Bfn.  Coefficient  Atom+Function  
  ----- ------------  ---------------      ----- ------------  ---------------
    36      1.464839   2 C  s                98     -1.419688   4 C  s         
    45     -1.277199   2 C  pz               97     -1.205596   4 C  s         
   103     -1.209748   4 C  py               35      1.082040   2 C  s         
    66     -0.960252   3 C  s                41      0.790642   2 C  py        
    42     -0.778492   2 C  pz              150     -0.747379   9 H  s         
 
 Vector   83  Occ=0.000000D+00  E= 1.990971D+00
              MO Center=  8.1D-01, -2.0D-01, -3.3D-01, r^2= 3.4D+00
   Bfn.  Coefficient  Atom+Function         Bfn.  Coefficient  Atom+Function  
  ----- ------------  ---------------      ----- ------------  ---------------
    98      3.430958   4 C  s                35      3.353509   2 C  s         
    66     -2.733404   3 C  s                40     -2.270058   2 C  px        
    72      1.932512   3 C  py               41      1.751262   2 C  py        
    43     -1.512427   2 C  px               36     -1.488743   2 C  s         
    71     -1.406225   3 C  px               67     -1.260350   3 C  s         
 
 Vector   84  Occ=0.000000D+00  E= 1.993220D+00
              MO Center=  6.3D-01, -1.1D-01, -7.7D-01, r^2= 3.5D+00
   Bfn.  Coefficient  Atom+Function         Bfn.  Coefficient  Atom+Function  
  ----- ------------  ---------------      ----- ------------  ---------------
    36      4.365259   2 C  s                98     -3.915107   4 C  s         
    45     -2.053513   2 C  pz               35     -1.939422   2 C  s         
    67     -1.508736   3 C  s               156      1.135089  10 H  s         
   107     -1.014261   4 C  pz              104      0.995113   4 C  pz        
     5     -0.813819   1 O  s                34      0.788084   2 C  s         
 
 Vector   85  Occ=0.000000D+00  E= 2.085278D+00
              MO Center= -4.8D-02,  2.1D-01, -2.6D-02, r^2= 3.6D+00
   Bfn.  Coefficient  Atom+Function         Bfn.  Coefficient  Atom+Function  
  ----- ------------  ---------------      ----- ------------  ---------------
    98      2.230138   4 C  s                36     -1.798825   2 C  s         
   156     -0.805392  10 H  s               138      0.777164   7 H  s         
    14      0.661626   1 O  pz               41     -0.642111   2 C  py        
    45      0.579118   2 C  pz               83      0.562547   3 C  d -1      
   150     -0.544332   9 H  s               144     -0.539016   8 H  s         
 
 Vector   86  Occ=0.000000D+00  E= 2.094288D+00
              MO Center= -4.0D-01,  6.3D-02,  8.3D-02, r^2= 2.9D+00
   Bfn.  Coefficient  Atom+Function         Bfn.  Coefficient  Atom+Function  
  ----- ------------  ---------------      ----- ------------  ---------------
    36      5.974103   2 C  s                67     -5.608029   3 C  s         
    35     -3.347967   2 C  s                66      3.280506   3 C  s         
    41     -3.009324   2 C  py               71      2.742357   3 C  px        
    13      1.898672   1 O  py               82     -1.489240   3 C  d -2      
    43     -1.350782   2 C  px               55      1.339467   2 C  d  2      
 
 Vector   87  Occ=0.000000D+00  E= 2.163125D+00
              MO Center=  4.8D-01,  3.6D-02, -4.9D-01, r^2= 3.3D+00
   Bfn.  Coefficient  Atom+Function         Bfn.  Coefficient  Atom+Function  
  ----- ------------  ---------------      ----- ------------  ---------------
    98      2.079534   4 C  s                67     -1.852168   3 C  s         
    73      0.988623   3 C  pz               35     -0.979266   2 C  s         
    36      0.866374   2 C  s                44      0.851070   2 C  py        
   156     -0.842798  10 H  s                43     -0.829691   2 C  px        
    40      0.767164   2 C  px               42     -0.751806   2 C  pz        
 
 Vector   88  Occ=0.000000D+00  E= 2.199115D+00
              MO Center=  4.3D-01,  1.6D-01, -2.7D-01, r^2= 3.7D+00
   Bfn.  Coefficient  Atom+Function         Bfn.  Coefficient  Atom+Function  
  ----- ------------  ---------------      ----- ------------  ---------------
    98      2.018313   4 C  s                36     -1.055845   2 C  s         
    45      0.952821   2 C  pz               76     -0.883303   3 C  pz        
   132      0.877809   6 H  s                42     -0.834450   2 C  pz        
   117     -0.701162   4 C  d  2            103     -0.697462   4 C  py        
    97     -0.665712   4 C  s               138     -0.635479   7 H  s         
 
 Vector   89  Occ=0.000000D+00  E= 2.223803D+00
              MO Center=  5.2D-01,  1.5D-01,  7.7D-02, r^2= 3.5D+00
   Bfn.  Coefficient  Atom+Function         Bfn.  Coefficient  Atom+Function  
  ----- ------------  ---------------      ----- ------------  ---------------
    36      3.080238   2 C  s                67     -1.712011   3 C  s         
     5     -1.174025   1 O  s                72     -1.169246   3 C  py        
    35     -1.153464   2 C  s                42     -1.137926   2 C  pz        
    66      1.113690   3 C  s                98     -1.087962   4 C  s         
    51      0.762795   2 C  d -2            102      0.739335   4 C  px        
 
 Vector   90  Occ=0.000000D+00  E= 2.240547D+00
              MO Center=  8.7D-01, -3.2D-01, -9.1D-01, r^2= 3.4D+00
   Bfn.  Coefficient  Atom+Function         Bfn.  Coefficient  Atom+Function  
  ----- ------------  ---------------      ----- ------------  ---------------
   150      1.376788   9 H  s                36      1.324298   2 C  s         
   144     -0.861341   8 H  s                67     -0.855862   3 C  s         
    66     -0.786681   3 C  s               117      0.771521   4 C  d  2      
    98     -0.767129   4 C  s                72      0.655660   3 C  py        
   149     -0.561503   9 H  s               147      0.536493   8 H  py        
 
 Vector   91  Occ=0.000000D+00  E= 2.266261D+00
              MO Center=  9.2D-01, -2.5D-01, -1.1D+00, r^2= 3.0D+00
   Bfn.  Coefficient  Atom+Function         Bfn.  Coefficient  Atom+Function  
  ----- ------------  ---------------      ----- ------------  ---------------
    66      2.220255   3 C  s                36      2.085658   2 C  s         
    41     -1.462469   2 C  py               67     -1.437124   3 C  s         
    98     -1.328836   4 C  s                35     -1.138757   2 C  s         
   156      0.936515  10 H  s                72     -0.922975   3 C  py        
    71      0.854217   3 C  px              126     -0.818522   5 H  s         
 
 Vector   92  Occ=0.000000D+00  E= 2.279655D+00
              MO Center=  5.6D-01,  6.0D-02, -2.6D-01, r^2= 3.7D+00
   Bfn.  Coefficient  Atom+Function         Bfn.  Coefficient  Atom+Function  
  ----- ------------  ---------------      ----- ------------  ---------------
    98      3.714074   4 C  s                36     -2.570073   2 C  s         
[...]
    21     -0.871359   1 O  d -1             42     -0.811590   2 C  pz        
    97     -0.725108   4 C  s                45     -0.706747   2 C  pz        
    98     -0.523910   4 C  s                67     -0.515522   3 C  s         
     5     -0.512124   1 O  s               102      0.498240   4 C  px        
 
 Vector  154  Occ=0.000000D+00  E= 6.676211D+00
              MO Center= -8.7D-01, -1.8D-01,  2.0D-01, r^2= 5.7D-01
   Bfn.  Coefficient  Atom+Function         Bfn.  Coefficient  Atom+Function  
  ----- ------------  ---------------      ----- ------------  ---------------
    18      1.061398   1 O  d  1             23     -1.036162   1 O  d  1      
    97     -0.860284   4 C  s                42     -0.781553   2 C  pz        
    35      0.759860   2 C  s               102      0.642604   4 C  px        
    54     -0.543411   2 C  d  1             14      0.406251   1 O  pz        
    16     -0.396147   1 O  d -1             11      0.389527   1 O  pz        
 
 Vector  155  Occ=0.000000D+00  E= 6.841630D+00
              MO Center= -8.8D-01, -1.9D-01,  2.0D-01, r^2= 5.9D-01
   Bfn.  Coefficient  Atom+Function         Bfn.  Coefficient  Atom+Function  
  ----- ------------  ---------------      ----- ------------  ---------------
     5      2.109974   1 O  s                40      1.763229   2 C  px        
     9      1.361191   1 O  px               97     -1.280942   4 C  s         
     4      1.203670   1 O  s                20      1.048800   1 O  d -2      
    42     -0.971583   2 C  pz               12      0.846383   1 O  px        
    35     -0.842337   2 C  s                15     -0.833692   1 O  d -2      
 
 Vector  156  Occ=0.000000D+00  E= 7.054457D+00
              MO Center= -8.9D-01, -1.9D-01,  2.0D-01, r^2= 6.4D-01
   Bfn.  Coefficient  Atom+Function         Bfn.  Coefficient  Atom+Function  
  ----- ------------  ---------------      ----- ------------  ---------------
    66     -3.197799   3 C  s                35      3.026773   2 C  s         
    40     -2.721330   2 C  px               72      2.682837   3 C  py        
    24     -1.578062   1 O  d  2             36      1.442055   2 C  s         
    10      1.285128   1 O  py               67     -1.270166   3 C  s         
    19      1.016314   1 O  d  2             13      0.866942   1 O  py        
 
 Vector  157  Occ=0.000000D+00  E= 2.188887D+01
              MO Center= -1.2D-01,  1.0D+00,  2.8D-01, r^2= 4.7D-01
   Bfn.  Coefficient  Atom+Function         Bfn.  Coefficient  Atom+Function  
  ----- ------------  ---------------      ----- ------------  ---------------
    64      1.709194   3 C  s                65     -1.481718   3 C  s         
    63     -1.349938   3 C  s                67     -1.226276   3 C  s         
    98      0.652158   4 C  s                35      0.454870   2 C  s         
    40     -0.435784   2 C  px               34     -0.422902   2 C  s         
    41      0.354638   2 C  py               45      0.351119   2 C  pz        
 
 Vector  158  Occ=0.000000D+00  E= 2.197903D+01
              MO Center=  1.1D+00, -4.4D-01, -9.7D-01, r^2= 6.1D-01
   Bfn.  Coefficient  Atom+Function         Bfn.  Coefficient  Atom+Function  
  ----- ------------  ---------------      ----- ------------  ---------------
    95      1.604063   4 C  s                96     -1.461881   4 C  s         
    98     -1.431850   4 C  s                94     -1.262850   4 C  s         
    67      0.796160   3 C  s                36     -0.782733   2 C  s         
    34     -0.767587   2 C  s                33      0.721751   2 C  s         
    32     -0.563945   2 C  s                97      0.496965   4 C  s         
 
 Vector  159  Occ=0.000000D+00  E= 2.210275D+01
              MO Center=  6.3D-01, -1.6D-01, -5.2D-02, r^2= 5.6D-01
   Bfn.  Coefficient  Atom+Function         Bfn.  Coefficient  Atom+Function  
  ----- ------------  ---------------      ----- ------------  ---------------
    36      2.232178   2 C  s                33     -1.608582   2 C  s         
    34      1.607808   2 C  s                35     -1.363624   2 C  s         
    98     -1.279196   4 C  s                32      1.259064   2 C  s         
    67     -1.106279   3 C  s                95      0.664741   4 C  s         
    97      0.665032   4 C  s                96     -0.593170   4 C  s         
 
 Vector  160  Occ=0.000000D+00  E= 4.341422D+01
              MO Center= -8.8D-01, -1.8D-01,  2.0D-01, r^2= 1.2D-01
   Bfn.  Coefficient  Atom+Function         Bfn.  Coefficient  Atom+Function  
  ----- ------------  ---------------      ----- ------------  ---------------
     4      2.508284   1 O  s                 3     -1.874826   1 O  s         
     2      1.731560   1 O  s                 1     -1.395846   1 O  s         
     5     -0.878220   1 O  s                36      0.832559   2 C  s         
     9      0.561827   1 O  px               66     -0.525349   3 C  s         
    40      0.461565   2 C  px               72      0.460263   3 C  py        
 

 center of mass
 --------------
 x =   0.30619359 y =   0.09486513 z =  -0.27792396

 moments of inertia (a.u.)
 ------------------
         200.339610103586          45.658061453008          83.783635820665
          45.658061453008         248.188276470973         -52.634837880919
          83.783635820665         -52.634837880919         238.994960209954
 
     Multipole analysis of the density
     ---------------------------------
 
     L   x y z        total         alpha         beta         nuclear
     -   - - -        -----         -----         ----         -------
     0   0 0 0     -0.000000    -16.000000    -16.000000     32.000000
 
     1   1 0 0      0.691422     -6.221632     -6.221632     13.134686
     1   0 1 0      0.314737     -1.635034     -1.635034      3.584805
     1   0 0 1     -0.057929      5.321897      5.321897    -10.701722
 
     2   2 0 0    -20.040932    -54.355897    -54.355897     88.670862
     2   1 1 0     -1.103889     13.910292     13.910292    -28.924473
     2   1 0 1      0.155777     26.494554     26.494554    -52.833330
     2   0 2 0    -17.895557    -40.595273    -40.595273     63.294989
     2   0 1 1      0.237290    -15.417195    -15.417195     31.071681
     2   0 0 2    -18.205629    -45.854184    -45.854184     73.502738
 
 *** CALLING NEW AORESP DRIVER FOR CLOSED AND OPEN SHELLS ***
 Entering AOResponse driver routine


--------------------------------------------------------------------------------

          ****************
          *** RESPONSE ***
          ****************

 Response module for NWChem and dynamic CPKS solver
 developed by J. Autschbach and coworkers, SUNY Buffalo
 The methodology used in this program is described in 
 ChemPhysChem 12 (2011), 3224-3235 (main reference)
 J. Chem. Phys. 123 (2005), 114103
 J. Chem. Phys. 122 (2005), 224115
 J. Chem. Phys. 122 (2005), 074105
 Comp. Lett. 3 (2007), 131-150 (contact JA for a copy)
 Please cite this work in publications based on results
 obtained with this code. Thank you!

 For extension of response module to open shell
 calculations please acknowledge:
 F. Aquino, Northwestern University, Schatz Rsrch Group
 The update to the methodology is described in
 J. Phys. Chem. A 118 (2014) 517-525



          -----------------------------------------------
          Solving response equations for perturbing field
          -----------------------------------------------

 number of frequencies:     1
 frequency in a.u.:  0.9319600E-01
 Perturbing field: electric
 Using GIAO formalism for OptRot
 Adding quadrupole terms to OptRot
 to create an origin in dependent tensor.
 Using El. Dipole Length Gauge
 
 Applying DAMPING constant of  0.003700 a.u.
 
 Setting up CPKS
 with frequency omega =      0.09319600 a.u.
 and a damping of            0.00370000 a.u.

 
                            NWChem Dynamic CPHF Module
                            --------------------------
 
 
    scftype = RHF 
    nclosed =   16
      nopen =    0
  variables =     9216
  num. vecs =        3
  tolerance =   1.0D-07
  max. iter =  100

 SCF residual:   5.469661092039213E-006


Iterative solution of linear equations
  No. of variables     4608
  No. of equations        3
  Maximum subspace       99
       Convergence  1.0D-07
        Start time     61.9


   iter   nsub   residual    time 
   ----  ------  --------  --------- 
 dft_CPHF2_read: failed to open
 ./methyloxirane_blyp-def2-tzvp_488.9_20.inp.aoresp_fiao_f1
     1      3    3.90D+00      91.1
     2      6    2.67D+00     120.4
     3      9    2.43D-01     149.8
     4     12    5.99D-02     179.2
     5     15    1.17D-02     208.6
     6     18    1.48D-03     238.0
     7     21    1.65D-04     267.4
     8     24    1.81D-05     296.8
     9     27    1.51D-06     326.2
    10     30    5.57D-07     355.6
    11     33    1.45D-08     385.0

 Calculating some arrays needed for GIAO optical rotation

    0 giaofock schwarz done =      92.51%
    0 giaofock schwarz done =      92.51%
 aor_r1_tensor_giao: roadata output requested
 dip-quad polarizability Re:

              1        2        3        4        5        6      
    1   77.2173  -5.9546 -27.7620  -4.8527   1.3137   8.9919
    2  -11.9991  25.2143   3.6329  25.6339 -21.7248   4.8834
    3   -6.8664   1.3353  38.8039  -0.4330  16.3018 -39.6458
 traceless dip-quad polarizability:

              1        2        3      
    1   75.1476  -8.9319 -41.6429
    2   -8.9319 -47.9573   1.9706
    3  -41.6429   1.9706 -27.1904

              1        2        3      
    1  -27.2577  37.8215   5.4493
    2   37.8215  29.1918 -32.5872
    3    5.4493 -32.5872  -1.9340

              1        2        3      
    1   13.1730   2.0029  58.2059
    2    2.0029  22.8231  24.4527
    3   58.2059  24.4527 -35.9961

 roa begin

 alpha real:
 XX       0.4102846861496E+02
 XY      -0.5256889252669E+01
 XZ      -0.3072375847315E+01
 YX      -0.5256889259843E+01
 YY       0.4446986174180E+02
 YZ       0.3260399089073E+01
 ZX      -0.3072375856624E+01
 ZY       0.3260399085234E+01
 ZZ       0.4195146145667E+02

 alpha im:
 XX       0.1108522344598E+00
 XY      -0.3038650227694E-01
 XZ      -0.1150112644400E-01
 YX      -0.3038649935198E-01
 YY       0.1318396301951E+00
 YZ       0.1912152465339E-01
 ZX      -0.1150112316014E-01
 ZY       0.1912152678870E-01
 ZZ       0.1260536187880E+00

 beta real:
 XX      -0.1457661658448E+00
 XY       0.9342755695890E+00
 XZ       0.2170436696764E+00
 YX      -0.8745881708453E+00
 YY       0.1532822869470E+00
 YZ      -0.1545783176220E+01
 ZX      -0.5769021308286E+00
 ZY       0.1858013695450E+01
 ZZ      -0.7129865147034E-02

 G-prime = -omega beta(real):
 XX      -0.1457661658448E+00
 XY       0.9342755695890E+00
 XZ       0.2170436696764E+00
 YX      -0.8745881708453E+00
 YY       0.1532822869470E+00
 YZ      -0.1545783176220E+01
 ZX      -0.5769021308286E+00
 ZY       0.1858013695450E+01
 ZZ      -0.7129865147034E-02

 beta im:
 XX      -0.6199854015945E-02
 XY       0.1314359559977E-01
 XZ       0.3065693625952E-02
 YX      -0.7239285482193E-02
 YY       0.5082381818772E-02
 YZ      -0.2355007363467E-01
 ZX      -0.1664346098574E-01
 ZY       0.3995201285520E-01
 ZZ       0.5232656346718E-03

 G-prime = -omega beta(imag):
 XX      -0.6199854015945E-02
 XY       0.1314359559977E-01
 XZ       0.3065693625952E-02
 YX      -0.7239285482193E-02
 YY       0.5082381818772E-02
 YZ      -0.2355007363467E-01
 ZX      -0.1664346098574E-01
 ZY       0.3995201285520E-01
 ZZ       0.5232656346718E-03

 dipole-quadrupole real (Cartesian):
 XXX      0.7721725567102E+02
 XXY     -0.5954615223158E+01
 XXZ     -0.2776196488452E+02
 XYY     -0.4852658868906E+01
 XYZ      0.1313707219544E+01
 XZZ      0.8991939943457E+01
 YXX     -0.1199905749285E+02
 YXY      0.2521431642837E+02
 YXZ      0.3632851205970E+01
 YYY      0.2563394836155E+02
 YYZ     -0.2172480182104E+02
 YZZ      0.4883436576869E+01
 ZXX     -0.6866387842802E+01
 ZXY      0.1335291587991E+01
 ZXZ      0.3880393820598E+02
 ZYY     -0.4329654298518E+00
 ZYZ      0.1630177758245E+02
 ZZZ     -0.3964582108437E+02

 dipole-quadrupole imag (Cartesian):
 XXX      0.2698929842412E+00
 XXY     -0.3394414819576E-01
 XXZ     -0.7815395966044E-01
 XYY     -0.3123140717395E-01
 XYZ      0.3216638804125E-02
 XZZ      0.5972386353902E-01
 YXX     -0.5863564697250E-01
 YXY      0.5970119405994E-01
 YXZ      0.2144347819569E-01
 YYY      0.1048602275990E+00
 YYZ     -0.6184854664570E-01
 YZZ      0.1531987314943E-01
 ZXX     -0.3549840705447E-01
 ZXY      0.1663995999050E-02
 ZXZ      0.1427305179200E+00
 ZYY      0.2956928544528E-02
 ZYZ      0.8374653384290E-01
 ZZZ     -0.8416266532881E-01

 dipole-quadrupole (traceless):
 XXX      0.7514761513375E+02
 XXY     -0.8931922834737E+01
 XXZ     -0.4164294732678E+02
 XYY     -0.4795725667615E+02
 XYZ      0.1970560829316E+01
 XZZ     -0.2719035845760E+02
 YXX     -0.2725774996206E+02
 YXY      0.3782147464256E+02
 YXZ      0.5449276808955E+01
 YYY      0.2919175881954E+02
 YYZ     -0.3258720273156E+02
 YZZ     -0.1934008857483E+01
 ZXX      0.1317300541431E+02
 ZXY      0.2002937381986E+01
 ZXZ      0.5820590730897E+02
 ZYY      0.2282313903374E+02
 ZYZ      0.2445266637367E+02
 ZZZ     -0.3599614444805E+02

 roa end


 Electric Dipole Response Matrix (nonzero elements):

              1        2        3      
    1   41.0285  -5.2569  -3.0724
    2   -5.2569  44.4699   3.2604
    3   -3.0724   3.2604  41.9515
 
 Imaginary part:

              1        2        3      
    1    0.1109  -0.0304  -0.0115
    2   -0.0304   0.1318   0.0191
    3   -0.0115   0.0191   0.1261

 ------------------------------------------
 average:        42.48326 + I       0.12292


 DFT Linear Response polarizability / au 
 Frequency  =       0.0931960 / au
 Wavelength =     488.8981609 / nm
              X              Y              Z
 -----------------------------------------------
 X      41.0284686     -5.2568893     -3.0723758
 Y      -5.2568893     44.4698617      3.2603991
 Z      -3.0723759      3.2603991     41.9514615
 -----------------------------------------------
 Eigenvalues =      37.1106268     50.5759274     39.7632376
 Isotropic   =      42.4832639
 Anisotropic =      10.0873671
 -----------------------------------------------
 *************************

 DFT Linear Response IMAG polarizability / au 
 Frequency  =       0.0931960 / au
 Wavelength =     488.8981609 / nm
              X              Y              Z
 -----------------------------------------------
 X       0.1108522     -0.0303865     -0.0115011
 Y      -0.0303865      0.1318396      0.0191215
 Z      -0.0115011      0.0191215      0.1260536
 -----------------------------------------------
 Eigenvalues =       0.0890962      0.1659199      0.1137294
 Isotropic   =       0.1229152
 Anisotropic =       0.0554753
 -----------------------------------------------
 *************************

 Magnetic Dipole Response Matrix (nonzero elements):
 Optical rotation tensor Beta
 (Buckingham-Dunn version including dipole-quadrupole terms)

              1        2        3      
    1    2.7129  -0.4193   0.5872
    2   -0.4193  -1.6339  -1.7389
    3    0.5872  -1.7389  -1.0831
 
 Imaginary part:

              1        2        3      
    1    0.0665  -0.1410  -0.0329
    2    0.0777  -0.0545   0.2527
    3    0.1786  -0.4287  -0.0056

 ------------------------------------------
 average:        -0.00138 + I       0.00213

 Principal components and PAS (Real part)
                 -3.11974
                  2.91880
                  0.19679
 ------------------------
 average:        -0.00138

              1        2        3      
    1   -0.0110   0.9615  -0.2746
    2    0.7589  -0.1708  -0.6284
    3    0.6511   0.2153   0.7278

 Chiral response tensor (Real part):

              1        2        3      
    1   -1.3585   0.2096  -0.2936
    2    0.2096   0.8149   0.8694
    3   -0.2936   0.8694   0.5395
 
 Principal components and PAS (Real part)
                  1.55780
                 -1.46147
                 -0.10047
 ------------------------
 average:        -0.00138

              1        2        3      
    1   -0.0110   0.9615  -0.2746
    2    0.7589  -0.1708  -0.6284
    3    0.6511   0.2153   0.7278
 Exiting AOResponse driver routine

 Task  times  cpu:      378.1s     wall:      384.9s
 
 
                                NWChem Input Module
                                -------------------
 
 
 Summary of allocated global arrays
-----------------------------------
  No active global arrays



                         GA Statistics for process    0
                         ------------------------------

       create   destroy   get      put      acc     scatter   gather  read&inc
calls: 3294     3294     7.05e+06 3.14e+06 7.33e+05 2694        0     1123     
number of processes/call 1.01e+00 1.03e+00 1.43e+00 0.00e+00 0.00e+00
bytes total:             1.79e+09 1.26e+08 1.76e+09 1.84e+02 0.00e+00 8.98e+03
bytes remote:            7.69e+08 3.29e+07 1.00e+09 0.00e+00 0.00e+00 0.00e+00
Max memory consumed for GA by this process: 11242192 bytes
 
MA_summarize_allocated_blocks: starting scan ...
MA_summarize_allocated_blocks: scan completed: 0 heap blocks, 0 stack blocks
MA usage statistics:

	allocation statistics:
					      heap	     stack
					      ----	     -----
	current number of blocks	         0	         0
	maximum number of blocks	        24	        52
	current total bytes		         0	         0
	maximum total bytes		   7519840	  48983928
	maximum total K-bytes		      7520	     48984
	maximum total M-bytes		         8	        49
 
 
                                     CITATION
                                     --------
                Please cite the following reference when publishing
                           results obtained with NWChem:
 
                 M. Valiev, E.J. Bylaska, N. Govind, K. Kowalski,
              T.P. Straatsma, H.J.J. van Dam, D. Wang, J. Nieplocha,
                        E. Apra, T.L. Windus, W.A. de Jong
                 "NWChem: a comprehensive and scalable open-source
                  solution for large scale molecular simulations"
                      Comput. Phys. Commun. 181, 1477 (2010)
                           doi:10.1016/j.cpc.2010.04.018
 
                                      AUTHORS
                                      -------
          E. Apra, E. J. Bylaska, W. A. de Jong, N. Govind, K. Kowalski,
       T. P. Straatsma, M. Valiev, H. J. J. van Dam, D. Wang, T. L. Windus,
        J. Hammond, J. Autschbach, K. Bhaskaran-Nair, J. Brabec, K. Lopata,
    S. A. Fischer, S. Krishnamoorthy, M. Jacquelin, W. Ma, M. Klemm, O. Villa,
      Y. Chen, V. Anisimov, F. Aquino, S. Hirata, M. T. Hackler, V. Konjkov,
            D. Mejia-Rodriguez, T. Risthaus, M. Malagoli, A. Marenich,
   A. Otero-de-la-Roza, J. Mullin, P. Nichols, R. Peverati, J. Pittner, Y. Zhao,
        P.-D. Fan, A. Fonari, M. J. Williamson, R. J. Harrison, J. R. Rehr,
      M. Dupuis, D. Silverstein, D. M. A. Smith, J. Nieplocha, V. Tipparaju,
    M. Krishnan, B. E. Van Kuiken, A. Vazquez-Mayagoitia, L. Jensen, M. Swart,
      Q. Wu, T. Van Voorhis, A. A. Auer, M. Nooijen, L. D. Crosby, E. Brown,
      G. Cisneros, G. I. Fann, H. Fruchtl, J. Garza, K. Hirao, R. A. Kendall,
      J. A. Nichols, K. Tsemekhman, K. Wolinski, J. Anchell, D. E. Bernholdt,
      P. Borowski, T. Clark, D. Clerc, H. Dachsel, M. J. O. Deegan, K. Dyall,
    D. Elwood, E. Glendening, M. Gutowski, A. C. Hess, J. Jaffe, B. G. Johnson,
     J. Ju, R. Kobayashi, R. Kutteh, Z. Lin, R. Littlefield, X. Long, B. Meng,
      T. Nakajima, S. Niu, L. Pollack, M. Rosing, K. Glaesemann, G. Sandrone,
      M. Stave, H. Taylor, G. Thomas, J. H. van Lenthe, A. T. Wong, Z. Zhang.

 Total times  cpu:      426.2s     wall:      434.1s
