 argument  1 = methyloxirane_blyp-def2-tzvp_488.9_10.inp
 


============================== echo of input deck ==============================
echo
start methyloxirane_blyp-def2-tzvp_488.9_10.inp
title "methyloxirane roa calculations at 488.9 nm, input generated in va  with delta_type=2"
charge 0



geometry units angstrom nocenter noautoz noautosym nucleus point;symmetry c1
 O -0.877560 -0.180285  0.204454
 C  0.571929 -0.157485  0.124310
 C -0.188737  1.087244  0.341312
 C  1.185716 -0.519876 -1.212891
 H  1.058370 -0.595482  1.003069
 H -0.207450  1.542922  1.335210
 H -0.311025  1.778679 -0.496855
 H  2.242616 -0.218151 -1.247520
 H  1.142292 -1.606077 -1.373400
 H  0.653525 -0.029930 -2.037750
end

basis spherical
* library def2-TZVP
end

 set prop:newaoresp 1
 set aor:roadata T
 set cphf:maxsub 100
 set cphf:acc 1.0d-10
 set cphf:maxiter 100

property
    response 1   0.093196
    bdtensor
    convergence 1e-7
    damping 0.0037
    giao
end

dft
 direct
 mult 1
 xc becke88 lyp
 iterations 250
 tolerances tight
 grid xfine
 convergence nolevelshifting
 convergence energy 1e-8
 convergence gradient 1e-7


end

task dft gradient
task dft property
================================================================================


                                         
                                         
 
 
              Northwest Computational Chemistry Package (NWChem) 6.8
              ------------------------------------------------------
 
 
                    Environmental Molecular Sciences Laboratory
                       Pacific Northwest National Laboratory
                                Richland, WA 99352
 
                              Copyright (c) 1994-2017
                       Pacific Northwest National Laboratory
                            Battelle Memorial Institute
 
             NWChem is an open-source computational chemistry package
                        distributed under the terms of the
                      Educational Community License (ECL) 2.0
             A copy of the license is included with this distribution
                              in the LICENSE.TXT file
 
                                  ACKNOWLEDGMENT
                                  --------------

            This software and its documentation were developed at the
            EMSL at Pacific Northwest National Laboratory, a multiprogram
            national laboratory, operated for the U.S. Department of Energy
            by Battelle under Contract Number DE-AC05-76RL01830. Support
            for this work was provided by the Department of Energy Office
            of Biological and Environmental Research, Office of Basic
            Energy Sciences, and the Office of Advanced Scientific Computing.


           Job information
           ---------------

    hostname        = cpn-f11-17-01.cbls.ccr.buffalo.edu
    program         = /util/academic/nwchem/nwchem-6.8/bin/LINUX64/nwchem
    date            = Fri Mar  1 10:04:36 2019

    compiled        = Tue_Nov_06_14:59:08_2018
    source          = /util/academic/nwchem/nwchem-6.8
    nwchem branch   = 6.8
    nwchem revision = v6.8-47-gdf6c956
    ga revision     = ga-5.6.3
    use scalapack   = F
    input           = methyloxirane_blyp-def2-tzvp_488.9_10.inp
    prefix          = methyloxirane_blyp-def2-tzvp_488.9_10.inp.
    data base       = ./methyloxirane_blyp-def2-tzvp_488.9_10.inp.db
    status          = startup
    nproc           =        7
    time left       =     -1s



           Memory information
           ------------------

    heap     =   13107196 doubles =    100.0 Mbytes
    stack    =   13107201 doubles =    100.0 Mbytes
    global   =   26214400 doubles =    200.0 Mbytes (distinct from heap & stack)
    total    =   52428797 doubles =    400.0 Mbytes
    verify   = yes
    hardfail = no 


           Directory information
           ---------------------
 
  0 permanent = .
  0 scratch   = .
 
 
 
 
                                NWChem Input Module
                                -------------------
 
 
                    methyloxirane roa calculations at 488.9 nm, input generated in va  with delta_type=2
                    ------------------------------------------

 Scaling coordinates for geometry "geometry" by  1.889725989
 (inverse scale =  0.529177249)

 
 
                             Geometry "geometry" -> ""
                             -------------------------
 
 Output coordinates in angstroms (scale by  1.889725989 to convert to a.u.)
 
  No.       Tag          Charge          X              Y              Z
 ---- ---------------- ---------- -------------- -------------- --------------
    1 O                    8.0000    -0.87756000    -0.18028500     0.20445400
    2 C                    6.0000     0.57192900    -0.15748500     0.12431000
    3 C                    6.0000    -0.18873700     1.08724400     0.34131200
    4 C                    6.0000     1.18571600    -0.51987600    -1.21289100
    5 H                    1.0000     1.05837000    -0.59548200     1.00306900
    6 H                    1.0000    -0.20745000     1.54292200     1.33521000
    7 H                    1.0000    -0.31102500     1.77867900    -0.49685500
    8 H                    1.0000     2.24261600    -0.21815100    -1.24752000
    9 H                    1.0000     1.14229200    -1.60607700    -1.37340000
   10 H                    1.0000     0.65352500    -0.02993000    -2.03775000
 
      Atomic Mass 
      ----------- 
 
      O                 15.994910
      C                 12.000000
      H                  1.007825
 

 Effective nuclear repulsion energy (a.u.)     123.5807442559

            Nuclear Dipole moment (a.u.) 
            ----------------------------
        X                 Y               Z
 ---------------- ---------------- ----------------
    13.1738392253     3.5696527082   -10.7057285828
 
 
            XYZ format geometry
            -------------------
    10
 geometry
 O                    -0.87756000    -0.18028500     0.20445400
 C                     0.57192900    -0.15748500     0.12431000
 C                    -0.18873700     1.08724400     0.34131200
 C                     1.18571600    -0.51987600    -1.21289100
 H                     1.05837000    -0.59548200     1.00306900
 H                    -0.20745000     1.54292200     1.33521000
 H                    -0.31102500     1.77867900    -0.49685500
 H                     2.24261600    -0.21815100    -1.24752000
 H                     1.14229200    -1.60607700    -1.37340000
 H                     0.65352500    -0.02993000    -2.03775000
 
 ==============================================================================
                                internuclear distances
 ------------------------------------------------------------------------------
       center one      |      center two      | atomic units |  angstroms
 ------------------------------------------------------------------------------
    2 C                |   1 O                |     2.74366  |     1.45188
    3 C                |   1 O                |     2.73837  |     1.44908
    3 C                |   2 C                |     2.78698  |     1.47481
    4 C                |   2 C                |     2.86352  |     1.51531
    5 H                |   2 C                |     2.07068  |     1.09576
    6 H                |   3 C                |     2.06649  |     1.09354
    7 H                |   3 C                |     2.06626  |     1.09342
    8 H                |   4 C                |     2.07808  |     1.09967
    9 H                |   4 C                |     2.07653  |     1.09885
   10 H                |   4 C                |     2.07325  |     1.09712
 ------------------------------------------------------------------------------
                         number of included internuclear distances:         10
 ==============================================================================



 ==============================================================================
                                 internuclear angles
 ------------------------------------------------------------------------------
        center 1       |       center 2       |       center 3       |  degrees
 ------------------------------------------------------------------------------
    2 C                |   1 O                |   3 C                |    61.11
    2 C                |   1 O                |   3 C                |    61.11
    1 O                |   2 C                |   4 C                |   116.70
    1 O                |   2 C                |   5 H                |   113.12
    3 C                |   2 C                |   4 C                |   122.72
    3 C                |   2 C                |   5 H                |   116.64
    4 C                |   2 C                |   5 H                |   115.61
    3 C                |   1 O                |   2 C                |    61.11
    1 O                |   3 C                |   6 H                |   116.24
    1 O                |   3 C                |   7 H                |   115.31
    2 C                |   3 C                |   6 H                |   119.62
    2 C                |   3 C                |   7 H                |   118.59
    6 H                |   3 C                |   7 H                |   115.55
    2 C                |   4 C                |   8 H                |   110.58
    2 C                |   4 C                |   9 H                |   110.44
    2 C                |   4 C                |  10 H                |   111.11
    8 H                |   4 C                |   9 H                |   107.73
    8 H                |   4 C                |  10 H                |   108.66
    9 H                |   4 C                |  10 H                |   108.21
 ------------------------------------------------------------------------------
                            number of included internuclear angles:         19
 ==============================================================================



  warning:::::::::::::: from_environment
  NWCHEM_BASIS_LIBRARY set to: <
 /util/academic/nwchem/nwchem-6.8/src/basis/libraries>
  but file does not exist !
  using .nwchemrc or compiled library


 Summary of "ao basis" -> "" (spherical)
 ------------------------------------------------------------------------------
       Tag                 Description            Shells   Functions and Types
 ---------------- ------------------------------  ------  ---------------------
 *                         def2-TZVP                  on all atoms 


 
                                 NWChem DFT Module
                                 -----------------
 
 
                    methyloxirane roa calculations at 488.9 nm, input generated in va  with delta_type=2
 
 
                      Basis "ao basis" -> "ao basis" (spherical)
                      -----
  O (Oxygen)
  ----------
            Exponent  Coefficients 
       -------------- ---------------------------------------------------------
  1 S  2.70323826E+04  0.000217
  1 S  4.05238714E+03  0.001684
  1 S  9.22327227E+02  0.008740
  1 S  2.61240710E+02  0.035240
  1 S  8.53546414E+01  0.111535
  1 S  3.10350352E+01  0.255890
 
  2 S  1.22608607E+01  0.397687
  2 S  4.99870760E+00  0.246278
 
  3 S  1.17031082E+00  1.000000
 
  4 S  4.64747410E-01  1.000000
 
  5 S  1.85045364E-01  1.000000
 
  6 P  6.32749548E+01  0.006069
  6 P  1.46270494E+01  0.041913
  6 P  4.45012235E+00  0.161538
  6 P  1.52757996E+00  0.357070
 
  7 P  5.29351179E-01  1.000000
 
  8 P  1.74784213E-01  1.000000
 
  9 D  2.31400000E+00  1.000000
 
 10 D  6.45000000E-01  1.000000
 
 11 F  1.42800000E+00  1.000000
 
  C (Carbon)
  ----------
            Exponent  Coefficients 
       -------------- ---------------------------------------------------------
  1 S  1.35753497E+04  0.000222
  1 S  2.03523337E+03  0.001723
  1 S  4.63225624E+02  0.008926
  1 S  1.31200196E+02  0.035728
  1 S  4.28530159E+01  0.110763
  1 S  1.55841858E+01  0.242956
 
  2 S  6.20671385E+00  0.414403
  2 S  2.57648965E+00  0.237450
 
  3 S  5.76963394E-01  1.000000
 
  4 S  2.29728314E-01  1.000000
 
  5 S  9.51644400E-02  1.000000
 
  6 P  3.46972322E+01  0.005333
  6 P  7.95826228E+00  0.035864
  6 P  2.37808269E+00  0.142159
  6 P  8.14332082E-01  0.342705
 
  7 P  2.88875473E-01  1.000000
 
  8 P  1.00568237E-01  1.000000
 
  9 D  1.09700000E+00  1.000000
 
 10 D  3.18000000E-01  1.000000
 
 11 F  7.61000000E-01  1.000000
 
  H (Hydrogen)
  ------------
            Exponent  Coefficients 
       -------------- ---------------------------------------------------------
  1 S  3.40613410E+01  0.006025
  1 S  5.12357460E+00  0.045021
  1 S  1.16466260E+00  0.201897
 
  2 S  3.27230410E-01  1.000000
 
  3 S  1.03072410E-01  1.000000
 
  4 P  8.00000000E-01  1.000000
 


 Summary of "ao basis" -> "ao basis" (spherical)
 ------------------------------------------------------------------------------
       Tag                 Description            Shells   Functions and Types
 ---------------- ------------------------------  ------  ---------------------
 O                         def2-TZVP                11       31   5s3p2d1f
 C                         def2-TZVP                11       31   5s3p2d1f
 H                         def2-TZVP                 4        6   3s1p




 Summary of "ao basis" -> "ao basis" (spherical)
 ------------------------------------------------------------------------------
       Tag                 Description            Shells   Functions and Types
 ---------------- ------------------------------  ------  ---------------------
 O                         def2-TZVP                11       31   5s3p2d1f
 C                         def2-TZVP                11       31   5s3p2d1f
 H                         def2-TZVP                 4        6   3s1p


  Caching 1-el integrals 
  itol2e modified to match energy
  convergence criterion.
  tol_rho modified to match energy
  convergence criterion.
 
            General Information
            -------------------
          SCF calculation type: DFT
          Wavefunction type:  closed shell.
          No. of atoms     :    10
          No. of electrons :    32
           Alpha electrons :    16
            Beta electrons :    16
          Charge           :     0
          Spin multiplicity:     1
          Use of symmetry is: off; symmetry adaption is: off
          Maximum number of iterations: 250
          This is a Direct SCF calculation.
          AO basis - number of functions:   160
                     number of shells:    68
          Convergence on energy requested:  1.00D-08
          Convergence on density requested:  1.00D-05
          Convergence on gradient requested:  1.00D-07
 
              XC Information
              --------------
                    Becke 1988 Exchange Functional  1.000          
              Lee-Yang-Parr Correlation Functional  1.000          
 
             Grid Information
             ----------------
          Grid used for XC integration:  xfine     
          Radial quadrature: Mura-Knowles        
          Angular quadrature: Lebedev. 
          Tag              B.-S. Rad. Rad. Pts. Rad. Cut. Ang. Pts.
          ---              ---------- --------- --------- ---------
          O                   0.60      100          11.0      1454
          C                   0.70      100          11.0      1454
          H                   0.35      100          12.0      1202
          Grid pruning is: on 
          Number of quadrature shells:  1000
          Spatial weights used:  Erf1
 
          Convergence Information
          -----------------------
          Convergence aids based upon iterative change in 
          total energy or number of iterations. 
          Levelshifting, if invoked, occurs when the 
          HOMO/LUMO gap drops below (HL_TOL):  1.00D-02
          DIIS, if invoked, will attempt to extrapolate 
          using up to (NFOCK): 10 stored Fock matrices.

                    Damping( 0%)  Levelshifting(0.0)       DIIS
                  --------------- ------------------- ---------------
          dE  on:    start             N/A                start   
          dE off:    2 iters           N/A              250 iters 

 
      Screening Tolerance Information
      -------------------------------
          Density screening/tol_rho:  1.00D-11
          AO Gaussian exp screening on grid/accAOfunc:  18
          CD Gaussian exp screening on grid/accCDfunc:  20
          XC Gaussian exp screening on grid/accXCfunc:  20
          Schwarz screening/accCoul:  1.00D-09

 
      Superposition of Atomic Density Guess
      -------------------------------------
 
 Sum of atomic energies:        -190.79714706
 
      Non-variational initial energy
      ------------------------------

 Total energy =    -193.167636
 1-e energy   =    -502.119506
 2-e energy   =     185.371126
 HOMO         =      -0.349638
 LUMO         =       0.089971
 
   Time after variat. SCF:      0.5
   Time prior to 1st pass:      0.5

 Grid_pts file          = ./methyloxirane_blyp-def2-tzvp_488.9_10.inp.gridpts.0
 Record size in doubles =  12289        No. of grid_pts per rec  =   3070
 Max. records in memory =     76        Max. recs in file   =    554552


           Memory utilization after 1st SCF pass: 
           Heap Space remaining (MW):       12.17            12167540
          Stack Space remaining (MW):       13.11            13106124

   convergence    iter        energy       DeltaE   RMS-Dens  Diis-err    time
 ---------------- ----- ----------------- --------- --------- ---------  ------
 d= 0,ls=0.0,diis     1   -193.0211187092 -3.17D+02  8.96D-03  1.05D+00     6.3
 d= 0,ls=0.0,diis     2   -192.8698885728  1.51D-01  7.39D-03  2.44D+00    11.8
 d= 0,ls=0.0,diis     3   -193.0764495601 -2.07D-01  1.83D-03  3.94D-01    17.4
 d= 0,ls=0.0,diis     4   -193.1072379705 -3.08D-02  6.77D-04  1.79D-02    22.9
 d= 0,ls=0.0,diis     5   -193.1088832817 -1.65D-03  2.89D-04  2.67D-03    28.4
 d= 0,ls=0.0,diis     6   -193.1092155254 -3.32D-04  2.97D-05  3.49D-05    33.9
 d= 0,ls=0.0,diis     7   -193.1092196362 -4.11D-06  8.65D-06  4.29D-06    39.4
 d= 0,ls=0.0,diis     8   -193.1092201163 -4.80D-07  2.00D-06  2.86D-07    44.9
 d= 0,ls=0.0,diis     9   -193.1092201478 -3.15D-08  6.25D-07  1.38D-08    50.4
 d= 0,ls=0.0,diis    10   -193.1092201494 -1.60D-09  1.69D-07  1.54D-09    55.9


         Total DFT energy =     -193.109220149440
      One electron energy =     -505.769731129045
           Coulomb energy =      216.101184856099
    Exchange-Corr. energy =      -27.021418132402
 Nuclear repulsion energy =      123.580744255909

 Numeric. integr. density =       31.999999994438

     Total iterative time =     55.4s


 
                       DFT Final Molecular Orbital Analysis
                       ------------------------------------
 
 Vector    1  Occ=2.000000D+00  E=-1.878083D+01
              MO Center= -8.8D-01, -1.8D-01,  2.0D-01, r^2= 1.5D-02
   Bfn.  Coefficient  Atom+Function         Bfn.  Coefficient  Atom+Function  
  ----- ------------  ---------------      ----- ------------  ---------------
     2      0.638474   1 O  s                 1      0.435422   1 O  s         
     3      0.039925   1 O  s                 4     -0.033386   1 O  s         
 
 Vector    2  Occ=2.000000D+00  E=-9.962867D+00
              MO Center=  5.7D-01, -1.6D-01,  1.2D-01, r^2= 2.8D-02
   Bfn.  Coefficient  Atom+Function         Bfn.  Coefficient  Atom+Function  
  ----- ------------  ---------------      ----- ------------  ---------------
    33      0.606909   2 C  s                32      0.467260   2 C  s         
    34      0.042460   2 C  s                36      0.037228   2 C  s         
    35     -0.027119   2 C  s         
 
 Vector    3  Occ=2.000000D+00  E=-9.955453D+00
              MO Center= -1.9D-01,  1.1D+00,  3.4D-01, r^2= 2.8D-02
   Bfn.  Coefficient  Atom+Function         Bfn.  Coefficient  Atom+Function  
  ----- ------------  ---------------      ----- ------------  ---------------
    64      0.607021   3 C  s                63      0.467221   3 C  s         
    65      0.039656   3 C  s         
 
 Vector    4  Occ=2.000000D+00  E=-9.908043D+00
              MO Center=  1.2D+00, -5.2D-01, -1.2D+00, r^2= 2.8D-02
   Bfn.  Coefficient  Atom+Function         Bfn.  Coefficient  Atom+Function  
  ----- ------------  ---------------      ----- ------------  ---------------
    95      0.606965   4 C  s                94      0.467217   4 C  s         
    96      0.040614   4 C  s                98      0.035674   4 C  s         
 
 Vector    5  Occ=2.000000D+00  E=-9.648452D-01
              MO Center= -4.7D-01,  5.6D-02,  2.1D-01, r^2= 6.4D-01
   Bfn.  Coefficient  Atom+Function         Bfn.  Coefficient  Atom+Function  
  ----- ------------  ---------------      ----- ------------  ---------------
     4      0.375402   1 O  s                 3      0.277532   1 O  s         
     2     -0.192878   1 O  s                34      0.139808   2 C  s         
    65      0.139031   3 C  s                 5      0.122484   1 O  s         
    35      0.104567   2 C  s                 6      0.093748   1 O  px        
    66      0.093246   3 C  s                69     -0.091790   3 C  py        
 
 Vector    6  Occ=2.000000D+00  E=-6.688591D-01
              MO Center=  9.4D-01, -3.9D-01, -7.7D-01, r^2= 1.5D+00
   Bfn.  Coefficient  Atom+Function         Bfn.  Coefficient  Atom+Function  
  ----- ------------  ---------------      ----- ------------  ---------------
    97      0.285384   4 C  s                96      0.276447   4 C  s         
    35      0.184651   2 C  s                34      0.173840   2 C  s         
    95     -0.174024   4 C  s                 4     -0.147586   1 O  s         
    33     -0.108617   2 C  s                 3     -0.103044   1 O  s         
    94     -0.083381   4 C  s                 5     -0.073347   1 O  s         
 
 Vector    7  Occ=2.000000D+00  E=-5.902411D-01
              MO Center= -1.2D-01,  7.1D-01,  2.2D-01, r^2= 2.0D+00
   Bfn.  Coefficient  Atom+Function         Bfn.  Coefficient  Atom+Function  
  ----- ------------  ---------------      ----- ------------  ---------------
    66      0.324875   3 C  s                65      0.277359   3 C  s         
     4     -0.237906   1 O  s                64     -0.171464   3 C  s         
     3     -0.167688   1 O  s                 5     -0.147518   1 O  s         
     2      0.110756   1 O  s                38      0.105132   2 C  py        
   132      0.102912   6 H  s                97     -0.100323   4 C  s         
 
 Vector    8  Occ=2.000000D+00  E=-5.298187D-01
              MO Center=  4.1D-01,  1.8D-02, -9.0D-02, r^2= 2.7D+00
   Bfn.  Coefficient  Atom+Function         Bfn.  Coefficient  Atom+Function  
  ----- ------------  ---------------      ----- ------------  ---------------
    35      0.303112   2 C  s                34      0.225011   2 C  s         
    66     -0.155015   3 C  s                97     -0.153412   4 C  s         
    33     -0.138438   2 C  s               126      0.133065   5 H  s         
    96     -0.127493   4 C  s                 6      0.107785   1 O  px        
   125      0.106406   5 H  s                65     -0.100954   3 C  s         
 
 Vector    9  Occ=2.000000D+00  E=-4.478746D-01
              MO Center=  1.1D-01,  2.9D-01,  2.5D-01, r^2= 2.5D+00
   Bfn.  Coefficient  Atom+Function         Bfn.  Coefficient  Atom+Function  
  ----- ------------  ---------------      ----- ------------  ---------------
    70      0.211466   3 C  pz               39      0.156086   2 C  pz        
   132      0.145165   6 H  s                73      0.132809   3 C  pz        
     8      0.128981   1 O  pz              126      0.114180   5 H  s         
     6     -0.111696   1 O  px              131      0.107590   6 H  s         
    11      0.104468   1 O  pz               38     -0.103752   2 C  py        
 
 Vector   10  Occ=2.000000D+00  E=-4.137328D-01
              MO Center=  3.8D-02,  2.8D-01, -2.3D-01, r^2= 2.6D+00
   Bfn.  Coefficient  Atom+Function         Bfn.  Coefficient  Atom+Function  
  ----- ------------  ---------------      ----- ------------  ---------------
    69      0.217163   3 C  py              101      0.153434   4 C  pz        
   138      0.152715   7 H  s                 6     -0.145221   1 O  px        
    38     -0.139513   2 C  py               37      0.129281   2 C  px        
     7     -0.126285   1 O  py               72      0.122214   3 C  py        
     9     -0.115950   1 O  px               70     -0.113363   3 C  pz        
 
 Vector   11  Occ=2.000000D+00  E=-3.768774D-01
              MO Center=  8.7D-01, -2.9D-01, -7.1D-01, r^2= 2.7D+00
   Bfn.  Coefficient  Atom+Function         Bfn.  Coefficient  Atom+Function  
  ----- ------------  ---------------      ----- ------------  ---------------
    99      0.209247   4 C  px              144      0.183005   8 H  s         
   100      0.157990   4 C  py              150     -0.135343   9 H  s         
   102      0.134184   4 C  px               37      0.130033   2 C  px        
   143      0.128104   8 H  s                 7      0.123671   1 O  py        
     6     -0.119053   1 O  px               10      0.104338   1 O  py        
 
 Vector   12  Occ=2.000000D+00  E=-3.561535D-01
              MO Center=  6.1D-01, -3.7D-01, -9.0D-01, r^2= 2.8D+00
   Bfn.  Coefficient  Atom+Function         Bfn.  Coefficient  Atom+Function  
  ----- ------------  ---------------      ----- ------------  ---------------
   100      0.260903   4 C  py              150     -0.190399   9 H  s         
   156      0.174359  10 H  s               103      0.169232   4 C  py        
     7     -0.168301   1 O  py               10     -0.134599   1 O  py        
   149     -0.132690   9 H  s               155      0.123481  10 H  s         
    70      0.110840   3 C  pz              106      0.104939   4 C  py        
 
 Vector   13  Occ=2.000000D+00  E=-3.289823D-01
              MO Center=  3.2D-01,  2.4D-01, -2.4D-01, r^2= 2.8D+00
   Bfn.  Coefficient  Atom+Function         Bfn.  Coefficient  Atom+Function  
  ----- ------------  ---------------      ----- ------------  ---------------
    39      0.205206   2 C  pz                7     -0.180122   1 O  py        
   101     -0.180725   4 C  pz               70     -0.166769   3 C  pz        
   138      0.161680   7 H  s                99      0.146973   4 C  px        
    10     -0.145545   1 O  py               42      0.139372   2 C  pz        
   104     -0.127693   4 C  pz              137      0.108647   7 H  s         
 
 Vector   14  Occ=2.000000D+00  E=-3.224023D-01
              MO Center=  4.5D-01, -4.7D-02, -2.4D-01, r^2= 3.0D+00
   Bfn.  Coefficient  Atom+Function         Bfn.  Coefficient  Atom+Function  
  ----- ------------  ---------------      ----- ------------  ---------------
     7      0.184103   1 O  py              126      0.169185   5 H  s         
   156      0.158150  10 H  s                10      0.151189   1 O  py        
    99     -0.150905   4 C  px               39      0.147819   2 C  pz        
     6     -0.139826   1 O  px              101     -0.137379   4 C  pz        
   144     -0.127205   8 H  s                37      0.124319   2 C  px        
 
 Vector   15  Occ=2.000000D+00  E=-2.625058D-01
              MO Center=  1.4D-02,  1.5D-01,  3.7D-02, r^2= 2.3D+00
   Bfn.  Coefficient  Atom+Function         Bfn.  Coefficient  Atom+Function  
  ----- ------------  ---------------      ----- ------------  ---------------
    68      0.265046   3 C  px               38      0.258451   2 C  py        
     6     -0.235189   1 O  px               41      0.200941   2 C  py        
    71      0.197438   3 C  px                9     -0.183796   1 O  px        
    12     -0.156346   1 O  px              150      0.114351   9 H  s         
   100     -0.110727   4 C  py               74      0.105980   3 C  px        
 
 Vector   16  Occ=2.000000D+00  E=-2.206509D-01
              MO Center= -5.7D-01, -2.5D-02,  2.0D-01, r^2= 1.6D+00
   Bfn.  Coefficient  Atom+Function         Bfn.  Coefficient  Atom+Function  
  ----- ------------  ---------------      ----- ------------  ---------------
     8      0.447938   1 O  pz               11      0.357068   1 O  pz        
    14      0.294441   1 O  pz              133     -0.134782   6 H  s         
   139      0.117425   7 H  s               132     -0.104290   6 H  s         
   138      0.103602   7 H  s               145     -0.101982   8 H  s         
   126     -0.098324   5 H  s                98      0.086223   4 C  s         
 
 Vector   17  Occ=0.000000D+00  E= 2.548304D-02
              MO Center=  1.2D+00, -4.5D-02, -5.8D-01, r^2= 7.3D+00
   Bfn.  Coefficient  Atom+Function         Bfn.  Coefficient  Atom+Function  
  ----- ------------  ---------------      ----- ------------  ---------------
    98      4.395386   4 C  s               145     -1.504204   8 H  s         
   151     -1.476687   9 H  s               157     -1.327450  10 H  s         
   127     -1.231041   5 H  s                45      1.108261   2 C  pz        
   139     -0.892969   7 H  s                67      0.745477   3 C  s         
   133     -0.634161   6 H  s                75      0.320153   3 C  py        
 
 Vector   18  Occ=0.000000D+00  E= 4.318191D-02
              MO Center= -4.9D-02,  5.8D-01,  2.8D-02, r^2= 5.0D+00
   Bfn.  Coefficient  Atom+Function         Bfn.  Coefficient  Atom+Function  
  ----- ------------  ---------------      ----- ------------  ---------------
    98      2.594320   4 C  s                36     -1.989159   2 C  s         
     5      1.277224   1 O  s               151     -0.937583   9 H  s         
    74      0.884447   3 C  px               45      0.579014   2 C  pz        
   157     -0.553346  10 H  s               145     -0.537200   8 H  s         
    13      0.432738   1 O  py               66     -0.369988   3 C  s         
 
 Vector   19  Occ=0.000000D+00  E= 5.047215D-02
              MO Center=  6.3D-01,  1.2D-01,  1.6D-01, r^2= 7.1D+00
   Bfn.  Coefficient  Atom+Function         Bfn.  Coefficient  Atom+Function  
  ----- ------------  ---------------      ----- ------------  ---------------
    36      2.533575   2 C  s                98     -2.420077   4 C  s         
   127     -2.137229   5 H  s               157      1.336471  10 H  s         
   139      1.046377   7 H  s               133     -1.010394   6 H  s         
    43      0.754972   2 C  px               76      0.729241   3 C  pz        
   145      0.386085   8 H  s                44     -0.375627   2 C  py        
 
 Vector   20  Occ=0.000000D+00  E= 5.121967D-02
              MO Center=  2.9D-01,  9.7D-01,  1.7D-01, r^2= 6.5D+00
   Bfn.  Coefficient  Atom+Function         Bfn.  Coefficient  Atom+Function  
  ----- ------------  ---------------      ----- ------------  ---------------
    67      3.873647   3 C  s                98     -2.043350   4 C  s         
   133     -1.544581   6 H  s                36     -1.359930   2 C  s         
   139     -1.308818   7 H  s               145      1.167802   8 H  s         
    44     -1.159503   2 C  py               74      0.685466   3 C  px        
    45     -0.601802   2 C  pz              151      0.498661   9 H  s         
 
 Vector   21  Occ=0.000000D+00  E= 6.534901D-02
              MO Center=  2.8D-01,  9.3D-02, -1.6D-01, r^2= 4.7D+00
   Bfn.  Coefficient  Atom+Function         Bfn.  Coefficient  Atom+Function  
  ----- ------------  ---------------      ----- ------------  ---------------
    98      1.231813   4 C  s               139      1.214394   7 H  s         
   151     -0.946631   9 H  s                 5     -0.938334   1 O  s         
    67     -0.878374   3 C  s                43     -0.849577   2 C  px        
    75     -0.606858   3 C  py              133      0.540531   6 H  s         
    12     -0.491853   1 O  px               45      0.393333   2 C  pz        
 
 Vector   22  Occ=0.000000D+00  E= 8.635061D-02
              MO Center=  1.3D+00,  1.9D-01, -5.0D-01, r^2= 7.1D+00
   Bfn.  Coefficient  Atom+Function         Bfn.  Coefficient  Atom+Function  
  ----- ------------  ---------------      ----- ------------  ---------------
    36      2.899366   2 C  s               145      2.035273   8 H  s         
    67     -1.443230   3 C  s               127     -1.293541   5 H  s         
   157     -1.289190  10 H  s               133      1.182300   6 H  s         
   107     -1.113138   4 C  pz              105     -1.010642   4 C  px        
    98     -0.975974   4 C  s                75      0.749026   3 C  py        
 
 Vector   23  Occ=0.000000D+00  E= 9.156924D-02
              MO Center=  1.2D+00, -6.4D-01, -5.3D-01, r^2= 6.6D+00
   Bfn.  Coefficient  Atom+Function         Bfn.  Coefficient  Atom+Function  
  ----- ------------  ---------------      ----- ------------  ---------------
    36      2.572764   2 C  s               151      2.065472   9 H  s         
   145     -1.524844   8 H  s                98     -1.322520   4 C  s         
   106      1.138112   4 C  py              105      1.089812   4 C  px        
   133      0.956083   6 H  s                67     -0.930714   3 C  s         
   127     -0.829908   5 H  s               107     -0.722154   4 C  pz        
 
 Vector   24  Occ=0.000000D+00  E= 1.023943D-01
              MO Center=  4.5D-01,  4.2D-01, -1.1D+00, r^2= 6.7D+00
   Bfn.  Coefficient  Atom+Function         Bfn.  Coefficient  Atom+Function  
  ----- ------------  ---------------      ----- ------------  ---------------
   157      2.064769  10 H  s               133      1.561689   6 H  s         
    98     -1.529916   4 C  s               106     -1.472784   4 C  py        
   139     -1.462955   7 H  s               151     -1.385403   9 H  s         
    36      1.353778   2 C  s                76     -1.112907   3 C  pz        
   105      1.042151   4 C  px               45     -0.613156   2 C  pz        
 
 Vector   25  Occ=0.000000D+00  E= 1.394043D-01
              MO Center=  7.9D-01,  2.1D-01, -4.3D-01, r^2= 7.9D+00
   Bfn.  Coefficient  Atom+Function         Bfn.  Coefficient  Atom+Function  
  ----- ------------  ---------------      ----- ------------  ---------------
    36      4.561452   2 C  s                98     -3.442022   4 C  s         
    45     -3.368750   2 C  pz               67     -2.740034   3 C  s         
   127      2.720924   5 H  s                76      2.162998   3 C  pz        
   105      2.075962   4 C  px              133     -1.801779   6 H  s         
   139      1.712099   7 H  s               107     -1.553599   4 C  pz        
 
 Vector   26  Occ=0.000000D+00  E= 1.701465D-01
              MO Center=  4.3D-01,  5.5D-01, -1.3D-01, r^2= 7.3D+00
   Bfn.  Coefficient  Atom+Function         Bfn.  Coefficient  Atom+Function  
  ----- ------------  ---------------      ----- ------------  ---------------
    75      2.317312   3 C  py              107      1.612934   4 C  pz        
    67     -1.516659   3 C  s                36      1.487226   2 C  s         
   139     -1.183809   7 H  s               157      1.065041  10 H  s         
    74     -0.947277   3 C  px               44      0.698447   2 C  py        
    43     -0.613250   2 C  px              106     -0.561483   4 C  py        
 
 Vector   27  Occ=0.000000D+00  E= 1.975669D-01
              MO Center=  8.6D-01, -7.3D-02, -9.8D-01, r^2= 5.1D+00
   Bfn.  Coefficient  Atom+Function         Bfn.  Coefficient  Atom+Function  
  ----- ------------  ---------------      ----- ------------  ---------------
    67      3.155155   3 C  s                44     -2.618467   2 C  py        
   106      2.045059   4 C  py               36     -1.612016   2 C  s         
    43      1.012540   2 C  px               74      0.726587   3 C  px        
   157     -0.666902  10 H  s               150      0.654251   9 H  s         
    45     -0.642109   2 C  pz              105      0.611210   4 C  px        
 
 Vector   28  Occ=0.000000D+00  E= 2.023654D-01
              MO Center=  9.3D-01, -4.7D-01, -7.1D-01, r^2= 6.6D+00
   Bfn.  Coefficient  Atom+Function         Bfn.  Coefficient  Atom+Function  
  ----- ------------  ---------------      ----- ------------  ---------------
    36      2.652611   2 C  s                75      1.715109   3 C  py        
   105     -1.479280   4 C  px              133     -1.205445   6 H  s         
   107     -0.850925   4 C  pz               45      0.839358   2 C  pz        
   139     -0.762860   7 H  s               156     -0.717886  10 H  s         
   106      0.708603   4 C  py               76      0.645647   3 C  pz        
 
 Vector   29  Occ=0.000000D+00  E= 2.362376D-01
              MO Center= -3.0D-01,  3.9D-01, -5.0D-02, r^2= 5.4D+00
   Bfn.  Coefficient  Atom+Function         Bfn.  Coefficient  Atom+Function  
  ----- ------------  ---------------      ----- ------------  ---------------
    67      4.531465   3 C  s                36     -3.161465   2 C  s         
   139     -1.522868   7 H  s                66     -1.455829   3 C  s         
    98      1.265324   4 C  s               133     -1.228321   6 H  s         
   107      1.003939   4 C  pz              106      0.758872   4 C  py        
    74     -0.749924   3 C  px                5     -0.743573   1 O  s         
 
 Vector   30  Occ=0.000000D+00  E= 2.472586D-01
              MO Center=  5.5D-01,  1.2D-02, -1.0D-01, r^2= 5.8D+00
   Bfn.  Coefficient  Atom+Function         Bfn.  Coefficient  Atom+Function  
  ----- ------------  ---------------      ----- ------------  ---------------
    67      5.960834   3 C  s                43      4.145286   2 C  px        
    75     -2.953943   3 C  py               44     -2.559285   2 C  py        
    36     -2.158709   2 C  s               107     -2.021133   4 C  pz        
   157     -1.842196  10 H  s                45     -1.401168   2 C  pz        
    98     -1.229706   4 C  s               105     -1.229631   4 C  px        
 
 Vector   31  Occ=0.000000D+00  E= 2.692768D-01
              MO Center=  3.0D-01, -1.6D-01,  2.6D-01, r^2= 5.6D+00
   Bfn.  Coefficient  Atom+Function         Bfn.  Coefficient  Atom+Function  
  ----- ------------  ---------------      ----- ------------  ---------------
    36      4.377780   2 C  s                 5     -2.259073   1 O  s         
    67      2.097663   3 C  s                43     -1.649632   2 C  px        
   105      1.513403   4 C  px               66     -1.188834   3 C  s         
    98     -1.063519   4 C  s               139     -0.925619   7 H  s         
   133     -0.900378   6 H  s               106     -0.860188   4 C  py        
 
 Vector   32  Occ=0.000000D+00  E= 2.789465D-01
              MO Center=  4.1D-01,  3.3D-01,  3.0D-01, r^2= 4.1D+00
   Bfn.  Coefficient  Atom+Function         Bfn.  Coefficient  Atom+Function  
  ----- ------------  ---------------      ----- ------------  ---------------
    36      2.417273   2 C  s                 5     -1.691217   1 O  s         
    67     -1.614090   3 C  s                43     -1.198677   2 C  px        
    74     -0.736379   3 C  px               98     -0.688390   4 C  s         
    45     -0.651703   2 C  pz              145      0.574857   8 H  s         
     4      0.492841   1 O  s                66      0.411088   3 C  s         
 
 Vector   33  Occ=0.000000D+00  E= 3.011000D-01
              MO Center=  4.1D-01,  3.7D-01, -3.7D-01, r^2= 5.0D+00
   Bfn.  Coefficient  Atom+Function         Bfn.  Coefficient  Atom+Function  
  ----- ------------  ---------------      ----- ------------  ---------------
    43      1.821171   2 C  px               98     -1.777934   4 C  s         
   106      1.685055   4 C  py              151      1.655930   9 H  s         
    76      1.537087   3 C  pz               44     -1.154412   2 C  py        
   139      1.066213   7 H  s               107     -1.051394   4 C  pz        
    36     -1.014679   2 C  s                66      1.010942   3 C  s         
 
 Vector   34  Occ=0.000000D+00  E= 3.350621D-01
              MO Center=  3.3D-02,  4.6D-01, -3.7D-01, r^2= 5.9D+00
   Bfn.  Coefficient  Atom+Function         Bfn.  Coefficient  Atom+Function  
  ----- ------------  ---------------      ----- ------------  ---------------
    67      4.473828   3 C  s                76     -4.288549   3 C  pz        
   139     -3.246018   7 H  s               133      2.252139   6 H  s         
    36     -2.133680   2 C  s               107     -1.811365   4 C  pz        
   157     -1.663022  10 H  s                43      1.558146   2 C  px        
    44     -1.320311   2 C  py               98      1.002198   4 C  s         
 
 Vector   35  Occ=0.000000D+00  E= 3.604565D-01
              MO Center=  7.8D-01, -7.8D-02, -4.4D-01, r^2= 6.7D+00
   Bfn.  Coefficient  Atom+Function         Bfn.  Coefficient  Atom+Function  
  ----- ------------  ---------------      ----- ------------  ---------------
    98      7.929426   4 C  s                97     -3.299606   4 C  s         
   145     -3.212787   8 H  s                76      3.104087   3 C  pz        
   133     -2.360611   6 H  s               151     -2.126721   9 H  s         
    45     -2.115709   2 C  pz              157     -1.595829  10 H  s         
   105      1.271828   4 C  px              139      1.176553   7 H  s         
 
 Vector   36  Occ=0.000000D+00  E= 3.723998D-01
              MO Center=  5.5D-01,  2.5D-01,  1.6D-01, r^2= 6.1D+00
   Bfn.  Coefficient  Atom+Function         Bfn.  Coefficient  Atom+Function  
  ----- ------------  ---------------      ----- ------------  ---------------
    36     13.058366   2 C  s                67     -8.492874   3 C  s         
    98     -6.825881   4 C  s               127     -3.534216   5 H  s         
    35     -2.126841   2 C  s                44      1.973776   2 C  py        
   157      1.970373  10 H  s                97      1.785919   4 C  s         
    74     -1.703979   3 C  px               75      1.652084   3 C  py        
 
 Vector   37  Occ=0.000000D+00  E= 3.852018D-01
              MO Center=  9.0D-01, -3.5D-01, -2.1D-01, r^2= 6.1D+00
   Bfn.  Coefficient  Atom+Function         Bfn.  Coefficient  Atom+Function  
  ----- ------------  ---------------      ----- ------------  ---------------
    98      6.034285   4 C  s                36      4.048958   2 C  s         
   127     -3.862965   5 H  s                45      3.223662   2 C  pz        
   151     -2.445038   9 H  s               145     -2.248208   8 H  s         
    35     -2.021823   2 C  s                76     -1.932010   3 C  pz        
    97     -1.819978   4 C  s                67     -1.618957   3 C  s         
 
 Vector   38  Occ=0.000000D+00  E= 3.932704D-01
              MO Center=  1.5D-01,  7.9D-02, -2.7D-01, r^2= 6.4D+00
   Bfn.  Coefficient  Atom+Function         Bfn.  Coefficient  Atom+Function  
  ----- ------------  ---------------      ----- ------------  ---------------
    98     13.062347   4 C  s                45      5.659156   2 C  pz        
    67     -4.356438   3 C  s                36     -3.819406   2 C  s         
    76     -2.899322   3 C  pz              157     -2.843603  10 H  s         
   133      2.087106   6 H  s                44      2.027585   2 C  py        
   107      1.851104   4 C  pz               43     -1.784359   2 C  px        
 
 Vector   39  Occ=0.000000D+00  E= 4.006189D-01
              MO Center= -9.3D-02,  3.2D-01,  2.8D-01, r^2= 6.6D+00
   Bfn.  Coefficient  Atom+Function         Bfn.  Coefficient  Atom+Function  
  ----- ------------  ---------------      ----- ------------  ---------------
    67    -13.343010   3 C  s                36     12.329578   2 C  s         
    45     -4.375310   2 C  pz               44      4.230709   2 C  py        
    98     -3.670424   4 C  s                66      2.812010   3 C  s         
    43     -2.716210   2 C  px              127      2.638922   5 H  s         
   133      2.290639   6 H  s               105      2.254838   4 C  px        
 
 Vector   40  Occ=0.000000D+00  E= 4.149230D-01
              MO Center=  7.2D-01, -3.1D-01, -7.8D-01, r^2= 6.0D+00
   Bfn.  Coefficient  Atom+Function         Bfn.  Coefficient  Atom+Function  
  ----- ------------  ---------------      ----- ------------  ---------------
    98      6.842619   4 C  s                36     -2.974449   2 C  s         
    45      2.840417   2 C  pz              105     -2.460414   4 C  px        
   151     -2.300880   9 H  s               157     -2.038416  10 H  s         
   145      1.707039   8 H  s                97     -1.168603   4 C  s         
   144     -0.940629   8 H  s                35      0.888297   2 C  s         
 
 Vector   41  Occ=0.000000D+00  E= 4.268698D-01
              MO Center=  5.0D-01,  1.6D-01, -2.0D-01, r^2= 6.9D+00
   Bfn.  Coefficient  Atom+Function         Bfn.  Coefficient  Atom+Function  
  ----- ------------  ---------------      ----- ------------  ---------------
    36      9.071463   2 C  s                67     -4.580814   3 C  s         
    98     -4.054623   4 C  s                44      2.571987   2 C  py        
    75      2.562309   3 C  py              151      2.496157   9 H  s         
    43     -1.788223   2 C  px               45     -1.479083   2 C  pz        
    74     -1.425275   3 C  px              105      1.353020   4 C  px        
 
 Vector   42  Occ=0.000000D+00  E= 4.456779D-01
              MO Center=  8.2D-02, -2.9D-02, -2.4D-01, r^2= 6.2D+00
   Bfn.  Coefficient  Atom+Function         Bfn.  Coefficient  Atom+Function  
  ----- ------------  ---------------      ----- ------------  ---------------
    36      9.878451   2 C  s                98     -9.030653   4 C  s         
    45     -5.270292   2 C  pz               67     -3.112025   3 C  s         
   127      2.676431   5 H  s                76      2.350694   3 C  pz        
    44      2.331429   2 C  py              157      2.272317  10 H  s         
    75      2.020285   3 C  py               35     -2.000628   2 C  s         
 
 Vector   43  Occ=0.000000D+00  E= 4.591950D-01
              MO Center=  9.3D-02,  7.8D-01, -4.4D-01, r^2= 5.1D+00
   Bfn.  Coefficient  Atom+Function         Bfn.  Coefficient  Atom+Function  
  ----- ------------  ---------------      ----- ------------  ---------------
   139      3.212717   7 H  s               107     -2.239586   4 C  pz        
   157     -2.174476  10 H  s                45     -2.068757   2 C  pz        
    75     -1.918881   3 C  py              138     -1.408669   7 H  s         
    43      1.366054   2 C  px               76      1.367638   3 C  pz        
    44     -1.266724   2 C  py               98     -1.119589   4 C  s         
 
 Vector   44  Occ=0.000000D+00  E= 4.674552D-01
              MO Center=  5.6D-01,  1.2D-01, -8.2D-02, r^2= 5.7D+00
   Bfn.  Coefficient  Atom+Function         Bfn.  Coefficient  Atom+Function  
  ----- ------------  ---------------      ----- ------------  ---------------
    36      4.636055   2 C  s                98     -4.657687   4 C  s         
    45     -1.839134   2 C  pz              107     -1.713458   4 C  pz        
   145      1.699576   8 H  s               133      1.650867   6 H  s         
    67     -1.496045   3 C  s               157     -1.295606  10 H  s         
    35     -1.267464   2 C  s               127     -1.183139   5 H  s         
 
 Vector   45  Occ=0.000000D+00  E= 5.083256D-01
              MO Center=  9.0D-01, -3.8D-01, -9.3D-01, r^2= 4.8D+00
   Bfn.  Coefficient  Atom+Function         Bfn.  Coefficient  Atom+Function  
  ----- ------------  ---------------      ----- ------------  ---------------
    98     11.492633   4 C  s                36     -7.589504   2 C  s         
    45      4.692813   2 C  pz              107      3.081937   4 C  pz        
   106      1.333386   4 C  py              144     -1.333386   8 H  s         
   127     -1.221879   5 H  s               156     -1.226515  10 H  s         
   150     -1.080057   9 H  s                14     -1.068898   1 O  pz        
 
 Vector   46  Occ=0.000000D+00  E= 5.390000D-01
              MO Center=  1.0D-01, -4.0D-01, -4.8D-01, r^2= 4.4D+00
   Bfn.  Coefficient  Atom+Function         Bfn.  Coefficient  Atom+Function  
  ----- ------------  ---------------      ----- ------------  ---------------
    98     -6.959223   4 C  s                36      6.555928   2 C  s         
    45     -3.440582   2 C  pz               76      3.150341   3 C  pz        
   133     -1.789907   6 H  s               105      1.461355   4 C  px        
   139      1.445091   7 H  s               107     -1.415698   4 C  pz        
    14     -1.179184   1 O  pz                5     -1.141862   1 O  s         
 
 Vector   47  Occ=0.000000D+00  E= 6.567976D-01
              MO Center= -3.7D-01,  2.1D-02, -3.1D-02, r^2= 4.3D+00
   Bfn.  Coefficient  Atom+Function         Bfn.  Coefficient  Atom+Function  
  ----- ------------  ---------------      ----- ------------  ---------------
    36     11.563129   2 C  s                67     -8.869860   3 C  s         
    98     -4.080033   4 C  s                43     -2.546314   2 C  px        
    75      2.419094   3 C  py               13      2.211374   1 O  py        
    76      2.072756   3 C  pz              105      1.575168   4 C  px        
   139      1.522924   7 H  s                44      1.429421   2 C  py        
 
 Vector   48  Occ=0.000000D+00  E= 6.743803D-01
              MO Center= -3.0D-01,  3.5D-01,  1.3D-01, r^2= 3.9D+00
   Bfn.  Coefficient  Atom+Function         Bfn.  Coefficient  Atom+Function  
  ----- ------------  ---------------      ----- ------------  ---------------
    36      8.251483   2 C  s                67     -8.070552   3 C  s         
     5      2.981610   1 O  s                75      2.637543   3 C  py        
    13      2.139121   1 O  py               98     -2.139361   4 C  s         
    43     -1.316347   2 C  px               45     -1.236286   2 C  pz        
     4     -1.096733   1 O  s                44      1.051664   2 C  py        
 
 Vector   49  Occ=0.000000D+00  E= 7.076406D-01
              MO Center=  1.7D-01, -3.0D-01, -2.6D-01, r^2= 4.5D+00
   Bfn.  Coefficient  Atom+Function         Bfn.  Coefficient  Atom+Function  
  ----- ------------  ---------------      ----- ------------  ---------------
    67      9.456290   3 C  s                36     -7.383440   2 C  s         
    43      3.701427   2 C  px               44     -3.482275   2 C  py        
    75     -2.727109   3 C  py               98     -2.469372   4 C  s         
     5      2.372933   1 O  s                12      1.699744   1 O  px        
   106      1.643756   4 C  py               13     -1.299793   1 O  py        
 
 Vector   50  Occ=0.000000D+00  E= 7.614745D-01
              MO Center=  6.3D-01, -5.3D-02, -3.6D-01, r^2= 4.1D+00
   Bfn.  Coefficient  Atom+Function         Bfn.  Coefficient  Atom+Function  
  ----- ------------  ---------------      ----- ------------  ---------------
    45      2.361098   2 C  pz               36      1.664060   2 C  s         
     5     -1.653916   1 O  s               127     -1.658918   5 H  s         
   105     -1.631884   4 C  px              126     -1.348805   5 H  s         
    43      1.335391   2 C  px              144      1.279363   8 H  s         
    66      1.026288   3 C  s                 4      0.919029   1 O  s         
 
 Vector   51  Occ=0.000000D+00  E= 7.969752D-01
              MO Center=  2.9D-01,  4.5D-02, -2.0D-01, r^2= 4.4D+00
   Bfn.  Coefficient  Atom+Function         Bfn.  Coefficient  Atom+Function  
  ----- ------------  ---------------      ----- ------------  ---------------
     5      4.053196   1 O  s                36     -2.519406   2 C  s         
    76     -2.408914   3 C  pz                4     -1.553159   1 O  s         
    45      1.420640   2 C  pz               12      1.339742   1 O  px        
   133      1.274274   6 H  s                43      1.259040   2 C  px        
    35     -1.053874   2 C  s                66     -1.034575   3 C  s         
 
 Vector   52  Occ=0.000000D+00  E= 8.322995D-01
              MO Center=  3.3D-01,  1.6D-01, -1.5D-02, r^2= 4.5D+00
   Bfn.  Coefficient  Atom+Function         Bfn.  Coefficient  Atom+Function  
  ----- ------------  ---------------      ----- ------------  ---------------
    36      6.637515   2 C  s                98     -4.077621   4 C  s         
     5     -3.947285   1 O  s                43     -2.611502   2 C  px        
   105      1.966268   4 C  px               35     -1.812684   2 C  s         
    45     -1.797203   2 C  pz               44      1.493953   2 C  py        
    66     -1.197241   3 C  s                97      1.058206   4 C  s         
 
 Vector   53  Occ=0.000000D+00  E= 8.569926D-01
              MO Center=  5.4D-01,  1.7D-01, -3.7D-01, r^2= 4.3D+00
   Bfn.  Coefficient  Atom+Function         Bfn.  Coefficient  Atom+Function  
  ----- ------------  ---------------      ----- ------------  ---------------
    36      4.903156   2 C  s                45     -4.642440   2 C  pz        
    98     -4.637139   4 C  s                76      2.020792   3 C  pz        
   127      1.787572   5 H  s                 5     -1.647012   1 O  s         
   106     -1.520412   4 C  py              105      1.412310   4 C  px        
    44      1.342768   2 C  py              150     -1.180153   9 H  s         
 
 Vector   54  Occ=0.000000D+00  E= 8.748922D-01
              MO Center=  2.2D-01, -4.4D-02, -1.4D-01, r^2= 4.2D+00
   Bfn.  Coefficient  Atom+Function         Bfn.  Coefficient  Atom+Function  
  ----- ------------  ---------------      ----- ------------  ---------------
     5      4.387053   1 O  s                76      1.646402   3 C  pz        
    98     -1.532436   4 C  s                 4     -1.470090   1 O  s         
   138      1.398050   7 H  s                67     -1.287408   3 C  s         
    36     -1.182096   2 C  s                66     -1.181982   3 C  s         
    12      1.150762   1 O  px               44      0.917911   2 C  py        
 
 Vector   55  Occ=0.000000D+00  E= 9.202594D-01
              MO Center=  4.8D-01,  3.4D-01, -4.5D-01, r^2= 4.5D+00
   Bfn.  Coefficient  Atom+Function         Bfn.  Coefficient  Atom+Function  
  ----- ------------  ---------------      ----- ------------  ---------------
    35      4.810397   2 C  s                36     -1.754154   2 C  s         
    67      1.454437   3 C  s               132     -1.350277   6 H  s         
    72      1.240958   3 C  py               66     -1.180818   3 C  s         
   156     -1.180511  10 H  s                84      1.161970   3 C  d  0      
    41      1.126843   2 C  py              116     -1.063501   4 C  d  1      
 
 Vector   56  Occ=0.000000D+00  E= 9.583461D-01
              MO Center=  4.6D-01,  3.0D-01, -5.4D-01, r^2= 4.7D+00
   Bfn.  Coefficient  Atom+Function         Bfn.  Coefficient  Atom+Function  
  ----- ------------  ---------------      ----- ------------  ---------------
    35      4.239809   2 C  s                67      2.586826   3 C  s         
   138     -2.365605   7 H  s                76     -1.804565   3 C  pz        
    42     -1.712891   2 C  pz               83     -1.663821   3 C  d -1      
    98     -1.558968   4 C  s               115     -1.445803   4 C  d  0      
    36     -1.404271   2 C  s               132      1.329334   6 H  s         
 
 Vector   57  Occ=0.000000D+00  E= 9.925274D-01
              MO Center=  3.2D-01,  5.1D-01, -1.1D-01, r^2= 4.0D+00
   Bfn.  Coefficient  Atom+Function         Bfn.  Coefficient  Atom+Function  
  ----- ------------  ---------------      ----- ------------  ---------------
    36      7.121743   2 C  s                98     -4.698301   4 C  s         
    67     -3.707530   3 C  s                45     -3.647104   2 C  pz        
    43     -2.252353   2 C  px               44      2.029491   2 C  py        
    66     -1.577206   3 C  s               127      1.524959   5 H  s         
    35     -1.405466   2 C  s                75      1.399234   3 C  py        
 
 Vector   58  Occ=0.000000D+00  E= 1.011139D+00
              MO Center=  3.9D-01,  5.2D-01, -6.6D-02, r^2= 4.3D+00
   Bfn.  Coefficient  Atom+Function         Bfn.  Coefficient  Atom+Function  
  ----- ------------  ---------------      ----- ------------  ---------------
    36      5.748286   2 C  s                67     -4.602482   3 C  s         
    45     -2.281127   2 C  pz               98     -1.950296   4 C  s         
    44      1.877224   2 C  py              156     -1.502288  10 H  s         
   144      1.389935   8 H  s                43     -1.357939   2 C  px        
    74     -1.331918   3 C  px               82      1.324470   3 C  d -2      
 
 Vector   59  Occ=0.000000D+00  E= 1.041413D+00
              MO Center=  6.9D-01, -1.6D-01, -4.5D-01, r^2= 4.2D+00
   Bfn.  Coefficient  Atom+Function         Bfn.  Coefficient  Atom+Function  
  ----- ------------  ---------------      ----- ------------  ---------------
    36      2.779321   2 C  s                35      2.761855   2 C  s         
    66     -2.346337   3 C  s               150      1.938345   9 H  s         
     5     -1.903059   1 O  s               144     -1.903644   8 H  s         
   117      1.711699   4 C  d  2             41      1.537719   2 C  py        
    67     -1.403466   3 C  s                44      1.384874   2 C  py        
 
 Vector   60  Occ=0.000000D+00  E= 1.078103D+00
              MO Center=  6.7D-01,  1.7D-02, -6.9D-02, r^2= 4.1D+00
   Bfn.  Coefficient  Atom+Function         Bfn.  Coefficient  Atom+Function  
  ----- ------------  ---------------      ----- ------------  ---------------
    66     -3.986750   3 C  s                98      3.934800   4 C  s         
    45      3.631470   2 C  pz               97      3.623360   4 C  s         
    36     -3.080466   2 C  s                41      2.526877   2 C  py        
   104      2.474748   4 C  pz               42      2.325152   2 C  pz        
    72      2.310946   3 C  py               53     -2.183655   2 C  d  0      
 
 Vector   61  Occ=0.000000D+00  E= 1.104318D+00
              MO Center=  3.6D-01,  8.6D-02,  8.1D-02, r^2= 3.8D+00
   Bfn.  Coefficient  Atom+Function         Bfn.  Coefficient  Atom+Function  
  ----- ------------  ---------------      ----- ------------  ---------------
    36      7.905355   2 C  s                67     -5.480204   3 C  s         
    98     -3.204541   4 C  s                66      2.238116   3 C  s         
    45     -2.103608   2 C  pz              126     -2.058957   5 H  s         
   132      1.699960   6 H  s                72     -1.674483   3 C  py        
    41     -1.562106   2 C  py               53      1.524248   2 C  d  0      
 
 Vector   62  Occ=0.000000D+00  E= 1.146298D+00
              MO Center=  6.3D-01, -2.0D-02, -5.3D-02, r^2= 3.5D+00
   Bfn.  Coefficient  Atom+Function         Bfn.  Coefficient  Atom+Function  
  ----- ------------  ---------------      ----- ------------  ---------------
    67      4.972819   3 C  s                36     -3.800896   2 C  s         
    44     -2.353202   2 C  py               97     -1.757391   4 C  s         
   126      1.738196   5 H  s                54      1.548012   2 C  d  1      
    43      1.513563   2 C  px               55      1.509452   2 C  d  2      
    42     -1.410188   2 C  pz               75     -1.389050   3 C  py        
 
 Vector   63  Occ=0.000000D+00  E= 1.213625D+00
              MO Center=  5.6D-01,  2.0D-01, -1.5D-01, r^2= 3.8D+00
   Bfn.  Coefficient  Atom+Function         Bfn.  Coefficient  Atom+Function  
  ----- ------------  ---------------      ----- ------------  ---------------
    36      6.647291   2 C  s                66     -5.061739   3 C  s         
    97     -3.309069   4 C  s                67     -3.210408   3 C  s         
    35      3.124689   2 C  s                72      1.942508   3 C  py        
    51     -1.770420   2 C  d -2             52      1.675196   2 C  d -1      
   138      1.628982   7 H  s                41      1.508452   2 C  py        
 
 Vector   64  Occ=0.000000D+00  E= 1.349693D+00
              MO Center=  3.4D-01,  5.5D-01,  2.2D-01, r^2= 3.6D+00
   Bfn.  Coefficient  Atom+Function         Bfn.  Coefficient  Atom+Function  
  ----- ------------  ---------------      ----- ------------  ---------------
    66      4.760126   3 C  s                35      3.901058   2 C  s         
    67     -3.180859   3 C  s                36     -2.647678   2 C  s         
    65     -2.434629   3 C  s               132     -2.030570   6 H  s         
    34     -1.429070   2 C  s               133      1.428288   6 H  s         
    72      1.353438   3 C  py              139      1.101765   7 H  s         
 
 Vector   65  Occ=0.000000D+00  E= 1.414643D+00
              MO Center=  1.5D-01,  5.1D-01, -3.8D-02, r^2= 3.4D+00
   Bfn.  Coefficient  Atom+Function         Bfn.  Coefficient  Atom+Function  
  ----- ------------  ---------------      ----- ------------  ---------------
    36      4.300104   2 C  s                35     -3.836848   2 C  s         
    67     -3.852022   3 C  s                66      3.736152   3 C  s         
    73     -2.323593   3 C  pz              138     -2.227149   7 H  s         
   139      2.151232   7 H  s               126      1.740984   5 H  s         
    76      1.625689   3 C  pz               34      1.571105   2 C  s         
 
 Vector   66  Occ=0.000000D+00  E= 1.432318D+00
              MO Center=  1.1D+00, -4.3D-01, -1.1D+00, r^2= 3.6D+00
   Bfn.  Coefficient  Atom+Function         Bfn.  Coefficient  Atom+Function  
  ----- ------------  ---------------      ----- ------------  ---------------
    98      9.818443   4 C  s                97     -7.437769   4 C  s         
    96      3.006368   4 C  s                36     -2.654163   2 C  s         
   145     -2.410523   8 H  s               151     -2.205113   9 H  s         
   157     -2.018498  10 H  s               144      1.779379   8 H  s         
   150      1.537851   9 H  s               104      1.404266   4 C  pz        
 
 Vector   67  Occ=0.000000D+00  E= 1.441856D+00
              MO Center=  3.5D-01, -7.8D-04, -1.1D-01, r^2= 4.3D+00
   Bfn.  Coefficient  Atom+Function         Bfn.  Coefficient  Atom+Function  
  ----- ------------  ---------------      ----- ------------  ---------------
    66      4.502749   3 C  s                98      4.258305   4 C  s         
    35     -3.157515   2 C  s                67     -3.012311   3 C  s         
    97     -2.178465   4 C  s                45      2.026226   2 C  pz        
   133      1.990797   6 H  s                76     -1.759464   3 C  pz        
    65     -1.629801   3 C  s               132     -1.619621   6 H  s         
 
 Vector   68  Occ=0.000000D+00  E= 1.447343D+00
              MO Center=  3.2D-01, -1.3D-02, -1.9D-01, r^2= 3.1D+00
   Bfn.  Coefficient  Atom+Function         Bfn.  Coefficient  Atom+Function  
  ----- ------------  ---------------      ----- ------------  ---------------
    98      4.418750   4 C  s                36     -2.617653   2 C  s         
    97     -2.411431   4 C  s                 5      2.111303   1 O  s         
    45      1.749216   2 C  pz               35     -1.228643   2 C  s         
   127     -1.142556   5 H  s                44     -1.034535   2 C  py        
    96      1.025291   4 C  s                67      0.962478   3 C  s         
 
 Vector   69  Occ=0.000000D+00  E= 1.473783D+00
              MO Center=  9.1D-01, -2.8D-01, -9.6D-01, r^2= 3.5D+00
   Bfn.  Coefficient  Atom+Function         Bfn.  Coefficient  Atom+Function  
  ----- ------------  ---------------      ----- ------------  ---------------
    66      2.258924   3 C  s                67     -1.265687   3 C  s         
     5     -1.258356   1 O  s                71     -0.977109   3 C  px        
    97      0.980665   4 C  s                65     -0.967635   3 C  s         
    98     -0.969126   4 C  s               133      0.936521   6 H  s         
    36      0.886842   2 C  s               132     -0.841084   6 H  s         
 
 Vector   70  Occ=0.000000D+00  E= 1.477767D+00
              MO Center=  1.0D+00, -3.8D-01, -1.0D+00, r^2= 3.2D+00
   Bfn.  Coefficient  Atom+Function         Bfn.  Coefficient  Atom+Function  
  ----- ------------  ---------------      ----- ------------  ---------------
    36      3.057140   2 C  s               156     -2.789743  10 H  s         
   157      2.136225  10 H  s               102     -1.971526   4 C  px        
   103      1.873402   4 C  py              126      1.811138   5 H  s         
   104     -1.762672   4 C  pz               35     -1.508452   2 C  s         
   127     -1.441345   5 H  s               150      1.227406   9 H  s         
 
 Vector   71  Occ=0.000000D+00  E= 1.509753D+00
              MO Center=  3.0D-01,  2.1D-01, -2.9D-01, r^2= 4.0D+00
   Bfn.  Coefficient  Atom+Function         Bfn.  Coefficient  Atom+Function  
  ----- ------------  ---------------      ----- ------------  ---------------
    98      3.020745   4 C  s               144      1.806004   8 H  s         
    97     -1.506490   4 C  s               102     -1.487445   4 C  px        
   145     -1.398825   8 H  s                36     -1.318097   2 C  s         
    45      1.294634   2 C  pz              103     -1.265858   4 C  py        
    66      0.851871   3 C  s               150     -0.833808   9 H  s         
 
 Vector   72  Occ=0.000000D+00  E= 1.541763D+00
              MO Center=  4.3D-01,  3.9D-01, -2.7D-01, r^2= 4.7D+00
   Bfn.  Coefficient  Atom+Function         Bfn.  Coefficient  Atom+Function  
  ----- ------------  ---------------      ----- ------------  ---------------
    36      4.265818   2 C  s                35     -3.688626   2 C  s         
    98     -3.386004   4 C  s                97      3.042848   4 C  s         
    67     -2.517069   3 C  s                73      2.158767   3 C  pz        
   132     -1.731386   6 H  s               102     -1.487986   4 C  px        
   133      1.458869   6 H  s               138      1.357940   7 H  s         
 
 Vector   73  Occ=0.000000D+00  E= 1.575957D+00
              MO Center=  5.0D-01, -2.6D-02, -6.2D-02, r^2= 3.2D+00
   Bfn.  Coefficient  Atom+Function         Bfn.  Coefficient  Atom+Function  
  ----- ------------  ---------------      ----- ------------  ---------------
    35      3.367319   2 C  s                36     -2.728484   2 C  s         
    40     -2.088936   2 C  px               97     -2.002083   4 C  s         
   126      1.860975   5 H  s                67      1.748620   3 C  s         
    72      1.561587   3 C  py               42     -1.514791   2 C  pz        
    34     -1.421179   2 C  s                98      1.378583   4 C  s         
 
 Vector   74  Occ=0.000000D+00  E= 1.597096D+00
              MO Center=  3.5D-01,  3.8D-01, -1.5D-01, r^2= 3.4D+00
   Bfn.  Coefficient  Atom+Function         Bfn.  Coefficient  Atom+Function  
  ----- ------------  ---------------      ----- ------------  ---------------
    66     -5.587475   3 C  s                36     -5.316163   2 C  s         
    35      5.257256   2 C  s                67      4.049395   3 C  s         
    41      3.825225   2 C  py               71     -2.573116   3 C  px        
    72      2.535026   3 C  py               40     -2.102003   2 C  px        
    98      1.760761   4 C  s                82      1.675552   3 C  d -2      
 
 Vector   75  Occ=0.000000D+00  E= 1.643746D+00
              MO Center=  4.7D-01,  1.8D-01, -3.8D-02, r^2= 3.7D+00
   Bfn.  Coefficient  Atom+Function         Bfn.  Coefficient  Atom+Function  
  ----- ------------  ---------------      ----- ------------  ---------------
    66      2.434777   3 C  s                35      2.397013   2 C  s         
    98      1.955763   4 C  s                 5     -1.746731   1 O  s         
    97     -1.675388   4 C  s                67     -1.288933   3 C  s         
   104     -1.122929   4 C  pz              144      1.115483   8 H  s         
   103     -1.066043   4 C  py              150     -1.059741   9 H  s         
 
 Vector   76  Occ=0.000000D+00  E= 1.695468D+00
              MO Center=  5.5D-01,  1.6D-01, -4.2D-01, r^2= 3.7D+00
   Bfn.  Coefficient  Atom+Function         Bfn.  Coefficient  Atom+Function  
  ----- ------------  ---------------      ----- ------------  ---------------
    97     -5.467368   4 C  s                35      5.038860   2 C  s         
   104     -2.831378   4 C  pz               42     -2.808915   2 C  pz        
   102      1.822260   4 C  px               40      1.600642   2 C  px        
    34     -1.506218   2 C  s                96      1.509013   4 C  s         
    66     -1.427592   3 C  s                72     -1.359119   3 C  py        
 
 Vector   77  Occ=0.000000D+00  E= 1.701412D+00
              MO Center= -5.3D-02,  2.6D-01, -6.6D-02, r^2= 3.6D+00
   Bfn.  Coefficient  Atom+Function         Bfn.  Coefficient  Atom+Function  
  ----- ------------  ---------------      ----- ------------  ---------------
     5      3.988454   1 O  s                72      3.128553   3 C  py        
    36     -2.323314   2 C  s                66     -1.882957   3 C  s         
   138     -1.854194   7 H  s                97      1.537930   4 C  s         
    12      1.526887   1 O  px               42      1.312562   2 C  pz        
    41      1.251271   2 C  py               43      1.238222   2 C  px        
 
 Vector   78  Occ=0.000000D+00  E= 1.794095D+00
              MO Center=  3.6D-01,  2.6D-01,  3.4D-02, r^2= 3.5D+00
   Bfn.  Coefficient  Atom+Function         Bfn.  Coefficient  Atom+Function  
  ----- ------------  ---------------      ----- ------------  ---------------
    35      3.366294   2 C  s                97     -2.743175   4 C  s         
    36      1.821522   2 C  s                45     -1.303340   2 C  pz        
     5     -1.191036   1 O  s               104     -1.136481   4 C  pz        
    72      1.115799   3 C  py               67     -1.057247   3 C  s         
    42     -1.042152   2 C  pz              102      0.944365   4 C  px        
 
 Vector   79  Occ=0.000000D+00  E= 1.817277D+00
              MO Center= -5.4D-01,  1.8D-01,  1.6D-01, r^2= 2.7D+00
   Bfn.  Coefficient  Atom+Function         Bfn.  Coefficient  Atom+Function  
  ----- ------------  ---------------      ----- ------------  ---------------
    35      3.634608   2 C  s                 5     -3.057464   1 O  s         
    40     -2.455904   2 C  px               41      2.156123   2 C  py        
    72      1.978361   3 C  py               66     -1.832297   3 C  s         
    71     -1.566080   3 C  px               12     -1.289176   1 O  px        
   138     -1.036600   7 H  s                67      1.027044   3 C  s         
 
 Vector   80  Occ=0.000000D+00  E= 1.840925D+00
              MO Center=  4.5D-02,  2.9D-01, -6.3D-02, r^2= 3.6D+00
   Bfn.  Coefficient  Atom+Function         Bfn.  Coefficient  Atom+Function  
  ----- ------------  ---------------      ----- ------------  ---------------
    35      1.679258   2 C  s                36     -1.277527   2 C  s         
   156     -0.947394  10 H  s                 5     -0.794767   1 O  s         
    71     -0.777061   3 C  px              104     -0.724554   4 C  pz        
    66      0.708895   3 C  s                67      0.697386   3 C  s         
    41     -0.644434   2 C  py              150      0.635031   9 H  s         
 
 Vector   81  Occ=0.000000D+00  E= 1.866185D+00
              MO Center=  5.3D-01,  1.6D-01, -4.6D-01, r^2= 4.0D+00
   Bfn.  Coefficient  Atom+Function         Bfn.  Coefficient  Atom+Function  
  ----- ------------  ---------------      ----- ------------  ---------------
    35      6.645162   2 C  s                66     -4.339406   3 C  s         
    72      3.497270   3 C  py               97     -3.369704   4 C  s         
    36      2.154407   2 C  s               104     -1.926338   4 C  pz        
    34     -1.649325   2 C  s                67     -1.591944   3 C  s         
    41      1.501616   2 C  py               45     -1.406229   2 C  pz        
 
 Vector   82  Occ=0.000000D+00  E= 1.922812D+00
              MO Center=  3.2D-01, -1.4D-01, -2.8D-01, r^2= 3.2D+00
   Bfn.  Coefficient  Atom+Function         Bfn.  Coefficient  Atom+Function  
  ----- ------------  ---------------      ----- ------------  ---------------
    36      1.344403   2 C  s                98     -1.350786   4 C  s         
   103     -1.209856   4 C  py               45     -1.194666   2 C  pz        
    97     -1.115920   4 C  s                35      0.850641   2 C  s         
    42     -0.782391   2 C  pz              150     -0.747404   9 H  s         
    66     -0.674887   3 C  s                41      0.659687   2 C  py        
 
 Vector   83  Occ=0.000000D+00  E= 1.990281D+00
              MO Center=  7.8D-01, -1.9D-01, -2.8D-01, r^2= 3.4D+00
   Bfn.  Coefficient  Atom+Function         Bfn.  Coefficient  Atom+Function  
  ----- ------------  ---------------      ----- ------------  ---------------
    35      3.210896   2 C  s                98      3.142946   4 C  s         
    66     -2.690520   3 C  s                40     -2.293724   2 C  px        
    72      1.909389   3 C  py               41      1.735580   2 C  py        
    43     -1.545191   2 C  px               67     -1.390880   3 C  s         
    71     -1.394732   3 C  px              126      1.232335   5 H  s         
 
 Vector   84  Occ=0.000000D+00  E= 1.996050D+00
              MO Center=  6.9D-01, -1.4D-01, -8.3D-01, r^2= 3.4D+00
   Bfn.  Coefficient  Atom+Function         Bfn.  Coefficient  Atom+Function  
  ----- ------------  ---------------      ----- ------------  ---------------
    36      4.553232   2 C  s                98     -4.188471   4 C  s         
    35     -2.223074   2 C  s                45     -2.094255   2 C  pz        
    67     -1.509093   3 C  s               156      1.177941  10 H  s         
   107     -1.097851   4 C  pz              104      1.022674   4 C  pz        
    34      0.878693   2 C  s                 5     -0.766245   1 O  s         
 
 Vector   85  Occ=0.000000D+00  E= 2.083858D+00
              MO Center= -4.5D-02,  2.0D-01, -3.0D-02, r^2= 3.6D+00
   Bfn.  Coefficient  Atom+Function         Bfn.  Coefficient  Atom+Function  
  ----- ------------  ---------------      ----- ------------  ---------------
    98      2.119175   4 C  s                36     -1.743742   2 C  s         
   138      0.762472   7 H  s               156     -0.760847  10 H  s         
    14      0.670961   1 O  pz               41     -0.567617   2 C  py        
   144     -0.544607   8 H  s                83      0.511141   3 C  d -1      
   150     -0.508737   9 H  s                45      0.498525   2 C  pz        
 
 Vector   86  Occ=0.000000D+00  E= 2.096084D+00
              MO Center= -3.8D-01,  6.7D-02,  7.0D-02, r^2= 2.9D+00
   Bfn.  Coefficient  Atom+Function         Bfn.  Coefficient  Atom+Function  
  ----- ------------  ---------------      ----- ------------  ---------------
    36      6.012951   2 C  s                67     -5.662769   3 C  s         
    35     -3.227309   2 C  s                66      3.180545   3 C  s         
    41     -2.955236   2 C  py               71      2.717657   3 C  px        
    13      1.891687   1 O  py               82     -1.436036   3 C  d -2      
    43     -1.351765   2 C  px               75      1.352487   3 C  py        
 
 Vector   87  Occ=0.000000D+00  E= 2.165291D+00
              MO Center=  5.2D-01, -2.4D-02, -4.9D-01, r^2= 3.2D+00
   Bfn.  Coefficient  Atom+Function         Bfn.  Coefficient  Atom+Function  
  ----- ------------  ---------------      ----- ------------  ---------------
    98      2.382903   4 C  s                67     -1.761018   3 C  s         
    35     -1.323365   2 C  s                73      1.016311   3 C  pz        
   156     -0.919692  10 H  s                40      0.885890   2 C  px        
    45      0.851859   2 C  pz               44      0.795888   2 C  py        
    43     -0.783414   2 C  px               42     -0.754113   2 C  pz        
 
 Vector   88  Occ=0.000000D+00  E= 2.194665D+00
              MO Center=  4.2D-01,  1.6D-01, -2.5D-01, r^2= 3.6D+00
   Bfn.  Coefficient  Atom+Function         Bfn.  Coefficient  Atom+Function  
  ----- ------------  ---------------      ----- ------------  ---------------
    98      2.056020   4 C  s                36     -1.441911   2 C  s         
    45      0.996477   2 C  pz               76     -0.880858   3 C  pz        
   132      0.766066   6 H  s               117     -0.742916   4 C  d  2      
   103     -0.656102   4 C  py               97     -0.639732   4 C  s         
    42     -0.622158   2 C  pz               55      0.585460   2 C  d  2      
 
 Vector   89  Occ=0.000000D+00  E= 2.230164D+00
              MO Center=  6.9D-01, -3.0D-02, -1.4D-01, r^2= 3.6D+00
   Bfn.  Coefficient  Atom+Function         Bfn.  Coefficient  Atom+Function  
  ----- ------------  ---------------      ----- ------------  ---------------
    36      3.325350   2 C  s                67     -1.800641   3 C  s         
    98     -1.345597   4 C  s                 5     -1.093366   1 O  s         
    42     -1.097139   2 C  pz               72     -0.827411   3 C  py        
    43     -0.767624   2 C  px               35     -0.751411   2 C  s         
    45     -0.746211   2 C  pz              102      0.699259   4 C  px        
 
 Vector   90  Occ=0.000000D+00  E= 2.243309D+00
              MO Center=  7.9D-01, -3.0D-01, -8.3D-01, r^2= 3.6D+00
   Bfn.  Coefficient  Atom+Function         Bfn.  Coefficient  Atom+Function  
  ----- ------------  ---------------      ----- ------------  ---------------
   150      1.283111   9 H  s                36      0.971676   2 C  s         
   144     -0.866638   8 H  s                66     -0.857231   3 C  s         
    98     -0.789532   4 C  s                72      0.776903   3 C  py        
   117      0.687037   4 C  d  2             67     -0.628117   3 C  s         
   149     -0.556940   9 H  s                83      0.535964   3 C  d -1      
 
 Vector   91  Occ=0.000000D+00  E= 2.268264D+00
              MO Center=  9.2D-01, -2.4D-01, -1.1D+00, r^2= 3.0D+00
   Bfn.  Coefficient  Atom+Function         Bfn.  Coefficient  Atom+Function  
  ----- ------------  ---------------      ----- ------------  ---------------
    66      2.297553   3 C  s                36      1.996988   2 C  s         
    41     -1.503774   2 C  py               67     -1.440517   3 C  s         
    35     -1.169569   2 C  s                98     -1.114082   4 C  s         
    72     -1.056818   3 C  py              156      0.967037  10 H  s         
   126     -0.876081   5 H  s                71      0.868421   3 C  px        
 
 Vector   92  Occ=0.000000D+00  E= 2.286803D+00
              MO Center=  5.0D-01,  1.4D-01, -2.2D-01, r^2= 3.6D+00
   Bfn.  Coefficient  Atom+Function         Bfn.  Coefficient  Atom+Function  
  ----- ------------  ---------------      ----- ------------  ---------------
    98      3.547254   4 C  s                66      2.307721   3 C  s         
[...]
    21     -0.877589   1 O  d -1             42     -0.804074   2 C  pz        
    97     -0.706931   4 C  s                45     -0.668076   2 C  pz        
     5     -0.529134   1 O  s                67     -0.517286   3 C  s         
    83     -0.502827   3 C  d -1             98     -0.491488   4 C  s         
 
 Vector  154  Occ=0.000000D+00  E= 6.677779D+00
              MO Center= -8.7D-01, -1.8D-01,  2.0D-01, r^2= 5.7D-01
   Bfn.  Coefficient  Atom+Function         Bfn.  Coefficient  Atom+Function  
  ----- ------------  ---------------      ----- ------------  ---------------
    18      1.063073   1 O  d  1             23     -1.042134   1 O  d  1      
    97     -0.835846   4 C  s                42     -0.775328   2 C  pz        
    35      0.745441   2 C  s               102      0.639035   4 C  px        
    54     -0.554682   2 C  d  1             14      0.407176   1 O  pz        
    11      0.394492   1 O  pz               16     -0.387155   1 O  d -1      
 
 Vector  155  Occ=0.000000D+00  E= 6.841767D+00
              MO Center= -8.8D-01, -1.9D-01,  2.0D-01, r^2= 5.9D-01
   Bfn.  Coefficient  Atom+Function         Bfn.  Coefficient  Atom+Function  
  ----- ------------  ---------------      ----- ------------  ---------------
     5      2.091733   1 O  s                40      1.773642   2 C  px        
     9      1.356587   1 O  px               97     -1.283523   4 C  s         
     4      1.197291   1 O  s                20      1.049636   1 O  d -2      
    42     -0.974890   2 C  pz               35     -0.849612   2 C  s         
    12      0.840105   1 O  px               15     -0.834370   1 O  d -2      
 
 Vector  156  Occ=0.000000D+00  E= 7.054896D+00
              MO Center= -8.9D-01, -1.9D-01,  2.0D-01, r^2= 6.4D-01
   Bfn.  Coefficient  Atom+Function         Bfn.  Coefficient  Atom+Function  
  ----- ------------  ---------------      ----- ------------  ---------------
    66     -3.176165   3 C  s                35      3.018240   2 C  s         
    40     -2.728097   2 C  px               72      2.707164   3 C  py        
    24     -1.581979   1 O  d  2             36      1.454210   2 C  s         
    10      1.295014   1 O  py               67     -1.299486   3 C  s         
    19      1.016958   1 O  d  2             13      0.871200   1 O  py        
 
 Vector  157  Occ=0.000000D+00  E= 2.194214D+01
              MO Center=  9.2D-02,  7.6D-01,  3.5D-02, r^2= 1.3D+00
   Bfn.  Coefficient  Atom+Function         Bfn.  Coefficient  Atom+Function  
  ----- ------------  ---------------      ----- ------------  ---------------
    64      1.568769   3 C  s                65     -1.332668   3 C  s         
    67     -1.248984   3 C  s                63     -1.236269   3 C  s         
    98      1.087390   4 C  s                95     -0.778003   4 C  s         
    96      0.642885   4 C  s                94      0.615401   4 C  s         
    35      0.542814   2 C  s                40     -0.480682   2 C  px        
 
 Vector  158  Occ=0.000000D+00  E= 2.198206D+01
              MO Center=  9.0D-01, -2.5D-01, -7.5D-01, r^2= 1.2D+00
   Bfn.  Coefficient  Atom+Function         Bfn.  Coefficient  Atom+Function  
  ----- ------------  ---------------      ----- ------------  ---------------
    95      1.452766   4 C  s                96     -1.340038   4 C  s         
    98     -1.196325   4 C  s                94     -1.143139   4 C  s         
    34     -0.894325   2 C  s                36     -0.821323   2 C  s         
    33      0.813036   2 C  s                65     -0.657064   3 C  s         
    32     -0.634930   2 C  s                64      0.614810   3 C  s         
 
 Vector  159  Occ=0.000000D+00  E= 2.210199D+01
              MO Center=  5.8D-01, -9.4D-02, -2.7D-02, r^2= 6.5D-01
   Bfn.  Coefficient  Atom+Function         Bfn.  Coefficient  Atom+Function  
  ----- ------------  ---------------      ----- ------------  ---------------
    36      2.215825   2 C  s                33     -1.569733   2 C  s         
    34      1.552700   2 C  s                35     -1.331603   2 C  s         
    32      1.229177   2 C  s                98     -1.219311   4 C  s         
    67     -1.208473   3 C  s                97      0.707464   4 C  s         
    95      0.640912   4 C  s                96     -0.584415   4 C  s         
 
 Vector  160  Occ=0.000000D+00  E= 4.341736D+01
              MO Center= -8.8D-01, -1.8D-01,  2.0D-01, r^2= 1.2D-01
   Bfn.  Coefficient  Atom+Function         Bfn.  Coefficient  Atom+Function  
  ----- ------------  ---------------      ----- ------------  ---------------
     4      2.520201   1 O  s                 3     -1.877820   1 O  s         
     2      1.731790   1 O  s                 1     -1.395883   1 O  s         
     5     -0.873658   1 O  s                36      0.825159   2 C  s         
     9      0.566706   1 O  px               66     -0.506012   3 C  s         
    40      0.470007   2 C  px               72      0.466527   3 C  py        
 

 center of mass
 --------------
 x =   0.30619340 y =   0.09486543 z =  -0.27792458

 moments of inertia (a.u.)
 ------------------
         200.183131950972          45.563077427633          83.779302067740
          45.563077427633         248.065640386062         -52.730805722424
          83.779302067740         -52.730805722424         238.529269312491
 
     Multipole analysis of the density
     ---------------------------------
 
     L   x y z        total         alpha         beta         nuclear
     -   - - -        -----         -----         ----         -------
     0   0 0 0     -0.000000    -16.000000    -16.000000     32.000000
 
     1   1 0 0      0.690300     -6.241769     -6.241769     13.173839
     1   0 1 0      0.324656     -1.622499     -1.622499      3.569653
     1   0 0 1     -0.054737      5.325496      5.325496    -10.705729
 
     2   2 0 0    -20.035521    -54.288147    -54.288147     88.540773
     2   1 1 0     -1.064755     13.843720     13.843720    -28.752195
     2   1 0 1      0.167090     26.479514     26.479514    -52.791939
     2   0 2 0    -17.862670    -40.445851    -40.445851     63.029032
     2   0 1 1      0.253714    -15.434959    -15.434959     31.123632
     2   0 0 2    -18.185639    -45.845279    -45.845279     73.504920
 
 *** CALLING NEW AORESP DRIVER FOR CLOSED AND OPEN SHELLS ***
 Entering AOResponse driver routine


--------------------------------------------------------------------------------

          ****************
          *** RESPONSE ***
          ****************

 Response module for NWChem and dynamic CPKS solver
 developed by J. Autschbach and coworkers, SUNY Buffalo
 The methodology used in this program is described in 
 ChemPhysChem 12 (2011), 3224-3235 (main reference)
 J. Chem. Phys. 123 (2005), 114103
 J. Chem. Phys. 122 (2005), 224115
 J. Chem. Phys. 122 (2005), 074105
 Comp. Lett. 3 (2007), 131-150 (contact JA for a copy)
 Please cite this work in publications based on results
 obtained with this code. Thank you!

 For extension of response module to open shell
 calculations please acknowledge:
 F. Aquino, Northwestern University, Schatz Rsrch Group
 The update to the methodology is described in
 J. Phys. Chem. A 118 (2014) 517-525



          -----------------------------------------------
          Solving response equations for perturbing field
          -----------------------------------------------

 number of frequencies:     1
 frequency in a.u.:  0.9319600E-01
 Perturbing field: electric
 Using GIAO formalism for OptRot
 Adding quadrupole terms to OptRot
 to create an origin in dependent tensor.
 Using El. Dipole Length Gauge
 
 Applying DAMPING constant of  0.003700 a.u.
 
 Setting up CPKS
 with frequency omega =      0.09319600 a.u.
 and a damping of            0.00370000 a.u.

 
                            NWChem Dynamic CPHF Module
                            --------------------------
 
 
    scftype = RHF 
    nclosed =   16
      nopen =    0
  variables =     9216
  num. vecs =        3
  tolerance =   1.0D-07
  max. iter =  100

 SCF residual:   3.690263479502639E-006


Iterative solution of linear equations
  No. of variables     4608
  No. of equations        3
  Maximum subspace       99
       Convergence  1.0D-07
        Start time     85.7


   iter   nsub   residual    time 
   ----  ------  --------  --------- 
 dft_CPHF2_read: failed to open
 ./methyloxirane_blyp-def2-tzvp_488.9_10.inp.aoresp_fiao_f1
     1      3    3.72D+00     128.7
     2      6    2.64D+00     171.9
     3      9    2.49D-01     215.2
     4     12    6.20D-02     258.4
     5     15    1.04D-02     301.6
     6     18    1.26D-03     344.8
     7     21    1.41D-04     388.1
     8     24    1.38D-05     433.4
     9     27    1.27D-06     476.6
    10     30    5.02D-07     519.8
    11     33    1.38D-08     563.0

 Calculating some arrays needed for GIAO optical rotation

    0 giaofock schwarz done =      93.13%
    0 giaofock schwarz done =      93.13%
 aor_r1_tensor_giao: roadata output requested
 dip-quad polarizability Re:

              1        2        3        4        5        6      
    1   77.3966  -6.2620 -27.6284  -4.3094   1.2872   9.3991
    2  -11.8583  25.8708   3.4783  23.5592 -21.5943   4.1966
    3   -6.6518   1.2198  39.7595  -0.0574  14.1794 -41.0408
 traceless dip-quad polarizability:

              1        2        3      
    1   74.8517  -9.3930 -41.4426
    2   -9.3930 -47.7073   1.9309
    3  -41.4426   1.9309 -27.1444

              1        2        3      
    1  -25.7362  38.8061   5.2175
    2   38.8061  27.3901 -32.3915
    3    5.2175 -32.3915  -1.6539

              1        2        3      
    1   13.8973   1.8296  59.6392
    2    1.8296  23.7889  21.2691
    3   59.6392  21.2691 -37.6862

 roa begin

 alpha real:
 XX       0.4094343630799E+02
 XY      -0.5160584076786E+01
 XZ      -0.2979389324540E+01
 YX      -0.5160584083794E+01
 YY       0.4403515353081E+02
 YZ       0.3223922549890E+01
 ZX      -0.2979389326356E+01
 ZY       0.3223922556788E+01
 ZZ       0.4156078683231E+02

 alpha im:
 XX       0.1105959006555E+00
 XY      -0.3004005790769E-01
 XZ      -0.1090052440090E-01
 YX      -0.3004005309043E-01
 YY       0.1291170297572E+00
 YZ       0.1867427339110E-01
 ZX      -0.1090052051739E-01
 ZY       0.1867427454715E-01
 ZZ       0.1234488216567E+00

 beta real:
 XX      -0.1434257776356E+00
 XY       0.9407975783488E+00
 XZ       0.2063766062005E+00
 YX      -0.8888353741767E+00
 YY       0.1457373019082E+00
 YZ      -0.1539541630530E+01
 ZX      -0.4851323403495E+00
 ZY       0.1874652416200E+01
 ZZ      -0.4253487764524E-02

 G-prime = -omega beta(real):
 XX      -0.1434257776356E+00
 XY       0.9407975783488E+00
 XZ       0.2063766062005E+00
 YX      -0.8888353741767E+00
 YY       0.1457373019082E+00
 YZ      -0.1539541630530E+01
 ZX      -0.4851323403495E+00
 ZY       0.1874652416200E+01
 ZZ      -0.4253487764524E-02

 beta im:
 XX      -0.6134520066072E-02
 XY       0.1331870237419E-01
 XZ       0.2898428106704E-02
 YX      -0.7583408036199E-02
 YY       0.4824225630944E-02
 YZ      -0.2314842214542E-01
 ZX      -0.1379511417180E-01
 ZY       0.4014157302907E-01
 ZZ       0.6255715600592E-03

 G-prime = -omega beta(imag):
 XX      -0.6134520066072E-02
 XY       0.1331870237419E-01
 XZ       0.2898428106704E-02
 YX      -0.7583408036199E-02
 YY       0.4824225630944E-02
 YZ      -0.2314842214542E-01
 ZX      -0.1379511417180E-01
 ZY       0.4014157302907E-01
 ZZ       0.6255715600592E-03

 dipole-quadrupole real (Cartesian):
 XXX      0.7739657430641E+02
 XXY     -0.6261984993722E+01
 XXZ     -0.2762837869393E+02
 XYY     -0.4309417420262E+01
 XYZ      0.1287239520301E+01
 XZZ      0.9399137264387E+01
 YXX     -0.1185827179692E+02
 YXY      0.2587076091826E+02
 YXZ      0.3478329751315E+01
 YYY      0.2355922263286E+02
 YYZ     -0.2159430013752E+02
 YZZ      0.4196600666603E+01
 ZXX     -0.6651777785511E+01
 ZXY      0.1219750065865E+01
 ZXZ      0.3975949620505E+02
 ZYY     -0.5738541754336E-01
 ZYZ      0.1417937765673E+02
 ZZZ     -0.4104077218444E+02

 dipole-quadrupole imag (Cartesian):
 XXX      0.2699459102638E+00
 XXY     -0.3463307162880E-01
 XXZ     -0.7660658044043E-01
 XYY     -0.2886284397758E-01
 XYZ      0.2432196479058E-02
 XZZ      0.6194888197080E-01
 YXX     -0.5673964919795E-01
 YXY      0.6297943804448E-01
 YXZ      0.1982834518885E-01
 YYY      0.9252947232536E-01
 YYZ     -0.6094937074930E-01
 YZZ      0.1016476478413E-01
 ZXX     -0.3377483581426E-01
 ZXY      0.5463530880773E-03
 ZXZ      0.1483137442194E+00
 ZYY      0.5639967434598E-02
 ZYZ      0.6784312561603E-01
 ZZZ     -0.9423521324874E-01

 dipole-quadrupole (traceless):
 XXX      0.7485171438435E+02
 XXY     -0.9392977490582E+01
 XXZ     -0.4144256804089E+02
 XYY     -0.4770727320566E+02
 XYZ      0.1930859280451E+01
 XZZ     -0.2714444117869E+02
 YXX     -0.2573618344665E+02
 YXY      0.3880614137739E+02
 YXZ      0.5217494626972E+01
 YYY      0.2739005819802E+02
 YYZ     -0.3239145020629E+02
 YZZ     -0.1653874751370E+01
 ZXX      0.1389730101548E+02
 ZXY      0.1829625098797E+01
 ZXZ      0.5963924430757E+02
 ZYY      0.2378888956743E+02
 ZYZ      0.2126906648510E+02
 ZZZ     -0.3768619058292E+02

 roa end


 Electric Dipole Response Matrix (nonzero elements):

              1        2        3      
    1   40.9434  -5.1606  -2.9794
    2   -5.1606  44.0352   3.2239
    3   -2.9794   3.2239  41.5608
 
 Imaginary part:

              1        2        3      
    1    0.1106  -0.0300  -0.0109
    2   -0.0300   0.1291   0.0187
    3   -0.0109   0.0187   0.1234

 ------------------------------------------
 average:        42.17979 + I       0.12105


 DFT Linear Response polarizability / au 
 Frequency  =       0.0931960 / au
 Wavelength =     488.8981609 / nm
              X              Y              Z
 -----------------------------------------------
 X      40.9434363     -5.1605841     -2.9793893
 Y      -5.1605841     44.0351535      3.2239225
 Z      -2.9793893      3.2239226     41.5607868
 -----------------------------------------------
 Eigenvalues =      37.0243941     50.1096425     39.4053401
 Isotropic   =      42.1797922
 Anisotropic =       9.8568879
 -----------------------------------------------
 *************************

 DFT Linear Response IMAG polarizability / au 
 Frequency  =       0.0931960 / au
 Wavelength =     488.8981609 / nm
              X              Y              Z
 -----------------------------------------------
 X       0.1105959     -0.0300401     -0.0109005
 Y      -0.0300401      0.1291170      0.0186743
 Z      -0.0109005      0.0186743      0.1234488
 -----------------------------------------------
 Eigenvalues =       0.0882284      0.1629986      0.1119348
 Isotropic   =       0.1210539
 Anisotropic =       0.0540373
 -----------------------------------------------
 *************************

 Magnetic Dipole Response Matrix (nonzero elements):
 Optical rotation tensor Beta
 (Buckingham-Dunn version including dipole-quadrupole terms)

              1        2        3      
    1    2.6683  -0.4189   0.3989
    2   -0.4189  -1.5975  -1.7528
    3    0.3989  -1.7528  -1.0499
 
 Imaginary part:

              1        2        3      
    1    0.0658  -0.1429  -0.0311
    2    0.0814  -0.0518   0.2484
    3    0.1480  -0.4307  -0.0067

 ------------------------------------------
 average:         0.00695 + I       0.00245

 Principal components and PAS (Real part)
                 -3.09841
                  2.80922
                  0.31003
 ------------------------
 average:         0.00695

              1        2        3      
    1    0.0104   0.9715  -0.2370
    2    0.7608  -0.1614  -0.6286
    3    0.6489   0.1738   0.7407

 Chiral response tensor (Real part):

              1        2        3      
    1   -1.3237   0.2094  -0.1995
    2    0.2094   0.8092   0.8764
    3   -0.1995   0.8764   0.5354
 
 Principal components and PAS (Real part)
                  1.55963
                 -1.39419
                 -0.14460
 ------------------------
 average:         0.00695

              1        2        3      
    1    0.0104   0.9715  -0.2370
    2    0.7608  -0.1614  -0.6286
    3    0.6489   0.1738   0.7407
 Exiting AOResponse driver routine

 Task  times  cpu:      543.2s     wall:      557.0s
 
 
                                NWChem Input Module
                                -------------------
 
 
 Summary of allocated global arrays
-----------------------------------
  No active global arrays



                         GA Statistics for process    0
                         ------------------------------

       create   destroy   get      put      acc     scatter   gather  read&inc
calls: 3294     3294     7.67e+06 3.14e+06 7.75e+05 2694        0     1173     
number of processes/call 1.01e+00 1.03e+00 1.44e+00 0.00e+00 0.00e+00
bytes total:             1.86e+09 1.26e+08 1.84e+09 1.84e+02 0.00e+00 9.38e+03
bytes remote:            8.23e+08 3.29e+07 1.09e+09 0.00e+00 0.00e+00 0.00e+00
Max memory consumed for GA by this process: 11242192 bytes
 
MA_summarize_allocated_blocks: starting scan ...
MA_summarize_allocated_blocks: scan completed: 0 heap blocks, 0 stack blocks
MA usage statistics:

	allocation statistics:
					      heap	     stack
					      ----	     -----
	current number of blocks	         0	         0
	maximum number of blocks	        24	        52
	current total bytes		         0	         0
	maximum total bytes		   7519856	  48954984
	maximum total K-bytes		      7520	     48955
	maximum total M-bytes		         8	        49
 
 
                                     CITATION
                                     --------
                Please cite the following reference when publishing
                           results obtained with NWChem:
 
                 M. Valiev, E.J. Bylaska, N. Govind, K. Kowalski,
              T.P. Straatsma, H.J.J. van Dam, D. Wang, J. Nieplocha,
                        E. Apra, T.L. Windus, W.A. de Jong
                 "NWChem: a comprehensive and scalable open-source
                  solution for large scale molecular simulations"
                      Comput. Phys. Commun. 181, 1477 (2010)
                           doi:10.1016/j.cpc.2010.04.018
 
                                      AUTHORS
                                      -------
          E. Apra, E. J. Bylaska, W. A. de Jong, N. Govind, K. Kowalski,
       T. P. Straatsma, M. Valiev, H. J. J. van Dam, D. Wang, T. L. Windus,
        J. Hammond, J. Autschbach, K. Bhaskaran-Nair, J. Brabec, K. Lopata,
    S. A. Fischer, S. Krishnamoorthy, M. Jacquelin, W. Ma, M. Klemm, O. Villa,
      Y. Chen, V. Anisimov, F. Aquino, S. Hirata, M. T. Hackler, V. Konjkov,
            D. Mejia-Rodriguez, T. Risthaus, M. Malagoli, A. Marenich,
   A. Otero-de-la-Roza, J. Mullin, P. Nichols, R. Peverati, J. Pittner, Y. Zhao,
        P.-D. Fan, A. Fonari, M. J. Williamson, R. J. Harrison, J. R. Rehr,
      M. Dupuis, D. Silverstein, D. M. A. Smith, J. Nieplocha, V. Tipparaju,
    M. Krishnan, B. E. Van Kuiken, A. Vazquez-Mayagoitia, L. Jensen, M. Swart,
      Q. Wu, T. Van Voorhis, A. A. Auer, M. Nooijen, L. D. Crosby, E. Brown,
      G. Cisneros, G. I. Fann, H. Fruchtl, J. Garza, K. Hirao, R. A. Kendall,
      J. A. Nichols, K. Tsemekhman, K. Wolinski, J. Anchell, D. E. Bernholdt,
      P. Borowski, T. Clark, D. Clerc, H. Dachsel, M. J. O. Deegan, K. Dyall,
    D. Elwood, E. Glendening, M. Gutowski, A. C. Hess, J. Jaffe, B. G. Johnson,
     J. Ju, R. Kobayashi, R. Kutteh, Z. Lin, R. Littlefield, X. Long, B. Meng,
      T. Nakajima, S. Niu, L. Pollack, M. Rosing, K. Glaesemann, G. Sandrone,
      M. Stave, H. Taylor, G. Thomas, J. H. van Lenthe, A. T. Wong, Z. Zhang.

 Total times  cpu:      610.1s     wall:      625.2s
