 argument  1 = methyloxirane_blyp-def2-tzvp_488.9_22.inp
 


============================== echo of input deck ==============================
echo
start methyloxirane_blyp-def2-tzvp_488.9_22.inp
title "methyloxirane roa calculations at 488.9 nm, input generated in va  with delta_type=2"
charge 0



geometry units angstrom nocenter noautoz noautosym nucleus point;symmetry c1
 O -0.879093 -0.180290  0.205258
 C  0.574085 -0.157598  0.122412
 C -0.185520  1.088295  0.340145
 C  1.183830 -0.522466 -1.211692
 H  1.059637 -0.604809  1.000040
 H -0.228061  1.538276  1.335982
 H -0.325464  1.783001 -0.493863
 H  2.259942 -0.211177 -1.246301
 H  1.142985 -1.585176 -1.371322
 H  0.652112 -0.028419 -2.032324
end

basis spherical
* library def2-TZVP
end

 set prop:newaoresp 1
 set aor:roadata T
 set cphf:maxsub 100
 set cphf:acc 1.0d-10
 set cphf:maxiter 100

property
    response 1   0.093196
    bdtensor
    convergence 1e-7
    damping 0.0037
    giao
end

dft
 direct
 mult 1
 xc becke88 lyp
 iterations 250
 tolerances tight
 grid xfine
 convergence nolevelshifting
 convergence energy 1e-8
 convergence gradient 1e-7


end

task dft gradient
task dft property
================================================================================


                                         
                                         
 
 
              Northwest Computational Chemistry Package (NWChem) 6.8
              ------------------------------------------------------
 
 
                    Environmental Molecular Sciences Laboratory
                       Pacific Northwest National Laboratory
                                Richland, WA 99352
 
                              Copyright (c) 1994-2017
                       Pacific Northwest National Laboratory
                            Battelle Memorial Institute
 
             NWChem is an open-source computational chemistry package
                        distributed under the terms of the
                      Educational Community License (ECL) 2.0
             A copy of the license is included with this distribution
                              in the LICENSE.TXT file
 
                                  ACKNOWLEDGMENT
                                  --------------

            This software and its documentation were developed at the
            EMSL at Pacific Northwest National Laboratory, a multiprogram
            national laboratory, operated for the U.S. Department of Energy
            by Battelle under Contract Number DE-AC05-76RL01830. Support
            for this work was provided by the Department of Energy Office
            of Biological and Environmental Research, Office of Basic
            Energy Sciences, and the Office of Advanced Scientific Computing.


           Job information
           ---------------

    hostname        = cpn-f11-18-02.cbls.ccr.buffalo.edu
    program         = /util/academic/nwchem/nwchem-6.8/bin/LINUX64/nwchem
    date            = Fri Mar  1 10:17:12 2019

    compiled        = Tue_Nov_06_14:59:08_2018
    source          = /util/academic/nwchem/nwchem-6.8
    nwchem branch   = 6.8
    nwchem revision = v6.8-47-gdf6c956
    ga revision     = ga-5.6.3
    use scalapack   = F
    input           = methyloxirane_blyp-def2-tzvp_488.9_22.inp
    prefix          = methyloxirane_blyp-def2-tzvp_488.9_22.inp.
    data base       = ./methyloxirane_blyp-def2-tzvp_488.9_22.inp.db
    status          = startup
    nproc           =        7
    time left       =     -1s



           Memory information
           ------------------

    heap     =   13107196 doubles =    100.0 Mbytes
    stack    =   13107201 doubles =    100.0 Mbytes
    global   =   26214400 doubles =    200.0 Mbytes (distinct from heap & stack)
    total    =   52428797 doubles =    400.0 Mbytes
    verify   = yes
    hardfail = no 


           Directory information
           ---------------------
 
  0 permanent = .
  0 scratch   = .
 
 
 
 
                                NWChem Input Module
                                -------------------
 
 
                    methyloxirane roa calculations at 488.9 nm, input generated in va  with delta_type=2
                    ------------------------------------------

 Scaling coordinates for geometry "geometry" by  1.889725989
 (inverse scale =  0.529177249)

 
 
                             Geometry "geometry" -> ""
                             -------------------------
 
 Output coordinates in angstroms (scale by  1.889725989 to convert to a.u.)
 
  No.       Tag          Charge          X              Y              Z
 ---- ---------------- ---------- -------------- -------------- --------------
    1 O                    8.0000    -0.87909300    -0.18029000     0.20525800
    2 C                    6.0000     0.57408500    -0.15759800     0.12241200
    3 C                    6.0000    -0.18552000     1.08829500     0.34014500
    4 C                    6.0000     1.18383000    -0.52246600    -1.21169200
    5 H                    1.0000     1.05963700    -0.60480900     1.00004000
    6 H                    1.0000    -0.22806100     1.53827600     1.33598200
    7 H                    1.0000    -0.32546400     1.78300100    -0.49386300
    8 H                    1.0000     2.25994200    -0.21117700    -1.24630100
    9 H                    1.0000     1.14298500    -1.58517600    -1.37132200
   10 H                    1.0000     0.65211200    -0.02841900    -2.03232400
 
      Atomic Mass 
      ----------- 
 
      O                 15.994910
      C                 12.000000
      H                  1.007825
 

 Effective nuclear repulsion energy (a.u.)     123.5378274889

            Nuclear Dipole moment (a.u.) 
            ----------------------------
        X                 Y               Z
 ---------------- ---------------- ----------------
    13.1577406496     3.5881398975   -10.6968582090
 
 
            XYZ format geometry
            -------------------
    10
 geometry
 O                    -0.87909300    -0.18029000     0.20525800
 C                     0.57408500    -0.15759800     0.12241200
 C                    -0.18552000     1.08829500     0.34014500
 C                     1.18383000    -0.52246600    -1.21169200
 H                     1.05963700    -0.60480900     1.00004000
 H                    -0.22806100     1.53827600     1.33598200
 H                    -0.32546400     1.78300100    -0.49386300
 H                     2.25994200    -0.21117700    -1.24630100
 H                     1.14298500    -1.58517600    -1.37132200
 H                     0.65211200    -0.02841900    -2.03232400
 
 ==============================================================================
                                internuclear distances
 ------------------------------------------------------------------------------
       center one      |      center two      | atomic units |  angstroms
 ------------------------------------------------------------------------------
    2 C                |   1 O                |     2.75090  |     1.45571
    3 C                |   1 O                |     2.74404  |     1.45208
    3 C                |   2 C                |     2.78801  |     1.47535
    4 C                |   2 C                |     2.85640  |     1.51154
    5 H                |   2 C                |     2.07525  |     1.09818
    6 H                |   3 C                |     2.06662  |     1.09361
    7 H                |   3 C                |     2.06817  |     1.09443
    8 H                |   4 C                |     2.11794  |     1.12077
    9 H                |   4 C                |     2.03223  |     1.07541
   10 H                |   4 C                |     2.07030  |     1.09556
 ------------------------------------------------------------------------------
                         number of included internuclear distances:         10
 ==============================================================================



 ==============================================================================
                                 internuclear angles
 ------------------------------------------------------------------------------
        center 1       |       center 2       |       center 3       |  degrees
 ------------------------------------------------------------------------------
    2 C                |   1 O                |   3 C                |    60.98
    2 C                |   1 O                |   3 C                |    60.98
    1 O                |   2 C                |   4 C                |   116.69
    1 O                |   2 C                |   5 H                |   112.93
    3 C                |   2 C                |   4 C                |   122.81
    3 C                |   2 C                |   5 H                |   116.97
    4 C                |   2 C                |   5 H                |   115.38
    3 C                |   1 O                |   2 C                |    60.98
    1 O                |   3 C                |   6 H                |   115.18
    1 O                |   3 C                |   7 H                |   115.00
    2 C                |   3 C                |   6 H                |   120.12
    2 C                |   3 C                |   7 H                |   119.30
    6 H                |   3 C                |   7 H                |   115.33
    2 C                |   4 C                |   8 H                |   110.34
    2 C                |   4 C                |   9 H                |   110.75
    2 C                |   4 C                |  10 H                |   110.88
    8 H                |   4 C                |   9 H                |   107.84
    8 H                |   4 C                |  10 H                |   108.52
    9 H                |   4 C                |  10 H                |   108.42
 ------------------------------------------------------------------------------
                            number of included internuclear angles:         19
 ==============================================================================



  warning:::::::::::::: from_environment
  NWCHEM_BASIS_LIBRARY set to: <
 /util/academic/nwchem/nwchem-6.8/src/basis/libraries>
  but file does not exist !
  using .nwchemrc or compiled library


 Summary of "ao basis" -> "" (spherical)
 ------------------------------------------------------------------------------
       Tag                 Description            Shells   Functions and Types
 ---------------- ------------------------------  ------  ---------------------
 *                         def2-TZVP                  on all atoms 


 
                                 NWChem DFT Module
                                 -----------------
 
 
                    methyloxirane roa calculations at 488.9 nm, input generated in va  with delta_type=2
 
 
                      Basis "ao basis" -> "ao basis" (spherical)
                      -----
  O (Oxygen)
  ----------
            Exponent  Coefficients 
       -------------- ---------------------------------------------------------
  1 S  2.70323826E+04  0.000217
  1 S  4.05238714E+03  0.001684
  1 S  9.22327227E+02  0.008740
  1 S  2.61240710E+02  0.035240
  1 S  8.53546414E+01  0.111535
  1 S  3.10350352E+01  0.255890
 
  2 S  1.22608607E+01  0.397687
  2 S  4.99870760E+00  0.246278
 
  3 S  1.17031082E+00  1.000000
 
  4 S  4.64747410E-01  1.000000
 
  5 S  1.85045364E-01  1.000000
 
  6 P  6.32749548E+01  0.006069
  6 P  1.46270494E+01  0.041913
  6 P  4.45012235E+00  0.161538
  6 P  1.52757996E+00  0.357070
 
  7 P  5.29351179E-01  1.000000
 
  8 P  1.74784213E-01  1.000000
 
  9 D  2.31400000E+00  1.000000
 
 10 D  6.45000000E-01  1.000000
 
 11 F  1.42800000E+00  1.000000
 
  C (Carbon)
  ----------
            Exponent  Coefficients 
       -------------- ---------------------------------------------------------
  1 S  1.35753497E+04  0.000222
  1 S  2.03523337E+03  0.001723
  1 S  4.63225624E+02  0.008926
  1 S  1.31200196E+02  0.035728
  1 S  4.28530159E+01  0.110763
  1 S  1.55841858E+01  0.242956
 
  2 S  6.20671385E+00  0.414403
  2 S  2.57648965E+00  0.237450
 
  3 S  5.76963394E-01  1.000000
 
  4 S  2.29728314E-01  1.000000
 
  5 S  9.51644400E-02  1.000000
 
  6 P  3.46972322E+01  0.005333
  6 P  7.95826228E+00  0.035864
  6 P  2.37808269E+00  0.142159
  6 P  8.14332082E-01  0.342705
 
  7 P  2.88875473E-01  1.000000
 
  8 P  1.00568237E-01  1.000000
 
  9 D  1.09700000E+00  1.000000
 
 10 D  3.18000000E-01  1.000000
 
 11 F  7.61000000E-01  1.000000
 
  H (Hydrogen)
  ------------
            Exponent  Coefficients 
       -------------- ---------------------------------------------------------
  1 S  3.40613410E+01  0.006025
  1 S  5.12357460E+00  0.045021
  1 S  1.16466260E+00  0.201897
 
  2 S  3.27230410E-01  1.000000
 
  3 S  1.03072410E-01  1.000000
 
  4 P  8.00000000E-01  1.000000
 


 Summary of "ao basis" -> "ao basis" (spherical)
 ------------------------------------------------------------------------------
       Tag                 Description            Shells   Functions and Types
 ---------------- ------------------------------  ------  ---------------------
 O                         def2-TZVP                11       31   5s3p2d1f
 C                         def2-TZVP                11       31   5s3p2d1f
 H                         def2-TZVP                 4        6   3s1p




 Summary of "ao basis" -> "ao basis" (spherical)
 ------------------------------------------------------------------------------
       Tag                 Description            Shells   Functions and Types
 ---------------- ------------------------------  ------  ---------------------
 O                         def2-TZVP                11       31   5s3p2d1f
 C                         def2-TZVP                11       31   5s3p2d1f
 H                         def2-TZVP                 4        6   3s1p


  Caching 1-el integrals 
  itol2e modified to match energy
  convergence criterion.
  tol_rho modified to match energy
  convergence criterion.
 
            General Information
            -------------------
          SCF calculation type: DFT
          Wavefunction type:  closed shell.
          No. of atoms     :    10
          No. of electrons :    32
           Alpha electrons :    16
            Beta electrons :    16
          Charge           :     0
          Spin multiplicity:     1
          Use of symmetry is: off; symmetry adaption is: off
          Maximum number of iterations: 250
          This is a Direct SCF calculation.
          AO basis - number of functions:   160
                     number of shells:    68
          Convergence on energy requested:  1.00D-08
          Convergence on density requested:  1.00D-05
          Convergence on gradient requested:  1.00D-07
 
              XC Information
              --------------
                    Becke 1988 Exchange Functional  1.000          
              Lee-Yang-Parr Correlation Functional  1.000          
 
             Grid Information
             ----------------
          Grid used for XC integration:  xfine     
          Radial quadrature: Mura-Knowles        
          Angular quadrature: Lebedev. 
          Tag              B.-S. Rad. Rad. Pts. Rad. Cut. Ang. Pts.
          ---              ---------- --------- --------- ---------
          O                   0.60      100          11.0      1454
          C                   0.70      100          11.0      1454
          H                   0.35      100          12.0      1202
          Grid pruning is: on 
          Number of quadrature shells:  1000
          Spatial weights used:  Erf1
 
          Convergence Information
          -----------------------
          Convergence aids based upon iterative change in 
          total energy or number of iterations. 
          Levelshifting, if invoked, occurs when the 
          HOMO/LUMO gap drops below (HL_TOL):  1.00D-02
          DIIS, if invoked, will attempt to extrapolate 
          using up to (NFOCK): 10 stored Fock matrices.

                    Damping( 0%)  Levelshifting(0.0)       DIIS
                  --------------- ------------------- ---------------
          dE  on:    start             N/A                start   
          dE off:    2 iters           N/A              250 iters 

 
      Screening Tolerance Information
      -------------------------------
          Density screening/tol_rho:  1.00D-11
          AO Gaussian exp screening on grid/accAOfunc:  18
          CD Gaussian exp screening on grid/accCDfunc:  20
          XC Gaussian exp screening on grid/accXCfunc:  20
          Schwarz screening/accCoul:  1.00D-09

 
      Superposition of Atomic Density Guess
      -------------------------------------
 
 Sum of atomic energies:        -190.79714706
 
      Non-variational initial energy
      ------------------------------

 Total energy =    -193.162181
 1-e energy   =    -502.035041
 2-e energy   =     185.335032
 HOMO         =      -0.352099
 LUMO         =       0.090922
 
   Time after variat. SCF:      0.6
   Time prior to 1st pass:      0.6

 Grid_pts file          = ./methyloxirane_blyp-def2-tzvp_488.9_22.inp.gridpts.0
 Record size in doubles =  12289        No. of grid_pts per rec  =   3070
 Max. records in memory =     76        Max. recs in file   =    554552


           Memory utilization after 1st SCF pass: 
           Heap Space remaining (MW):       12.17            12167540
          Stack Space remaining (MW):       13.11            13106124

   convergence    iter        energy       DeltaE   RMS-Dens  Diis-err    time
 ---------------- ----- ----------------- --------- --------- ---------  ------
 d= 0,ls=0.0,diis     1   -193.0194845962 -3.17D+02  9.11D-03  1.06D+00     6.3
 d= 0,ls=0.0,diis     2   -192.8565234468  1.63D-01  7.53D-03  2.57D+00    11.7
 d= 0,ls=0.0,diis     3   -193.0765984620 -2.20D-01  1.81D-03  3.87D-01    17.0
 d= 0,ls=0.0,diis     4   -193.1067195825 -3.01D-02  6.84D-04  1.84D-02    22.5
 d= 0,ls=0.0,diis     5   -193.1084143432 -1.69D-03  2.92D-04  2.72D-03    27.8
 d= 0,ls=0.0,diis     6   -193.1087531161 -3.39D-04  3.08D-05  3.62D-05    33.3
 d= 0,ls=0.0,diis     7   -193.1087574609 -4.34D-06  8.50D-06  4.06D-06    38.7
 d= 0,ls=0.0,diis     8   -193.1087579120 -4.51D-07  2.00D-06  2.92D-07    44.1
 d= 0,ls=0.0,diis     9   -193.1087579440 -3.20D-08  6.45D-07  1.54D-08    49.4
 d= 0,ls=0.0,diis    10   -193.1087579458 -1.77D-09  1.79D-07  1.79D-09    54.8


         Total DFT energy =     -193.108757945773
      One electron energy =     -505.690171669085
           Coulomb energy =      216.064621146922
    Exchange-Corr. energy =      -27.021034912463
 Nuclear repulsion energy =      123.537827488854

 Numeric. integr. density =       31.999999979396

     Total iterative time =     54.2s


 
                       DFT Final Molecular Orbital Analysis
                       ------------------------------------
 
 Vector    1  Occ=2.000000D+00  E=-1.877981D+01
              MO Center= -8.8D-01, -1.8D-01,  2.1D-01, r^2= 1.5D-02
   Bfn.  Coefficient  Atom+Function         Bfn.  Coefficient  Atom+Function  
  ----- ------------  ---------------      ----- ------------  ---------------
     2      0.638477   1 O  s                 1      0.435422   1 O  s         
     3      0.039886   1 O  s                 4     -0.033234   1 O  s         
 
 Vector    2  Occ=2.000000D+00  E=-9.963442D+00
              MO Center=  5.7D-01, -1.6D-01,  1.2D-01, r^2= 2.8D-02
   Bfn.  Coefficient  Atom+Function         Bfn.  Coefficient  Atom+Function  
  ----- ------------  ---------------      ----- ------------  ---------------
    33      0.606919   2 C  s                32      0.467265   2 C  s         
    34      0.042497   2 C  s                36      0.037389   2 C  s         
    35     -0.027353   2 C  s         
 
 Vector    3  Occ=2.000000D+00  E=-9.955698D+00
              MO Center= -1.9D-01,  1.1D+00,  3.4D-01, r^2= 2.8D-02
   Bfn.  Coefficient  Atom+Function         Bfn.  Coefficient  Atom+Function  
  ----- ------------  ---------------      ----- ------------  ---------------
    64      0.607031   3 C  s                63      0.467225   3 C  s         
    65      0.039700   3 C  s         
 
 Vector    4  Occ=2.000000D+00  E=-9.907634D+00
              MO Center=  1.2D+00, -5.2D-01, -1.2D+00, r^2= 2.8D-02
   Bfn.  Coefficient  Atom+Function         Bfn.  Coefficient  Atom+Function  
  ----- ------------  ---------------      ----- ------------  ---------------
    95      0.606952   4 C  s                94      0.467212   4 C  s         
    96      0.040655   4 C  s                98      0.035742   4 C  s         
 
 Vector    5  Occ=2.000000D+00  E=-9.625793D-01
              MO Center= -4.7D-01,  5.6D-02,  2.1D-01, r^2= 6.5D-01
   Bfn.  Coefficient  Atom+Function         Bfn.  Coefficient  Atom+Function  
  ----- ------------  ---------------      ----- ------------  ---------------
     4      0.375295   1 O  s                 3      0.277461   1 O  s         
     2     -0.192809   1 O  s                34      0.139764   2 C  s         
    65      0.139109   3 C  s                 5      0.122789   1 O  s         
    35      0.105149   2 C  s                 6      0.093300   1 O  px        
    66      0.093512   3 C  s                69     -0.091408   3 C  py        
 
 Vector    6  Occ=2.000000D+00  E=-6.699156D-01
              MO Center=  9.4D-01, -4.0D-01, -7.8D-01, r^2= 1.5D+00
   Bfn.  Coefficient  Atom+Function         Bfn.  Coefficient  Atom+Function  
  ----- ------------  ---------------      ----- ------------  ---------------
    97      0.285436   4 C  s                96      0.276928   4 C  s         
    35      0.184799   2 C  s                34      0.173757   2 C  s         
    95     -0.174395   4 C  s                 4     -0.146654   1 O  s         
    33     -0.108572   2 C  s                 3     -0.102719   1 O  s         
    94     -0.083564   4 C  s                 5     -0.072704   1 O  s         
 
 Vector    7  Occ=2.000000D+00  E=-5.898734D-01
              MO Center= -1.3D-01,  7.1D-01,  2.2D-01, r^2= 2.0D+00
   Bfn.  Coefficient  Atom+Function         Bfn.  Coefficient  Atom+Function  
  ----- ------------  ---------------      ----- ------------  ---------------
    66      0.325718   3 C  s                65      0.277816   3 C  s         
     4     -0.239083   1 O  s                64     -0.171697   3 C  s         
     3     -0.168829   1 O  s                 5     -0.148309   1 O  s         
     2      0.111475   1 O  s                38      0.104991   2 C  py        
   132      0.102437   6 H  s                97     -0.098216   4 C  s         
 
 Vector    8  Occ=2.000000D+00  E=-5.297412D-01
              MO Center=  4.1D-01,  1.6D-02, -9.5D-02, r^2= 2.7D+00
   Bfn.  Coefficient  Atom+Function         Bfn.  Coefficient  Atom+Function  
  ----- ------------  ---------------      ----- ------------  ---------------
    35      0.303663   2 C  s                34      0.225306   2 C  s         
    66     -0.154081   3 C  s                97     -0.153868   4 C  s         
    33     -0.138550   2 C  s               126      0.132190   5 H  s         
    96     -0.127963   4 C  s                 6      0.107018   1 O  px        
   125      0.105607   5 H  s                65     -0.100305   3 C  s         
 
 Vector    9  Occ=2.000000D+00  E=-4.477271D-01
              MO Center=  1.2D-01,  2.8D-01,  2.5D-01, r^2= 2.5D+00
   Bfn.  Coefficient  Atom+Function         Bfn.  Coefficient  Atom+Function  
  ----- ------------  ---------------      ----- ------------  ---------------
    70      0.209929   3 C  pz               39      0.155514   2 C  pz        
   132      0.145348   6 H  s                73      0.131950   3 C  pz        
     8      0.127013   1 O  pz              126      0.115866   5 H  s         
     6     -0.109322   1 O  px               38     -0.107598   2 C  py        
   131      0.107797   6 H  s                11      0.102871   1 O  pz        
 
 Vector   10  Occ=2.000000D+00  E=-4.134291D-01
              MO Center=  4.1D-02,  2.8D-01, -2.4D-01, r^2= 2.6D+00
   Bfn.  Coefficient  Atom+Function         Bfn.  Coefficient  Atom+Function  
  ----- ------------  ---------------      ----- ------------  ---------------
    69      0.214526   3 C  py              101      0.157041   4 C  pz        
   138      0.153852   7 H  s                 6     -0.144855   1 O  px        
    38     -0.138149   2 C  py               37      0.130585   2 C  px        
     7     -0.121467   1 O  py               72      0.121177   3 C  py        
    70     -0.117642   3 C  pz                9     -0.115819   1 O  px        
 
 Vector   11  Occ=2.000000D+00  E=-3.763972D-01
              MO Center=  9.3D-01, -3.5D-01, -7.6D-01, r^2= 2.6D+00
   Bfn.  Coefficient  Atom+Function         Bfn.  Coefficient  Atom+Function  
  ----- ------------  ---------------      ----- ------------  ---------------
    99      0.199084   4 C  px              100      0.184794   4 C  py        
   144      0.184600   8 H  s               150     -0.151046   9 H  s         
    37      0.131145   2 C  px              102      0.129796   4 C  px        
   143      0.128351   8 H  s                 6     -0.124171   1 O  px        
   103      0.120546   4 C  py                7      0.111053   1 O  py        
 
 Vector   12  Occ=2.000000D+00  E=-3.577554D-01
              MO Center=  5.6D-01, -2.8D-01, -8.5D-01, r^2= 2.9D+00
   Bfn.  Coefficient  Atom+Function         Bfn.  Coefficient  Atom+Function  
  ----- ------------  ---------------      ----- ------------  ---------------
   100      0.244804   4 C  py              156      0.182337  10 H  s         
     7     -0.175336   1 O  py              150     -0.174543   9 H  s         
   103      0.155842   4 C  py               10     -0.140763   1 O  py        
   155      0.129164  10 H  s                70      0.124424   3 C  pz        
   149     -0.122744   9 H  s                99     -0.109505   4 C  px        
 
 Vector   13  Occ=2.000000D+00  E=-3.287101D-01
              MO Center=  3.5D-01,  2.6D-01, -2.2D-01, r^2= 2.8D+00
   Bfn.  Coefficient  Atom+Function         Bfn.  Coefficient  Atom+Function  
  ----- ------------  ---------------      ----- ------------  ---------------
    39      0.221767   2 C  pz              101     -0.197474   4 C  pz        
    70     -0.174886   3 C  pz              138      0.162521   7 H  s         
     7     -0.159779   1 O  py               42      0.150767   2 C  pz        
   104     -0.138138   4 C  pz               10     -0.128685   1 O  py        
    99      0.126934   4 C  px              132     -0.110557   6 H  s         
 
 Vector   14  Occ=2.000000D+00  E=-3.204743D-01
              MO Center=  4.2D-01, -7.0D-02, -2.6D-01, r^2= 3.0D+00
   Bfn.  Coefficient  Atom+Function         Bfn.  Coefficient  Atom+Function  
  ----- ------------  ---------------      ----- ------------  ---------------
     7      0.207412   1 O  py               10      0.169924   1 O  py        
    99     -0.165572   4 C  px              126      0.158761   5 H  s         
   156      0.151199  10 H  s                 6     -0.148551   1 O  px        
   144     -0.139705   8 H  s                37      0.133883   2 C  px        
     9     -0.121839   1 O  px               39      0.122350   2 C  pz        
 
 Vector   15  Occ=2.000000D+00  E=-2.637100D-01
              MO Center=  9.3D-03,  1.6D-01,  4.3D-02, r^2= 2.3D+00
   Bfn.  Coefficient  Atom+Function         Bfn.  Coefficient  Atom+Function  
  ----- ------------  ---------------      ----- ------------  ---------------
    68      0.264629   3 C  px               38      0.256897   2 C  py        
     6     -0.238471   1 O  px               41      0.200466   2 C  py        
    71      0.196608   3 C  px                9     -0.186562   1 O  px        
    12     -0.157754   1 O  px              150      0.111636   9 H  s         
   100     -0.109401   4 C  py               67      0.106124   3 C  s         
 
 Vector   16  Occ=2.000000D+00  E=-2.197211D-01
              MO Center= -5.8D-01, -2.6D-02,  2.0D-01, r^2= 1.6D+00
   Bfn.  Coefficient  Atom+Function         Bfn.  Coefficient  Atom+Function  
  ----- ------------  ---------------      ----- ------------  ---------------
     8      0.448791   1 O  pz               11      0.357452   1 O  pz        
    14      0.296112   1 O  pz              133     -0.130933   6 H  s         
   139      0.116416   7 H  s               132     -0.104038   6 H  s         
   138      0.103826   7 H  s               145     -0.100687   8 H  s         
   126     -0.097115   5 H  s                98      0.084289   4 C  s         
 
 Vector   17  Occ=0.000000D+00  E= 2.579634D-02
              MO Center=  1.2D+00, -8.4D-02, -6.0D-01, r^2= 7.2D+00
   Bfn.  Coefficient  Atom+Function         Bfn.  Coefficient  Atom+Function  
  ----- ------------  ---------------      ----- ------------  ---------------
    98      4.489847   4 C  s               145     -1.563659   8 H  s         
   151     -1.487365   9 H  s               157     -1.338049  10 H  s         
   127     -1.252826   5 H  s                45      1.133716   2 C  pz        
   139     -0.854015   7 H  s                67      0.620303   3 C  s         
   133     -0.590742   6 H  s                75      0.344704   3 C  py        
 
 Vector   18  Occ=0.000000D+00  E= 4.296904D-02
              MO Center= -1.0D-01,  6.5D-01,  9.4D-02, r^2= 4.6D+00
   Bfn.  Coefficient  Atom+Function         Bfn.  Coefficient  Atom+Function  
  ----- ------------  ---------------      ----- ------------  ---------------
    98      2.249980   4 C  s                36     -1.900673   2 C  s         
     5      1.310317   1 O  s                74      0.908004   3 C  px        
   151     -0.810645   9 H  s                45      0.527337   2 C  pz        
   145     -0.451512   8 H  s               157     -0.442009  10 H  s         
    13      0.438342   1 O  py               75      0.390216   3 C  py        
 
 Vector   19  Occ=0.000000D+00  E= 4.936872D-02
              MO Center=  2.4D-01,  9.3D-01, -4.9D-02, r^2= 6.2D+00
   Bfn.  Coefficient  Atom+Function         Bfn.  Coefficient  Atom+Function  
  ----- ------------  ---------------      ----- ------------  ---------------
    67      3.701067   3 C  s                36     -1.950505   2 C  s         
   139     -1.582272   7 H  s               133     -1.139127   6 H  s         
    98     -0.948508   4 C  s                44     -0.943660   2 C  py        
   145      0.937194   8 H  s               127      0.825458   5 H  s         
    74      0.573372   3 C  px               45     -0.552226   2 C  pz        
 
 Vector   20  Occ=0.000000D+00  E= 5.044391D-02
              MO Center=  6.9D-01,  1.7D-01,  3.2D-01, r^2= 7.4D+00
   Bfn.  Coefficient  Atom+Function         Bfn.  Coefficient  Atom+Function  
  ----- ------------  ---------------      ----- ------------  ---------------
    98      3.080310   4 C  s                36     -2.139110   2 C  s         
   127      1.947427   5 H  s               133      1.445134   6 H  s         
   157     -1.357747  10 H  s                67     -0.840501   3 C  s         
   145     -0.768368   8 H  s                43     -0.763683   2 C  px        
    76     -0.722946   3 C  pz               44      0.700273   2 C  py        
 
 Vector   21  Occ=0.000000D+00  E= 6.540545D-02
              MO Center=  3.0D-01,  9.2D-02, -1.3D-01, r^2= 4.8D+00
   Bfn.  Coefficient  Atom+Function         Bfn.  Coefficient  Atom+Function  
  ----- ------------  ---------------      ----- ------------  ---------------
    98      1.592054   4 C  s               139      1.209501   7 H  s         
    67     -1.024101   3 C  s               151     -1.022271   9 H  s         
     5     -0.856569   1 O  s                43     -0.854834   2 C  px        
   133      0.630802   6 H  s                75     -0.530991   3 C  py        
    45      0.496561   2 C  pz               12     -0.483788   1 O  px        
 
 Vector   22  Occ=0.000000D+00  E= 8.470916D-02
              MO Center=  1.3D+00,  1.3D-01, -5.7D-01, r^2= 6.9D+00
   Bfn.  Coefficient  Atom+Function         Bfn.  Coefficient  Atom+Function  
  ----- ------------  ---------------      ----- ------------  ---------------
    36      2.518315   2 C  s               145      2.014261   8 H  s         
    67     -1.395514   3 C  s               157     -1.401470  10 H  s         
   127     -1.254288   5 H  s               105     -1.148570   4 C  px        
   133      1.082190   6 H  s               107     -0.999759   4 C  pz        
    75      0.750404   3 C  py               76     -0.642504   3 C  pz        
 
 Vector   23  Occ=0.000000D+00  E= 9.189313D-02
              MO Center=  1.0D+00, -4.4D-01, -4.4D-01, r^2= 7.2D+00
   Bfn.  Coefficient  Atom+Function         Bfn.  Coefficient  Atom+Function  
  ----- ------------  ---------------      ----- ------------  ---------------
    36      3.064733   2 C  s               151      1.988167   9 H  s         
    98     -1.954296   4 C  s               145     -1.257469   8 H  s         
   133      1.192767   6 H  s               105      1.110881   4 C  px        
    67     -1.053526   3 C  s               106      0.932330   4 C  py        
   127     -0.885087   5 H  s               107     -0.875572   4 C  pz        
 
 Vector   24  Occ=0.000000D+00  E= 1.035829D-01
              MO Center=  4.6D-01,  2.4D-01, -1.1D+00, r^2= 6.8D+00
   Bfn.  Coefficient  Atom+Function         Bfn.  Coefficient  Atom+Function  
  ----- ------------  ---------------      ----- ------------  ---------------
   157      2.015258  10 H  s               151     -1.784267   9 H  s         
   106     -1.632699   4 C  py              133      1.524737   6 H  s         
   139     -1.438342   7 H  s                76     -1.148279   3 C  pz        
    98     -1.100718   4 C  s                36      0.946031   2 C  s         
   105      0.806594   4 C  px               45     -0.429165   2 C  pz        
 
 Vector   25  Occ=0.000000D+00  E= 1.390543D-01
              MO Center=  8.0D-01,  1.8D-01, -4.5D-01, r^2= 7.9D+00
   Bfn.  Coefficient  Atom+Function         Bfn.  Coefficient  Atom+Function  
  ----- ------------  ---------------      ----- ------------  ---------------
    36      4.675352   2 C  s                98     -3.544905   4 C  s         
    45     -3.396241   2 C  pz               67     -2.780403   3 C  s         
   127      2.712869   5 H  s                76      2.151965   3 C  pz        
   105      2.042225   4 C  px              133     -1.778922   6 H  s         
   139      1.678130   7 H  s               107     -1.566736   4 C  pz        
 
 Vector   26  Occ=0.000000D+00  E= 1.702842D-01
              MO Center=  4.6D-01,  5.3D-01, -1.4D-01, r^2= 7.3D+00
   Bfn.  Coefficient  Atom+Function         Bfn.  Coefficient  Atom+Function  
  ----- ------------  ---------------      ----- ------------  ---------------
    75      2.310221   3 C  py              107      1.636876   4 C  pz        
    67     -1.579855   3 C  s                36      1.500298   2 C  s         
   139     -1.180350   7 H  s               157      1.076337  10 H  s         
    74     -0.980061   3 C  px               44      0.753623   2 C  py        
    43     -0.616591   2 C  px              106     -0.607398   4 C  py        
 
 Vector   27  Occ=0.000000D+00  E= 1.971820D-01
              MO Center=  8.9D-01, -4.8D-02, -9.7D-01, r^2= 5.2D+00
   Bfn.  Coefficient  Atom+Function         Bfn.  Coefficient  Atom+Function  
  ----- ------------  ---------------      ----- ------------  ---------------
    67      3.055175   3 C  s                44     -2.572286   2 C  py        
   106      2.082001   4 C  py               36     -1.388909   2 C  s         
    43      0.987511   2 C  px              150      0.682396   9 H  s         
    74      0.665948   3 C  px               45     -0.634635   2 C  pz        
   157     -0.632220  10 H  s               107     -0.563324   4 C  pz        
 
 Vector   28  Occ=0.000000D+00  E= 2.023141D-01
              MO Center=  8.8D-01, -4.6D-01, -7.1D-01, r^2= 6.6D+00
   Bfn.  Coefficient  Atom+Function         Bfn.  Coefficient  Atom+Function  
  ----- ------------  ---------------      ----- ------------  ---------------
    36      2.756596   2 C  s                75      1.759359   3 C  py        
   105     -1.474864   4 C  px              133     -1.191010   6 H  s         
    45      0.857822   2 C  pz              107     -0.802728   4 C  pz        
   139     -0.781424   7 H  s               156     -0.712759  10 H  s         
    76      0.637548   3 C  pz              106      0.621863   4 C  py        
 
 Vector   29  Occ=0.000000D+00  E= 2.364726D-01
              MO Center= -3.2D-01,  4.1D-01, -3.4D-02, r^2= 5.4D+00
   Bfn.  Coefficient  Atom+Function         Bfn.  Coefficient  Atom+Function  
  ----- ------------  ---------------      ----- ------------  ---------------
    67      4.617019   3 C  s                36     -3.097629   2 C  s         
   139     -1.511069   7 H  s                66     -1.458582   3 C  s         
   133     -1.237494   6 H  s                98      1.026726   4 C  s         
   107      0.966775   4 C  pz               74     -0.791991   3 C  px        
     5     -0.769851   1 O  s               106      0.757939   4 C  py        
 
 Vector   30  Occ=0.000000D+00  E= 2.475671D-01
              MO Center=  5.6D-01, -6.9D-03, -1.1D-01, r^2= 5.8D+00
   Bfn.  Coefficient  Atom+Function         Bfn.  Coefficient  Atom+Function  
  ----- ------------  ---------------      ----- ------------  ---------------
    67      5.945005   3 C  s                43      4.183169   2 C  px        
    75     -2.981996   3 C  py               44     -2.645042   2 C  py        
    36     -2.122754   2 C  s               107     -2.080896   4 C  pz        
   157     -1.877066  10 H  s                45     -1.471037   2 C  pz        
    98     -1.222326   4 C  s               105     -1.217855   4 C  px        
 
 Vector   31  Occ=0.000000D+00  E= 2.686058D-01
              MO Center=  3.0D-01, -1.4D-01,  2.4D-01, r^2= 5.7D+00
   Bfn.  Coefficient  Atom+Function         Bfn.  Coefficient  Atom+Function  
  ----- ------------  ---------------      ----- ------------  ---------------
    36      4.325738   2 C  s                 5     -2.210765   1 O  s         
    67      2.185863   3 C  s                43     -1.559608   2 C  px        
   105      1.484139   4 C  px               66     -1.172593   3 C  s         
    98     -1.157747   4 C  s               139     -0.928548   7 H  s         
   133     -0.889679   6 H  s               106     -0.868659   4 C  py        
 
 Vector   32  Occ=0.000000D+00  E= 2.777137D-01
              MO Center=  4.0D-01,  3.2D-01,  3.0D-01, r^2= 4.1D+00
   Bfn.  Coefficient  Atom+Function         Bfn.  Coefficient  Atom+Function  
  ----- ------------  ---------------      ----- ------------  ---------------
    36      2.527291   2 C  s                 5     -1.747068   1 O  s         
    67     -1.577566   3 C  s                43     -1.258224   2 C  px        
    74     -0.724241   3 C  px               98     -0.694829   4 C  s         
    45     -0.652631   2 C  pz              145      0.535329   8 H  s         
     4      0.495463   1 O  s               157     -0.386756  10 H  s         
 
 Vector   33  Occ=0.000000D+00  E= 3.009605D-01
              MO Center=  4.5D-01,  3.7D-01, -3.8D-01, r^2= 5.0D+00
   Bfn.  Coefficient  Atom+Function         Bfn.  Coefficient  Atom+Function  
  ----- ------------  ---------------      ----- ------------  ---------------
    43      1.879968   2 C  px               98     -1.826948   4 C  s         
   106      1.768361   4 C  py              151      1.753641   9 H  s         
    76      1.338722   3 C  pz               44     -1.251383   2 C  py        
    36     -1.233151   2 C  s                66      1.038616   3 C  s         
   107     -1.035090   4 C  pz              139      0.951269   7 H  s         
 
 Vector   34  Occ=0.000000D+00  E= 3.372450D-01
              MO Center=  1.0D-01,  4.3D-01, -4.0D-01, r^2= 5.8D+00
   Bfn.  Coefficient  Atom+Function         Bfn.  Coefficient  Atom+Function  
  ----- ------------  ---------------      ----- ------------  ---------------
    67      4.515112   3 C  s                76     -4.018541   3 C  pz        
   139     -3.169626   7 H  s                36     -2.314535   2 C  s         
   133      2.051985   6 H  s               107     -1.770537   4 C  pz        
   157     -1.732499  10 H  s                43      1.386216   2 C  px        
    98      1.388671   4 C  s                44     -1.133902   2 C  py        
 
 Vector   35  Occ=0.000000D+00  E= 3.610007D-01
              MO Center=  9.1D-01, -3.8D-02, -4.3D-01, r^2= 6.8D+00
   Bfn.  Coefficient  Atom+Function         Bfn.  Coefficient  Atom+Function  
  ----- ------------  ---------------      ----- ------------  ---------------
    98      8.024237   4 C  s               145     -3.358657   8 H  s         
    97     -3.175789   4 C  s                76      3.050803   3 C  pz        
   133     -2.232742   6 H  s               151     -1.954639   9 H  s         
   157     -1.451624  10 H  s               139      1.422133   7 H  s         
    45     -1.403704   2 C  pz              105      1.362637   4 C  px        
 
 Vector   36  Occ=0.000000D+00  E= 3.716654D-01
              MO Center=  5.7D-01,  2.6D-01, -2.9D-02, r^2= 6.3D+00
   Bfn.  Coefficient  Atom+Function         Bfn.  Coefficient  Atom+Function  
  ----- ------------  ---------------      ----- ------------  ---------------
    36     12.770803   2 C  s                98     -8.595975   4 C  s         
    67     -8.366663   3 C  s               127     -3.128742   5 H  s         
    97      2.332718   4 C  s               157      2.245325  10 H  s         
    44      1.966619   2 C  py               35     -1.875551   2 C  s         
   151      1.626915   9 H  s                74     -1.598133   3 C  px        
 
 Vector   37  Occ=0.000000D+00  E= 3.851699D-01
              MO Center=  8.6D-01, -2.7D-01, -7.7D-02, r^2= 6.1D+00
   Bfn.  Coefficient  Atom+Function         Bfn.  Coefficient  Atom+Function  
  ----- ------------  ---------------      ----- ------------  ---------------
    36      5.965516   2 C  s               127     -4.114855   5 H  s         
    98      3.561227   4 C  s                45      2.905497   2 C  pz        
    35     -2.240247   2 C  s                76     -2.185889   3 C  pz        
    67     -2.133069   3 C  s               151     -2.005348   9 H  s         
   145     -1.988071   8 H  s               133      1.730432   6 H  s         
 
 Vector   38  Occ=0.000000D+00  E= 3.946385D-01
              MO Center=  1.8D-01,  2.1D-01, -4.4D-02, r^2= 6.5D+00
   Bfn.  Coefficient  Atom+Function         Bfn.  Coefficient  Atom+Function  
  ----- ------------  ---------------      ----- ------------  ---------------
    98     11.575853   4 C  s                67     -5.945075   3 C  s         
    45      5.234304   2 C  pz               76     -3.170815   3 C  pz        
   133      2.674047   6 H  s               157     -2.519105  10 H  s         
    44      2.344157   2 C  py               43     -1.917842   2 C  px        
    75      1.827831   3 C  py               36     -1.675090   2 C  s         
 
 Vector   39  Occ=0.000000D+00  E= 4.015177D-01
              MO Center= -1.8D-01,  2.4D-01,  2.0D-01, r^2= 6.5D+00
   Bfn.  Coefficient  Atom+Function         Bfn.  Coefficient  Atom+Function  
  ----- ------------  ---------------      ----- ------------  ---------------
    67    -12.499435   3 C  s                36     12.370430   2 C  s         
    45     -5.185374   2 C  pz               98     -5.071815   4 C  s         
    44      3.969988   2 C  py              127      2.884829   5 H  s         
    66      2.695590   3 C  s                43     -2.530453   2 C  px        
   105      2.465017   4 C  px              139      2.393693   7 H  s         
 
 Vector   40  Occ=0.000000D+00  E= 4.151801D-01
              MO Center=  7.0D-01, -2.5D-01, -8.0D-01, r^2= 6.0D+00
   Bfn.  Coefficient  Atom+Function         Bfn.  Coefficient  Atom+Function  
  ----- ------------  ---------------      ----- ------------  ---------------
    98      8.089157   4 C  s                45      2.974135   2 C  pz        
   151     -2.442063   9 H  s               157     -2.430867  10 H  s         
   105     -2.288332   4 C  px               67     -2.198549   3 C  s         
    97     -1.633980   4 C  s                36     -1.418911   2 C  s         
   145      1.231147   8 H  s                44      1.187370   2 C  py        
 
 Vector   41  Occ=0.000000D+00  E= 4.294034D-01
              MO Center=  5.3D-01,  1.1D-01, -1.7D-01, r^2= 7.1D+00
   Bfn.  Coefficient  Atom+Function         Bfn.  Coefficient  Atom+Function  
  ----- ------------  ---------------      ----- ------------  ---------------
    36     10.043881   2 C  s                98     -6.602611   4 C  s         
    67     -4.194751   3 C  s               151      2.895331   9 H  s         
    75      2.609828   3 C  py               44      2.573121   2 C  py        
    45     -2.354620   2 C  pz               43     -1.818080   2 C  px        
   105      1.700085   4 C  px              133     -1.480432   6 H  s         
 
 Vector   42  Occ=0.000000D+00  E= 4.463823D-01
              MO Center=  3.1D-02, -1.8D-01, -2.3D-01, r^2= 5.9D+00
   Bfn.  Coefficient  Atom+Function         Bfn.  Coefficient  Atom+Function  
  ----- ------------  ---------------      ----- ------------  ---------------
    36      9.233842   2 C  s                98     -8.269349   4 C  s         
    45     -5.501503   2 C  pz               67     -2.938225   3 C  s         
    76      2.650936   3 C  pz              127      2.664134   5 H  s         
   106     -2.041502   4 C  py               35     -2.006010   2 C  s         
    44      1.985225   2 C  py              157      1.874365  10 H  s         
 
 Vector   43  Occ=0.000000D+00  E= 4.597132D-01
              MO Center=  6.1D-02,  8.4D-01, -5.1D-01, r^2= 5.1D+00
   Bfn.  Coefficient  Atom+Function         Bfn.  Coefficient  Atom+Function  
  ----- ------------  ---------------      ----- ------------  ---------------
   139      3.086946   7 H  s               157     -2.406985  10 H  s         
    75     -2.145113   3 C  py              107     -2.132433   4 C  pz        
    44     -1.641113   2 C  py               43      1.583027   2 C  px        
   138     -1.460564   7 H  s                45     -1.334295   2 C  pz        
    76      0.943359   3 C  pz               74      0.826537   3 C  px        
 
 Vector   44  Occ=0.000000D+00  E= 4.684016D-01
              MO Center=  4.9D-01,  7.9D-02, -7.4D-02, r^2= 5.7D+00
   Bfn.  Coefficient  Atom+Function         Bfn.  Coefficient  Atom+Function  
  ----- ------------  ---------------      ----- ------------  ---------------
    98     -4.921894   4 C  s                36      4.534521   2 C  s         
    45     -2.138086   2 C  pz              107     -1.735678   4 C  pz        
   133      1.552309   6 H  s               145      1.395741   8 H  s         
    67     -1.334356   3 C  s               157     -1.264016  10 H  s         
    35     -1.228503   2 C  s               151      1.141900   9 H  s         
 
 Vector   45  Occ=0.000000D+00  E= 5.082592D-01
              MO Center=  8.3D-01, -3.8D-01, -8.9D-01, r^2= 4.9D+00
   Bfn.  Coefficient  Atom+Function         Bfn.  Coefficient  Atom+Function  
  ----- ------------  ---------------      ----- ------------  ---------------
    98     10.901461   4 C  s                36     -7.165604   2 C  s         
    45      4.434249   2 C  pz              107      2.988434   4 C  pz        
   106      1.491108   4 C  py              144     -1.218122   8 H  s         
   156     -1.171827  10 H  s               127     -1.153235   5 H  s         
   150     -1.157592   9 H  s                14     -1.125552   1 O  pz        
 
 Vector   46  Occ=0.000000D+00  E= 5.381262D-01
              MO Center=  1.6D-01, -4.2D-01, -5.3D-01, r^2= 4.4D+00
   Bfn.  Coefficient  Atom+Function         Bfn.  Coefficient  Atom+Function  
  ----- ------------  ---------------      ----- ------------  ---------------
    98     -7.616715   4 C  s                36      7.069723   2 C  s         
    45     -3.811758   2 C  pz               76      3.228468   3 C  pz        
   133     -1.766975   6 H  s               107     -1.567953   4 C  pz        
   105      1.519823   4 C  px              139      1.464346   7 H  s         
     5     -1.199298   1 O  s                14     -1.103751   1 O  pz        
 
 Vector   47  Occ=0.000000D+00  E= 6.577054D-01
              MO Center= -3.7D-01,  3.3D-02, -2.0D-02, r^2= 4.3D+00
   Bfn.  Coefficient  Atom+Function         Bfn.  Coefficient  Atom+Function  
  ----- ------------  ---------------      ----- ------------  ---------------
    36     11.591118   2 C  s                67     -8.928352   3 C  s         
    98     -4.126778   4 C  s                43     -2.585776   2 C  px        
    75      2.420076   3 C  py               13      2.212686   1 O  py        
    76      2.073278   3 C  pz              105      1.577708   4 C  px        
   139      1.517809   7 H  s                44      1.464742   2 C  py        
 
 Vector   48  Occ=0.000000D+00  E= 6.741681D-01
              MO Center= -2.9D-01,  3.5D-01,  1.2D-01, r^2= 3.9D+00
   Bfn.  Coefficient  Atom+Function         Bfn.  Coefficient  Atom+Function  
  ----- ------------  ---------------      ----- ------------  ---------------
    36      8.241319   2 C  s                67     -7.956014   3 C  s         
     5      2.947786   1 O  s                75      2.592922   3 C  py        
    98     -2.262628   4 C  s                13      2.126300   1 O  py        
    43     -1.281990   2 C  px               45     -1.282645   2 C  pz        
     4     -1.094158   1 O  s                44      0.977982   2 C  py        
 
 Vector   49  Occ=0.000000D+00  E= 7.079034D-01
              MO Center=  1.7D-01, -3.1D-01, -2.6D-01, r^2= 4.5D+00
   Bfn.  Coefficient  Atom+Function         Bfn.  Coefficient  Atom+Function  
  ----- ------------  ---------------      ----- ------------  ---------------
    67      9.427799   3 C  s                36     -7.221271   2 C  s         
    43      3.660660   2 C  px               44     -3.475627   2 C  py        
    75     -2.735583   3 C  py               98     -2.667581   4 C  s         
     5      2.261415   1 O  s                12      1.681609   1 O  px        
   106      1.662458   4 C  py               13     -1.303369   1 O  py        
 
 Vector   50  Occ=0.000000D+00  E= 7.607568D-01
              MO Center=  6.3D-01, -9.6D-03, -3.4D-01, r^2= 4.0D+00
   Bfn.  Coefficient  Atom+Function         Bfn.  Coefficient  Atom+Function  
  ----- ------------  ---------------      ----- ------------  ---------------
    45      2.449720   2 C  pz              127     -1.693263   5 H  s         
   105     -1.634889   4 C  px               36      1.448948   2 C  s         
    43      1.432219   2 C  px                5     -1.407060   1 O  s         
   126     -1.325235   5 H  s               144      1.192260   8 H  s         
    76     -1.045016   3 C  pz               66      0.986219   3 C  s         
 
 Vector   51  Occ=0.000000D+00  E= 7.942737D-01
              MO Center=  2.7D-01,  4.2D-02, -1.9D-01, r^2= 4.4D+00
   Bfn.  Coefficient  Atom+Function         Bfn.  Coefficient  Atom+Function  
  ----- ------------  ---------------      ----- ------------  ---------------
     5      4.202058   1 O  s                36     -2.856110   2 C  s         
    76     -2.498976   3 C  pz                4     -1.633110   1 O  s         
    45      1.532777   2 C  pz               12      1.373991   1 O  px        
   133      1.318978   6 H  s                43      1.256090   2 C  px        
    66     -1.049563   3 C  s                35     -1.025101   2 C  s         
 
 Vector   52  Occ=0.000000D+00  E= 8.321493D-01
              MO Center=  3.2D-01,  1.7D-01, -7.3D-03, r^2= 4.4D+00
   Bfn.  Coefficient  Atom+Function         Bfn.  Coefficient  Atom+Function  
  ----- ------------  ---------------      ----- ------------  ---------------
    36      6.638113   2 C  s                98     -4.123136   4 C  s         
     5     -3.921374   1 O  s                43     -2.564511   2 C  px        
   105      1.939225   4 C  px               35     -1.868028   2 C  s         
    45     -1.782705   2 C  pz               44      1.479042   2 C  py        
    66     -1.186468   3 C  s                97      1.019756   4 C  s         
 
 Vector   53  Occ=0.000000D+00  E= 8.544806D-01
              MO Center=  6.1D-01,  1.2D-01, -4.0D-01, r^2= 4.2D+00
   Bfn.  Coefficient  Atom+Function         Bfn.  Coefficient  Atom+Function  
  ----- ------------  ---------------      ----- ------------  ---------------
    36      4.643432   2 C  s                98     -4.666316   4 C  s         
    45     -4.543641   2 C  pz               76      2.051047   3 C  pz        
   127      1.792176   5 H  s               106     -1.587000   4 C  py        
    44      1.513748   2 C  py              105      1.340329   4 C  px        
   150     -1.328482   9 H  s               139      1.072738   7 H  s         
 
 Vector   54  Occ=0.000000D+00  E= 8.711830D-01
              MO Center=  1.8D-01, -4.3D-02, -1.3D-01, r^2= 4.2D+00
   Bfn.  Coefficient  Atom+Function         Bfn.  Coefficient  Atom+Function  
  ----- ------------  ---------------      ----- ------------  ---------------
     5      4.606380   1 O  s                36     -1.773433   2 C  s         
     4     -1.562970   1 O  s               138      1.429415   7 H  s         
    76      1.309438   3 C  pz               67     -1.234464   3 C  s         
    12      1.187649   1 O  px               66     -1.141715   3 C  s         
    98     -0.964361   4 C  s                97      0.904617   4 C  s         
 
 Vector   55  Occ=0.000000D+00  E= 9.202103D-01
              MO Center=  5.1D-01,  3.1D-01, -4.7D-01, r^2= 4.5D+00
   Bfn.  Coefficient  Atom+Function         Bfn.  Coefficient  Atom+Function  
  ----- ------------  ---------------      ----- ------------  ---------------
    35      4.942289   2 C  s                36     -1.740847   2 C  s         
    67      1.479608   3 C  s               132     -1.319279   6 H  s         
    72      1.271100   3 C  py               66     -1.244198   3 C  s         
   156     -1.166991  10 H  s                84      1.157001   3 C  d  0      
    41      1.140947   2 C  py              116     -1.079217   4 C  d  1      
 
 Vector   56  Occ=0.000000D+00  E= 9.613435D-01
              MO Center=  4.5D-01,  3.0D-01, -5.3D-01, r^2= 4.7D+00
   Bfn.  Coefficient  Atom+Function         Bfn.  Coefficient  Atom+Function  
  ----- ------------  ---------------      ----- ------------  ---------------
    35      4.189764   2 C  s                67      2.549226   3 C  s         
   138     -2.347876   7 H  s                76     -1.825666   3 C  pz        
    42     -1.747685   2 C  pz               83     -1.651115   3 C  d -1      
    36     -1.497660   2 C  s               115     -1.466751   4 C  d  0      
   132      1.378442   6 H  s                98     -1.332471   4 C  s         
 
 Vector   57  Occ=0.000000D+00  E= 9.918482D-01
              MO Center=  3.3D-01,  4.9D-01, -1.2D-01, r^2= 4.1D+00
   Bfn.  Coefficient  Atom+Function         Bfn.  Coefficient  Atom+Function  
  ----- ------------  ---------------      ----- ------------  ---------------
    36      7.358145   2 C  s                98     -4.827820   4 C  s         
    67     -3.848093   3 C  s                45     -3.703846   2 C  pz        
    43     -2.290224   2 C  px               44      2.102111   2 C  py        
    66     -1.625926   3 C  s               127      1.546300   5 H  s         
    75      1.435254   3 C  py              126      1.326200   5 H  s         
 
 Vector   58  Occ=0.000000D+00  E= 1.012877D+00
              MO Center=  3.8D-01,  5.3D-01, -6.3D-02, r^2= 4.3D+00
   Bfn.  Coefficient  Atom+Function         Bfn.  Coefficient  Atom+Function  
  ----- ------------  ---------------      ----- ------------  ---------------
    36      5.693544   2 C  s                67     -4.627360   3 C  s         
    45     -2.239857   2 C  pz               44      1.910788   2 C  py        
    98     -1.800398   4 C  s               156     -1.513513  10 H  s         
    43     -1.382354   2 C  px               74     -1.340103   3 C  px        
    82      1.337425   3 C  d -2             76      1.322588   3 C  pz        
 
 Vector   59  Occ=0.000000D+00  E= 1.041579D+00
              MO Center=  7.0D-01, -1.6D-01, -4.6D-01, r^2= 4.2D+00
   Bfn.  Coefficient  Atom+Function         Bfn.  Coefficient  Atom+Function  
  ----- ------------  ---------------      ----- ------------  ---------------
    35      2.749499   2 C  s                36      2.574497   2 C  s         
    66     -2.405456   3 C  s               150      2.084710   9 H  s         
     5     -1.848651   1 O  s               144     -1.798186   8 H  s         
   117      1.728472   4 C  d  2             41      1.567852   2 C  py        
    44      1.345662   2 C  py               72      1.265328   3 C  py        
 
 Vector   60  Occ=0.000000D+00  E= 1.079049D+00
              MO Center=  6.8D-01,  8.5D-03, -7.3D-02, r^2= 4.1D+00
   Bfn.  Coefficient  Atom+Function         Bfn.  Coefficient  Atom+Function  
  ----- ------------  ---------------      ----- ------------  ---------------
    98      4.062444   4 C  s                66     -3.998347   3 C  s         
    45      3.726924   2 C  pz               97      3.719499   4 C  s         
    36     -3.216805   2 C  s                41      2.547669   2 C  py        
   104      2.497829   4 C  pz               42      2.347421   2 C  pz        
    72      2.319149   3 C  py               53     -2.213154   2 C  d  0      
 
 Vector   61  Occ=0.000000D+00  E= 1.104914D+00
              MO Center=  3.7D-01,  5.7D-02,  5.9D-02, r^2= 3.8D+00
   Bfn.  Coefficient  Atom+Function         Bfn.  Coefficient  Atom+Function  
  ----- ------------  ---------------      ----- ------------  ---------------
    36      7.670123   2 C  s                67     -5.291571   3 C  s         
    98     -2.995927   4 C  s                66      2.174159   3 C  s         
    45     -2.014862   2 C  pz              126     -1.972317   5 H  s         
   132      1.659347   6 H  s                72     -1.623720   3 C  py        
    41     -1.500372   2 C  py               97     -1.490637   4 C  s         
 
 Vector   62  Occ=0.000000D+00  E= 1.146852D+00
              MO Center=  6.2D-01,  1.2D-02, -3.1D-02, r^2= 3.6D+00
   Bfn.  Coefficient  Atom+Function         Bfn.  Coefficient  Atom+Function  
  ----- ------------  ---------------      ----- ------------  ---------------
    67      5.093314   3 C  s                36     -3.871891   2 C  s         
    44     -2.367907   2 C  py              126      1.841182   5 H  s         
    97     -1.811310   4 C  s                54      1.588488   2 C  d  1      
    43      1.532379   2 C  px               55      1.468403   2 C  d  2      
    42     -1.431439   2 C  pz               75     -1.415259   3 C  py        
 
 Vector   63  Occ=0.000000D+00  E= 1.215604D+00
              MO Center=  5.6D-01,  2.0D-01, -1.4D-01, r^2= 3.8D+00
   Bfn.  Coefficient  Atom+Function         Bfn.  Coefficient  Atom+Function  
  ----- ------------  ---------------      ----- ------------  ---------------
    36      6.765489   2 C  s                66     -5.039658   3 C  s         
    67     -3.299259   3 C  s                97     -3.309353   4 C  s         
    35      3.167055   2 C  s                72      1.935338   3 C  py        
    51     -1.770312   2 C  d -2             52      1.687812   2 C  d -1      
   138      1.651002   7 H  s                41      1.506040   2 C  py        
 
 Vector   64  Occ=0.000000D+00  E= 1.348914D+00
              MO Center=  3.4D-01,  5.5D-01,  2.3D-01, r^2= 3.6D+00
   Bfn.  Coefficient  Atom+Function         Bfn.  Coefficient  Atom+Function  
  ----- ------------  ---------------      ----- ------------  ---------------
    66      4.688783   3 C  s                35      3.917776   2 C  s         
    67     -3.119473   3 C  s                36     -2.658185   2 C  s         
    65     -2.413190   3 C  s               132     -2.047752   6 H  s         
    34     -1.439792   2 C  s               133      1.435912   6 H  s         
    72      1.368456   3 C  py              139      1.080027   7 H  s         
 
 Vector   65  Occ=0.000000D+00  E= 1.416103D+00
              MO Center=  1.7D-01,  5.1D-01, -5.5D-02, r^2= 3.4D+00
   Bfn.  Coefficient  Atom+Function         Bfn.  Coefficient  Atom+Function  
  ----- ------------  ---------------      ----- ------------  ---------------
    36      4.490159   2 C  s                66      3.729451   3 C  s         
    67     -3.724313   3 C  s                35     -3.688741   2 C  s         
    73     -2.349027   3 C  pz              138     -2.226951   7 H  s         
   139      2.193652   7 H  s               126      1.760322   5 H  s         
    76      1.701705   3 C  pz               34      1.520982   2 C  s         
 
 Vector   66  Occ=0.000000D+00  E= 1.431958D+00
              MO Center=  1.0D+00, -5.4D-01, -1.2D+00, r^2= 3.6D+00
   Bfn.  Coefficient  Atom+Function         Bfn.  Coefficient  Atom+Function  
  ----- ------------  ---------------      ----- ------------  ---------------
    98     10.560873   4 C  s                97     -7.762316   4 C  s         
    96      3.105510   4 C  s               151     -2.797395   9 H  s         
    66      2.505027   3 C  s               150      2.239230   9 H  s         
   157     -2.235248  10 H  s               145     -2.089631   8 H  s         
    67     -1.924697   3 C  s                36     -1.652770   2 C  s         
 
 Vector   67  Occ=0.000000D+00  E= 1.442580D+00
              MO Center=  3.4D-01,  8.0D-02, -2.3D-03, r^2= 3.9D+00
   Bfn.  Coefficient  Atom+Function         Bfn.  Coefficient  Atom+Function  
  ----- ------------  ---------------      ----- ------------  ---------------
    66      3.732741   3 C  s                35     -2.933948   2 C  s         
    67     -2.332863   3 C  s                45      2.047022   2 C  pz        
    36      1.942241   2 C  s               133      1.947398   6 H  s         
    76     -1.917482   3 C  pz              127     -1.898882   5 H  s         
   132     -1.424377   6 H  s                65     -1.393195   3 C  s         
 
 Vector   68  Occ=0.000000D+00  E= 1.446250D+00
              MO Center=  4.0D-01, -5.2D-02, -2.1D-01, r^2= 3.1D+00
   Bfn.  Coefficient  Atom+Function         Bfn.  Coefficient  Atom+Function  
  ----- ------------  ---------------      ----- ------------  ---------------
    98      4.691373   4 C  s                97     -2.714311   4 C  s         
    36     -2.476930   2 C  s                 5      2.049569   1 O  s         
    45      1.761321   2 C  pz               35     -1.298990   2 C  s         
   127     -1.241416   5 H  s                96      1.130238   4 C  s         
   126      1.028595   5 H  s                44     -1.017201   2 C  py        
 
 Vector   69  Occ=0.000000D+00  E= 1.471040D+00
              MO Center=  9.5D-01, -2.2D-01, -9.5D-01, r^2= 3.4D+00
   Bfn.  Coefficient  Atom+Function         Bfn.  Coefficient  Atom+Function  
  ----- ------------  ---------------      ----- ------------  ---------------
    36      2.914952   2 C  s                98     -1.839882   4 C  s         
   156     -1.776365  10 H  s               103      1.719347   4 C  py        
   157      1.424696  10 H  s                67     -1.307114   3 C  s         
    97      1.283656   4 C  s               126      1.278237   5 H  s         
   150      1.186157   9 H  s                66      1.151008   3 C  s         
 
 Vector   70  Occ=0.000000D+00  E= 1.482040D+00
              MO Center=  9.0D-01, -3.8D-01, -9.9D-01, r^2= 3.5D+00
   Bfn.  Coefficient  Atom+Function         Bfn.  Coefficient  Atom+Function  
  ----- ------------  ---------------      ----- ------------  ---------------
    66      2.406502   3 C  s               156      2.131425  10 H  s         
    36     -1.816623   2 C  s               102      1.773305   4 C  px        
   157     -1.639758  10 H  s               104      1.539370   4 C  pz        
   126     -1.241218   5 H  s               144     -1.225313   8 H  s         
   103     -1.155845   4 C  py              133      1.084691   6 H  s         
 
 Vector   71  Occ=0.000000D+00  E= 1.514425D+00
              MO Center=  3.7D-01,  1.7D-01, -3.3D-01, r^2= 4.0D+00
   Bfn.  Coefficient  Atom+Function         Bfn.  Coefficient  Atom+Function  
  ----- ------------  ---------------      ----- ------------  ---------------
    98      3.128892   4 C  s               144      1.796908   8 H  s         
    97     -1.580907   4 C  s               102     -1.505973   4 C  px        
   145     -1.487349   8 H  s               103     -1.310512   4 C  py        
    45      1.271769   2 C  pz               66      1.009103   3 C  s         
    36     -0.880295   2 C  s               150     -0.884398   9 H  s         
 
 Vector   72  Occ=0.000000D+00  E= 1.541790D+00
              MO Center=  3.7D-01,  4.7D-01, -2.1D-01, r^2= 4.6D+00
   Bfn.  Coefficient  Atom+Function         Bfn.  Coefficient  Atom+Function  
  ----- ------------  ---------------      ----- ------------  ---------------
    36      4.598214   2 C  s                35     -3.930379   2 C  s         
    98     -3.394395   4 C  s                97      2.875359   4 C  s         
    67     -2.722642   3 C  s                73      2.128828   3 C  pz        
   132     -1.748311   6 H  s                66      1.499590   3 C  s         
   133      1.450325   6 H  s               102     -1.399048   4 C  px        
 
 Vector   73  Occ=0.000000D+00  E= 1.577335D+00
              MO Center=  5.0D-01, -9.3D-03, -7.3D-02, r^2= 3.3D+00
   Bfn.  Coefficient  Atom+Function         Bfn.  Coefficient  Atom+Function  
  ----- ------------  ---------------      ----- ------------  ---------------
    35      3.263347   2 C  s                36     -2.639130   2 C  s         
    40     -2.053085   2 C  px               97     -1.862765   4 C  s         
   126      1.802641   5 H  s                67      1.680663   3 C  s         
    72      1.557538   3 C  py               42     -1.462585   2 C  pz        
    34     -1.381756   2 C  s                45      1.312203   2 C  pz        
 
 Vector   74  Occ=0.000000D+00  E= 1.597477D+00
              MO Center=  3.5D-01,  3.7D-01, -1.7D-01, r^2= 3.4D+00
   Bfn.  Coefficient  Atom+Function         Bfn.  Coefficient  Atom+Function  
  ----- ------------  ---------------      ----- ------------  ---------------
    66     -5.309416   3 C  s                36     -5.218181   2 C  s         
    35      5.074050   2 C  s                67      3.939008   3 C  s         
    41      3.744999   2 C  py               71     -2.537019   3 C  px        
    72      2.406819   3 C  py               40     -2.095468   2 C  px        
    98      1.749626   4 C  s                82      1.664073   3 C  d -2      
 
 Vector   75  Occ=0.000000D+00  E= 1.641863D+00
              MO Center=  4.6D-01,  1.9D-01, -1.3D-02, r^2= 3.7D+00
   Bfn.  Coefficient  Atom+Function         Bfn.  Coefficient  Atom+Function  
  ----- ------------  ---------------      ----- ------------  ---------------
    66      2.525883   3 C  s                35      2.403633   2 C  s         
    98      2.090529   4 C  s                 5     -1.740969   1 O  s         
    97     -1.641416   4 C  s                67     -1.279293   3 C  s         
   104     -1.156745   4 C  pz              150     -1.084870   9 H  s         
   103     -1.042891   4 C  py              144      1.018889   8 H  s         
 
 Vector   76  Occ=0.000000D+00  E= 1.690799D+00
              MO Center=  6.2D-01,  4.8D-03, -4.2D-01, r^2= 3.5D+00
   Bfn.  Coefficient  Atom+Function         Bfn.  Coefficient  Atom+Function  
  ----- ------------  ---------------      ----- ------------  ---------------
    97     -5.139980   4 C  s                35      4.932340   2 C  s         
   104     -2.498522   4 C  pz               42     -2.471483   2 C  pz        
    66     -1.995438   3 C  s               102      1.868732   4 C  px        
    40      1.541281   2 C  px               34     -1.407246   2 C  s         
    96      1.407343   4 C  s                67      1.113400   3 C  s         
 
 Vector   77  Occ=0.000000D+00  E= 1.701207D+00
              MO Center= -9.4D-02,  4.1D-01, -6.2D-02, r^2= 3.7D+00
   Bfn.  Coefficient  Atom+Function         Bfn.  Coefficient  Atom+Function  
  ----- ------------  ---------------      ----- ------------  ---------------
     5      3.986796   1 O  s                72      3.456224   3 C  py        
    97      2.871280   4 C  s                36     -2.470426   2 C  s         
   138     -2.075465   7 H  s                42      2.023848   2 C  pz        
    35     -1.928811   2 C  s               104      1.840301   4 C  pz        
    66     -1.687210   3 C  s                12      1.524624   1 O  px        
 
 Vector   78  Occ=0.000000D+00  E= 1.791395D+00
              MO Center=  3.7D-01,  2.6D-01,  1.3D-02, r^2= 3.5D+00
   Bfn.  Coefficient  Atom+Function         Bfn.  Coefficient  Atom+Function  
  ----- ------------  ---------------      ----- ------------  ---------------
    35      3.197631   2 C  s                97     -2.779378   4 C  s         
    36      1.781584   2 C  s                45     -1.284542   2 C  pz        
   104     -1.186270   4 C  pz               67     -1.107611   3 C  s         
    42     -1.057630   2 C  pz                5     -1.014190   1 O  s         
    72      0.988762   3 C  py              102      0.982740   4 C  px        
 
 Vector   79  Occ=0.000000D+00  E= 1.815663D+00
              MO Center= -6.1D-01,  1.9D-01,  1.9D-01, r^2= 2.6D+00
   Bfn.  Coefficient  Atom+Function         Bfn.  Coefficient  Atom+Function  
  ----- ------------  ---------------      ----- ------------  ---------------
    35      3.965812   2 C  s                 5     -3.255642   1 O  s         
    40     -2.458158   2 C  px               41      2.164631   2 C  py        
    72      1.990386   3 C  py               66     -1.825784   3 C  s         
    71     -1.694257   3 C  px               12     -1.360750   1 O  px        
   132     -1.052169   6 H  s               138     -1.027305   7 H  s         
 
 Vector   80  Occ=0.000000D+00  E= 1.842450D+00
              MO Center=  7.8D-02,  2.7D-01, -7.1D-02, r^2= 3.7D+00
   Bfn.  Coefficient  Atom+Function         Bfn.  Coefficient  Atom+Function  
  ----- ------------  ---------------      ----- ------------  ---------------
    35      1.583556   2 C  s                36     -1.135740   2 C  s         
   156     -0.955303  10 H  s               104     -0.827779   4 C  pz        
    41     -0.785058   2 C  py               66      0.770591   3 C  s         
    97     -0.694020   4 C  s               150      0.673553   9 H  s         
    71     -0.654239   3 C  px              157      0.656736  10 H  s         
 
 Vector   81  Occ=0.000000D+00  E= 1.866787D+00
              MO Center=  5.3D-01,  1.6D-01, -4.5D-01, r^2= 4.0D+00
   Bfn.  Coefficient  Atom+Function         Bfn.  Coefficient  Atom+Function  
  ----- ------------  ---------------      ----- ------------  ---------------
    35      6.615504   2 C  s                66     -4.338020   3 C  s         
    72      3.481151   3 C  py               97     -3.370568   4 C  s         
    36      2.152605   2 C  s               104     -1.890725   4 C  pz        
    34     -1.636238   2 C  s                67     -1.555307   3 C  s         
    41      1.519220   2 C  py               45     -1.390852   2 C  pz        
 
 Vector   82  Occ=0.000000D+00  E= 1.922456D+00
              MO Center=  3.2D-01, -1.4D-01, -3.0D-01, r^2= 3.2D+00
   Bfn.  Coefficient  Atom+Function         Bfn.  Coefficient  Atom+Function  
  ----- ------------  ---------------      ----- ------------  ---------------
    36      1.368916   2 C  s                98     -1.366651   4 C  s         
   103     -1.276302   4 C  py               45     -1.230774   2 C  pz        
    35      1.207005   2 C  s                97     -1.156170   4 C  s         
    66     -0.858727   3 C  s               150     -0.855178   9 H  s         
    42     -0.825115   2 C  pz              104     -0.747292   4 C  pz        
 
 Vector   83  Occ=0.000000D+00  E= 1.991265D+00
              MO Center=  9.4D-01, -2.9D-01, -5.3D-01, r^2= 3.4D+00
   Bfn.  Coefficient  Atom+Function         Bfn.  Coefficient  Atom+Function  
  ----- ------------  ---------------      ----- ------------  ---------------
    98      4.326045   4 C  s                35      3.770244   2 C  s         
    66     -2.759834   3 C  s                36     -2.491595   2 C  s         
    40     -2.101033   2 C  px               72      1.940939   3 C  py        
    41      1.745150   2 C  py               43     -1.411869   2 C  px        
   107      1.359478   4 C  pz               71     -1.275012   3 C  px        
 
 Vector   84  Occ=0.000000D+00  E= 1.992950D+00
              MO Center=  5.1D-01, -3.4D-02, -5.7D-01, r^2= 3.4D+00
   Bfn.  Coefficient  Atom+Function         Bfn.  Coefficient  Atom+Function  
  ----- ------------  ---------------      ----- ------------  ---------------
    36      4.039329   2 C  s                98     -2.955173   4 C  s         
    45     -2.005612   2 C  pz               67     -1.921129   3 C  s         
    35     -1.119444   2 C  s                 5     -1.039266   1 O  s         
   156      0.973571  10 H  s                40     -0.964369   2 C  px        
   104      0.883277   4 C  pz               44      0.771425   2 C  py        
 
 Vector   85  Occ=0.000000D+00  E= 2.089519D+00
              MO Center= -4.0D-02,  1.7D-01, -1.9D-02, r^2= 3.5D+00
   Bfn.  Coefficient  Atom+Function         Bfn.  Coefficient  Atom+Function  
  ----- ------------  ---------------      ----- ------------  ---------------
    36      2.503065   2 C  s                98     -2.353210   4 C  s         
   156      0.761242  10 H  s               138     -0.751224   7 H  s         
    67     -0.625120   3 C  s                14     -0.617714   1 O  pz        
    35     -0.591153   2 C  s                45     -0.560897   2 C  pz        
    40     -0.538592   2 C  px              105      0.513022   4 C  px        
 
 Vector   86  Occ=0.000000D+00  E= 2.096810D+00
              MO Center= -3.6D-01,  6.5D-02,  5.6D-02, r^2= 3.0D+00
   Bfn.  Coefficient  Atom+Function         Bfn.  Coefficient  Atom+Function  
  ----- ------------  ---------------      ----- ------------  ---------------
    36      5.706517   2 C  s                67     -5.590458   3 C  s         
    35     -3.326632   2 C  s                66      3.308162   3 C  s         
    41     -3.069485   2 C  py               71      2.756805   3 C  px        
    13      1.858449   1 O  py               82     -1.468453   3 C  d -2      
    75      1.342029   3 C  py               43     -1.331501   2 C  px        
 
 Vector   87  Occ=0.000000D+00  E= 2.165173D+00
              MO Center=  5.2D-01, -4.3D-02, -4.9D-01, r^2= 3.2D+00
   Bfn.  Coefficient  Atom+Function         Bfn.  Coefficient  Atom+Function  
  ----- ------------  ---------------      ----- ------------  ---------------
    98      2.096886   4 C  s                67     -1.856030   3 C  s         
    35     -1.305900   2 C  s                73      1.022521   3 C  pz        
    40      0.862410   2 C  px               36      0.856256   2 C  s         
   156     -0.857265  10 H  s                44      0.843885   2 C  py        
    43     -0.812022   2 C  px              144     -0.748019   8 H  s         
 
 Vector   88  Occ=0.000000D+00  E= 2.199638D+00
              MO Center=  4.7D-01,  1.7D-01, -3.4D-01, r^2= 3.7D+00
   Bfn.  Coefficient  Atom+Function         Bfn.  Coefficient  Atom+Function  
  ----- ------------  ---------------      ----- ------------  ---------------
    98      2.283799   4 C  s                36     -1.162049   2 C  s         
    45      1.040317   2 C  pz               76     -0.905088   3 C  pz        
    42     -0.817527   2 C  pz              132      0.789917   6 H  s         
    97     -0.764298   4 C  s               103     -0.714300   4 C  py        
   117     -0.631397   4 C  d  2            138     -0.573839   7 H  s         
 
 Vector   89  Occ=0.000000D+00  E= 2.228751D+00
              MO Center=  6.3D-01,  5.9D-02, -5.4D-02, r^2= 3.5D+00
   Bfn.  Coefficient  Atom+Function         Bfn.  Coefficient  Atom+Function  
  ----- ------------  ---------------      ----- ------------  ---------------
    36      3.265421   2 C  s                67     -1.772767   3 C  s         
    98     -1.363731   4 C  s                 5     -1.127161   1 O  s         
    42     -0.981166   2 C  pz               72     -0.923132   3 C  py        
    35     -0.872715   2 C  s                66      0.823305   3 C  s         
    43     -0.749697   2 C  px               45     -0.736771   2 C  pz        
 
 Vector   90  Occ=0.000000D+00  E= 2.243923D+00
              MO Center=  7.3D-01, -1.9D-01, -7.1D-01, r^2= 3.6D+00
   Bfn.  Coefficient  Atom+Function         Bfn.  Coefficient  Atom+Function  
  ----- ------------  ---------------      ----- ------------  ---------------
   150      1.120149   9 H  s                66     -0.959538   3 C  s         
   144     -0.920119   8 H  s                72      0.824822   3 C  py        
   117      0.774416   4 C  d  2             36      0.621614   2 C  s         
    83      0.569619   3 C  d -1             98     -0.525089   4 C  s         
   126      0.506497   5 H  s               147      0.506843   8 H  py        
 
 Vector   91  Occ=0.000000D+00  E= 2.267673D+00
              MO Center=  9.3D-01, -2.3D-01, -1.1D+00, r^2= 3.1D+00
   Bfn.  Coefficient  Atom+Function         Bfn.  Coefficient  Atom+Function  
  ----- ------------  ---------------      ----- ------------  ---------------
    36      2.031220   2 C  s                66      1.976669   3 C  s         
    67     -1.384970   3 C  s                41     -1.353956   2 C  py        
    98     -1.357195   4 C  s                35     -1.015241   2 C  s         
   156      0.964576  10 H  s                71      0.838441   3 C  px        
    76      0.798129   3 C  pz               72     -0.777623   3 C  py        
 
 Vector   92  Occ=0.000000D+00  E= 2.282800D+00
              MO Center=  5.7D-01,  6.8D-02, -2.6D-01, r^2= 3.7D+00
   Bfn.  Coefficient  Atom+Function         Bfn.  Coefficient  Atom+Function  
  ----- ------------  ---------------      ----- ------------  ---------------
    98      3.568919   4 C  s                66      2.514622   3 C  s         
[...]
    21     -0.871668   1 O  d -1             42     -0.806988   2 C  pz        
    97     -0.728939   4 C  s                45     -0.700265   2 C  pz        
     5     -0.514622   1 O  s                67     -0.512724   3 C  s         
    98     -0.509214   4 C  s                83     -0.492644   3 C  d -1      
 
 Vector  154  Occ=0.000000D+00  E= 6.676214D+00
              MO Center= -8.7D-01, -1.8D-01,  2.0D-01, r^2= 5.7D-01
   Bfn.  Coefficient  Atom+Function         Bfn.  Coefficient  Atom+Function  
  ----- ------------  ---------------      ----- ------------  ---------------
    18      1.062171   1 O  d  1             23     -1.036403   1 O  d  1      
    97     -0.869799   4 C  s                42     -0.778573   2 C  pz        
    35      0.754878   2 C  s               102      0.631383   4 C  px        
    54     -0.546487   2 C  d  1             14      0.405147   1 O  pz        
    16     -0.393677   1 O  d -1             11      0.388931   1 O  pz        
 
 Vector  155  Occ=0.000000D+00  E= 6.842129D+00
              MO Center= -8.8D-01, -1.9D-01,  2.0D-01, r^2= 5.9D-01
   Bfn.  Coefficient  Atom+Function         Bfn.  Coefficient  Atom+Function  
  ----- ------------  ---------------      ----- ------------  ---------------
     5      2.110930   1 O  s                40      1.768198   2 C  px        
     9      1.360342   1 O  px               97     -1.285540   4 C  s         
     4      1.202479   1 O  s                20      1.048921   1 O  d -2      
    42     -0.976948   2 C  pz               12      0.846884   1 O  px        
    35     -0.848438   2 C  s                15     -0.833836   1 O  d -2      
 
 Vector  156  Occ=0.000000D+00  E= 7.055443D+00
              MO Center= -8.9D-01, -1.9D-01,  2.0D-01, r^2= 6.4D-01
   Bfn.  Coefficient  Atom+Function         Bfn.  Coefficient  Atom+Function  
  ----- ------------  ---------------      ----- ------------  ---------------
    66     -3.178413   3 C  s                35      3.032500   2 C  s         
    40     -2.722280   2 C  px               72      2.691722   3 C  py        
    24     -1.578444   1 O  d  2             36      1.445902   2 C  s         
    67     -1.291092   3 C  s                10      1.283377   1 O  py        
    19      1.016649   1 O  d  2             13      0.866643   1 O  py        
 
 Vector  157  Occ=0.000000D+00  E= 2.193926D+01
              MO Center=  2.8D-02,  8.4D-01,  1.1D-01, r^2= 1.1D+00
   Bfn.  Coefficient  Atom+Function         Bfn.  Coefficient  Atom+Function  
  ----- ------------  ---------------      ----- ------------  ---------------
    64      1.615591   3 C  s                65     -1.384178   3 C  s         
    63     -1.273221   3 C  s                67     -1.242187   3 C  s         
    98      0.993035   4 C  s                95     -0.672311   4 C  s         
    96      0.542522   4 C  s                94      0.532085   4 C  s         
    35      0.487673   2 C  s                40     -0.463496   2 C  px        
 
 Vector  158  Occ=0.000000D+00  E= 2.198629D+01
              MO Center=  9.3D-01, -3.1D-01, -7.6D-01, r^2= 1.0D+00
   Bfn.  Coefficient  Atom+Function         Bfn.  Coefficient  Atom+Function  
  ----- ------------  ---------------      ----- ------------  ---------------
    95      1.451475   4 C  s                96     -1.338163   4 C  s         
    98     -1.161178   4 C  s                94     -1.141676   4 C  s         
    34     -0.978310   2 C  s                36     -0.974351   2 C  s         
    33      0.900268   2 C  s                32     -0.703596   2 C  s         
    67      0.684026   3 C  s                65     -0.549833   3 C  s         
 
 Vector  159  Occ=0.000000D+00  E= 2.209998D+01
              MO Center=  6.2D-01, -1.2D-01, -9.7D-02, r^2= 7.4D-01
   Bfn.  Coefficient  Atom+Function         Bfn.  Coefficient  Atom+Function  
  ----- ------------  ---------------      ----- ------------  ---------------
    36      2.165660   2 C  s                33     -1.519253   2 C  s         
    34      1.504800   2 C  s                35     -1.343068   2 C  s         
    98     -1.327823   4 C  s                32      1.189961   2 C  s         
    67     -1.133910   3 C  s                95      0.756256   4 C  s         
    97      0.706151   4 C  s                96     -0.684981   4 C  s         
 
 Vector  160  Occ=0.000000D+00  E= 4.341410D+01
              MO Center= -8.8D-01, -1.8D-01,  2.0D-01, r^2= 1.2D-01
   Bfn.  Coefficient  Atom+Function         Bfn.  Coefficient  Atom+Function  
  ----- ------------  ---------------      ----- ------------  ---------------
     4      2.506064   1 O  s                 3     -1.874282   1 O  s         
     2      1.731519   1 O  s                 1     -1.395840   1 O  s         
     5     -0.878425   1 O  s                36      0.830478   2 C  s         
     9      0.561292   1 O  px               66     -0.514179   3 C  s         
    40      0.463337   2 C  px               72      0.456531   3 C  py        
 

 center of mass
 --------------
 x =   0.30619380 y =   0.09486496 z =  -0.27792458

 moments of inertia (a.u.)
 ------------------
         199.895520926100          45.629836364797          83.781592138499
          45.629836364797         248.141147143556         -52.610696583689
          83.781592138499         -52.610696583689         238.909043959964
 
     Multipole analysis of the density
     ---------------------------------
 
     L   x y z        total         alpha         beta         nuclear
     -   - - -        -----         -----         ----         -------
     0   0 0 0     -0.000000    -16.000000    -16.000000     32.000000
 
     1   1 0 0      0.684746     -6.236497     -6.236497     13.157741
     1   0 1 0      0.319245     -1.634447     -1.634447      3.588140
     1   0 0 1     -0.058943      5.318957      5.318957    -10.696858
 
     2   2 0 0    -20.052441    -54.476823    -54.476823     88.901204
     2   1 1 0     -1.121304     13.861086     13.861086    -28.843475
     2   1 0 1      0.161176     26.507654     26.507654    -52.854132
     2   0 2 0    -17.824443    -40.377878    -40.377878     62.931313
     2   0 1 1      0.271523    -15.348602    -15.348602     30.968726
     2   0 0 2    -18.191149    -45.740571    -45.740571     73.289993
 
 *** CALLING NEW AORESP DRIVER FOR CLOSED AND OPEN SHELLS ***
 Entering AOResponse driver routine


--------------------------------------------------------------------------------

          ****************
          *** RESPONSE ***
          ****************

 Response module for NWChem and dynamic CPKS solver
 developed by J. Autschbach and coworkers, SUNY Buffalo
 The methodology used in this program is described in 
 ChemPhysChem 12 (2011), 3224-3235 (main reference)
 J. Chem. Phys. 123 (2005), 114103
 J. Chem. Phys. 122 (2005), 224115
 J. Chem. Phys. 122 (2005), 074105
 Comp. Lett. 3 (2007), 131-150 (contact JA for a copy)
 Please cite this work in publications based on results
 obtained with this code. Thank you!

 For extension of response module to open shell
 calculations please acknowledge:
 F. Aquino, Northwestern University, Schatz Rsrch Group
 The update to the methodology is described in
 J. Phys. Chem. A 118 (2014) 517-525



          -----------------------------------------------
          Solving response equations for perturbing field
          -----------------------------------------------

 number of frequencies:     1
 frequency in a.u.:  0.9319600E-01
 Perturbing field: electric
 Using GIAO formalism for OptRot
 Adding quadrupole terms to OptRot
 to create an origin in dependent tensor.
 Using El. Dipole Length Gauge
 
 Applying DAMPING constant of  0.003700 a.u.
 
 Setting up CPKS
 with frequency omega =      0.09319600 a.u.
 and a damping of            0.00370000 a.u.

 
                            NWChem Dynamic CPHF Module
                            --------------------------
 
 
    scftype = RHF 
    nclosed =   16
      nopen =    0
  variables =     9216
  num. vecs =        3
  tolerance =   1.0D-07
  max. iter =  100

 SCF residual:   4.169427262128535E-006


Iterative solution of linear equations
  No. of variables     4608
  No. of equations        3
  Maximum subspace       99
       Convergence  1.0D-07
        Start time     84.7


   iter   nsub   residual    time 
   ----  ------  --------  --------- 
 dft_CPHF2_read: failed to open
 ./methyloxirane_blyp-def2-tzvp_488.9_22.inp.aoresp_fiao_f1
     1      3    3.83D+00     128.1
     2      6    2.62D+00     171.6
     3      9    2.52D-01     215.0
     4     12    6.54D-02     258.4
     5     15    1.05D-02     301.8
     6     18    1.37D-03     345.1
     7     21    1.52D-04     388.7
     8     24    1.65D-05     432.3
     9     27    1.40D-06     475.7
    10     30    5.17D-07     519.1
    11     33    1.57D-08     562.4

 Calculating some arrays needed for GIAO optical rotation

    0 giaofock schwarz done =      93.09%
    0 giaofock schwarz done =      93.09%
 aor_r1_tensor_giao: roadata output requested
 dip-quad polarizability Re:

              1        2        3        4        5        6      
    1   80.1170  -5.9095 -28.4238  -4.9608   0.8055   9.1317
    2  -11.6454  24.9238   3.0669  25.6075 -20.4408   4.1899
    3   -7.1793   0.8581  39.6019   0.3720  14.5037 -40.6532
 traceless dip-quad polarizability:

              1        2        3      
    1   78.0316  -8.8642 -42.6357
    2   -8.8642 -49.5852   1.2083
    3  -42.6357   1.2083 -28.4464

              1        2        3      
    1  -26.5441  37.3857   4.6003
    2   37.3857  29.3352 -30.6612
    3    4.6003 -30.6612  -2.7911

              1        2        3      
    1   12.9613   1.2872  59.4029
    2    1.2872  24.2882  21.7555
    3   59.4029  21.7555 -37.2495

 roa begin

 alpha real:
 XX       0.4138736135475E+02
 XY      -0.5114758438961E+01
 XZ      -0.3072564980789E+01
 YX      -0.5114758441168E+01
 YY       0.4365643589167E+02
 YZ       0.3035241328351E+01
 ZX      -0.3072564985257E+01
 ZY       0.3035241331246E+01
 ZZ       0.4149093153772E+02

 alpha im:
 XX       0.1138804878494E+00
 XY      -0.2948987086511E-01
 XZ      -0.1159179602872E-01
 YX      -0.2948986610796E-01
 YY       0.1264059081019E+00
 YZ       0.1727227659036E-01
 ZX      -0.1159179148240E-01
 ZY       0.1727227841257E-01
 ZZ       0.1229166054776E+00

 beta real:
 XX      -0.1624679863474E+00
 XY       0.9782364000304E+00
 XZ       0.1753361983547E+00
 YX      -0.8381177678804E+00
 YY       0.1376231734416E+00
 YZ      -0.1510440855491E+01
 ZX      -0.4794013524531E+00
 ZY       0.1867585286452E+01
 ZZ       0.1529009024680E-01

 G-prime = -omega beta(real):
 XX      -0.1624679863474E+00
 XY       0.9782364000304E+00
 XZ       0.1753361983547E+00
 YX      -0.8381177678804E+00
 YY       0.1376231734416E+00
 YZ      -0.1510440855491E+01
 ZX      -0.4794013524531E+00
 ZY       0.1867585286452E+01
 ZZ       0.1529009024680E-01

 beta im:
 XX      -0.6909162542354E-02
 XY       0.1476847350750E-01
 XZ       0.1605986814976E-02
 YX      -0.5911522594394E-02
 YY       0.4431072020769E-02
 YZ      -0.2203204947002E-01
 ZX      -0.1309864473348E-01
 ZY       0.3984690128796E-01
 ZZ       0.1432209474803E-02

 G-prime = -omega beta(imag):
 XX      -0.6909162542354E-02
 XY       0.1476847350750E-01
 XZ       0.1605986814976E-02
 YX      -0.5911522594394E-02
 YY       0.4431072020769E-02
 YZ      -0.2203204947002E-01
 ZX      -0.1309864473348E-01
 ZY       0.3984690128796E-01
 ZZ       0.1432209474803E-02

 dipole-quadrupole real (Cartesian):
 XXX      0.8011701745234E+02
 XXY     -0.5909488516414E+01
 XXZ     -0.2842381837957E+02
 XYY     -0.4960818298357E+01
 XYZ      0.8055124088681E+00
 XZZ      0.9131727937363E+01
 YXX     -0.1164535690546E+02
 YXY      0.2492377578389E+02
 YXZ      0.3066864277260E+01
 YYY      0.2560745953145E+02
 YYZ     -0.2044082781496E+02
 YZZ      0.4189946140195E+01
 ZXX     -0.7179257092007E+01
 ZXY      0.8581170686615E+00
 ZXZ      0.3960193201402E+02
 ZYY      0.3719671597665E+00
 ZYZ      0.1450365765624E+02
 ZZZ     -0.4065316123896E+02

 dipole-quadrupole imag (Cartesian):
 XXX      0.2891591452555E+00
 XXY     -0.3341978934304E-01
 XXZ     -0.8264401605080E-01
 XYY     -0.3310867901088E-01
 XYZ     -0.1039190433101E-02
 XZZ      0.6090736910534E-01
 YXX     -0.5734864852990E-01
 YXY      0.5704909924553E-01
 YXZ      0.1742641958188E-01
 YYY      0.1053069649181E+00
 YYZ     -0.5286499412376E-01
 YZZ      0.1011280991844E-01
 ZXX     -0.3902086858535E-01
 ZXY     -0.1866075562512E-02
 ZXZ      0.1477783280145E+00
 ZYY      0.9344287743867E-02
 ZYZ      0.6986445060865E-01
 ZZZ     -0.9348460397463E-01

 dipole-quadrupole (traceless):
 XXX      0.7803156263284E+02
 XXY     -0.8864232774622E+01
 XXZ     -0.4263572756936E+02
 XYY     -0.4958519099321E+02
 XYZ      0.1208268613302E+01
 XZZ     -0.2844637163963E+02
 YXX     -0.2654405974129E+02
 YXY      0.3738566367583E+02
 YXZ      0.4600296415890E+01
 YYY      0.2933516491408E+02
 YYZ     -0.3066124172244E+02
 YZZ     -0.2791105172795E+01
 ZXX      0.1296133994759E+02
 ZXY      0.1287175602992E+01
 ZXZ      0.5940289802104E+02
 ZYY      0.2428817632525E+02
 ZYZ      0.2175548648436E+02
 ZZZ     -0.3724951627284E+02

 roa end


 Electric Dipole Response Matrix (nonzero elements):

              1        2        3      
    1   41.3874  -5.1148  -3.0726
    2   -5.1148  43.6564   3.0352
    3   -3.0726   3.0352  41.4909
 
 Imaginary part:

              1        2        3      
    1    0.1139  -0.0295  -0.0116
    2   -0.0295   0.1264   0.0173
    3   -0.0116   0.0173   0.1229

 ------------------------------------------
 average:        42.17824 + I       0.12107


 DFT Linear Response polarizability / au 
 Frequency  =       0.0931960 / au
 Wavelength =     488.8981609 / nm
              X              Y              Z
 -----------------------------------------------
 X      41.3873614     -5.1147584     -3.0725650
 Y      -5.1147584     43.6564359      3.0352413
 Z      -3.0725650      3.0352413     41.4909315
 -----------------------------------------------
 Eigenvalues =      37.1866004     49.9436183     39.4045101
 Isotropic   =      42.1782429
 Anisotropic =       9.6390427
 -----------------------------------------------
 *************************

 DFT Linear Response IMAG polarizability / au 
 Frequency  =       0.0931960 / au
 Wavelength =     488.8981609 / nm
              X              Y              Z
 -----------------------------------------------
 X       0.1138805     -0.0294899     -0.0115918
 Y      -0.0294899      0.1264059      0.0172723
 Z      -0.0115918      0.0172723      0.1229166
 -----------------------------------------------
 Eigenvalues =       0.0898619      0.1614453      0.1118958
 Isotropic   =       0.1210677
 Anisotropic =       0.0518486
 -----------------------------------------------
 *************************

 Magnetic Dipole Response Matrix (nonzero elements):
 Optical rotation tensor Beta
 (Buckingham-Dunn version including dipole-quadrupole terms)

              1        2        3      
    1    2.8477  -0.6438   0.4869
    2   -0.6438  -1.4504  -1.7697
    3    0.4869  -1.7697  -1.2947
 
 Imaginary part:

              1        2        3      
    1    0.0741  -0.1585  -0.0172
    2    0.0634  -0.0475   0.2364
    3    0.1405  -0.4276  -0.0154

 ------------------------------------------
 average:         0.03417 + I       0.00374

 Principal components and PAS (Real part)
                 -3.14681
                  3.08657
                  0.16276
 ------------------------
 average:         0.03417

              1        2        3      
    1    0.0221   0.9586  -0.2840
    2    0.7257  -0.2108  -0.6549
    3    0.6876   0.1917   0.7003

 Chiral response tensor (Real part):

              1        2        3      
    1   -1.3726   0.3219  -0.2434
    2    0.3219   0.7765   0.8848
    3   -0.2434   0.8848   0.6986
 
 Principal components and PAS (Real part)
                  1.62467
                 -1.49203
                 -0.03012
 ------------------------
 average:         0.03417

              1        2        3      
    1    0.0221   0.9586  -0.2840
    2    0.7257  -0.2108  -0.6549
    3    0.6876   0.1917   0.7003
 Exiting AOResponse driver routine

 Task  times  cpu:      544.3s     wall:      557.4s
 
 
                                NWChem Input Module
                                -------------------
 
 
 Summary of allocated global arrays
-----------------------------------
  No active global arrays



                         GA Statistics for process    0
                         ------------------------------

       create   destroy   get      put      acc     scatter   gather  read&inc
calls: 3294     3294     7.58e+06 3.14e+06 7.11e+05 2694        0     1160     
number of processes/call 1.01e+00 1.03e+00 1.43e+00 0.00e+00 0.00e+00
bytes total:             1.69e+09 1.26e+08 1.71e+09 1.84e+02 0.00e+00 9.28e+03
bytes remote:            7.04e+08 3.29e+07 9.68e+08 0.00e+00 0.00e+00 0.00e+00
Max memory consumed for GA by this process: 11242192 bytes
 
MA_summarize_allocated_blocks: starting scan ...
MA_summarize_allocated_blocks: scan completed: 0 heap blocks, 0 stack blocks
MA usage statistics:

	allocation statistics:
					      heap	     stack
					      ----	     -----
	current number of blocks	         0	         0
	maximum number of blocks	        24	        52
	current total bytes		         0	         0
	maximum total bytes		   7519856	  48767272
	maximum total K-bytes		      7520	     48768
	maximum total M-bytes		         8	        49
 
 
                                     CITATION
                                     --------
                Please cite the following reference when publishing
                           results obtained with NWChem:
 
                 M. Valiev, E.J. Bylaska, N. Govind, K. Kowalski,
              T.P. Straatsma, H.J.J. van Dam, D. Wang, J. Nieplocha,
                        E. Apra, T.L. Windus, W.A. de Jong
                 "NWChem: a comprehensive and scalable open-source
                  solution for large scale molecular simulations"
                      Comput. Phys. Commun. 181, 1477 (2010)
                           doi:10.1016/j.cpc.2010.04.018
 
                                      AUTHORS
                                      -------
          E. Apra, E. J. Bylaska, W. A. de Jong, N. Govind, K. Kowalski,
       T. P. Straatsma, M. Valiev, H. J. J. van Dam, D. Wang, T. L. Windus,
        J. Hammond, J. Autschbach, K. Bhaskaran-Nair, J. Brabec, K. Lopata,
    S. A. Fischer, S. Krishnamoorthy, M. Jacquelin, W. Ma, M. Klemm, O. Villa,
      Y. Chen, V. Anisimov, F. Aquino, S. Hirata, M. T. Hackler, V. Konjkov,
            D. Mejia-Rodriguez, T. Risthaus, M. Malagoli, A. Marenich,
   A. Otero-de-la-Roza, J. Mullin, P. Nichols, R. Peverati, J. Pittner, Y. Zhao,
        P.-D. Fan, A. Fonari, M. J. Williamson, R. J. Harrison, J. R. Rehr,
      M. Dupuis, D. Silverstein, D. M. A. Smith, J. Nieplocha, V. Tipparaju,
    M. Krishnan, B. E. Van Kuiken, A. Vazquez-Mayagoitia, L. Jensen, M. Swart,
      Q. Wu, T. Van Voorhis, A. A. Auer, M. Nooijen, L. D. Crosby, E. Brown,
      G. Cisneros, G. I. Fann, H. Fruchtl, J. Garza, K. Hirao, R. A. Kendall,
      J. A. Nichols, K. Tsemekhman, K. Wolinski, J. Anchell, D. E. Bernholdt,
      P. Borowski, T. Clark, D. Clerc, H. Dachsel, M. J. O. Deegan, K. Dyall,
    D. Elwood, E. Glendening, M. Gutowski, A. C. Hess, J. Jaffe, B. G. Johnson,
     J. Ju, R. Kobayashi, R. Kutteh, Z. Lin, R. Littlefield, X. Long, B. Meng,
      T. Nakajima, S. Niu, L. Pollack, M. Rosing, K. Glaesemann, G. Sandrone,
      M. Stave, H. Taylor, G. Thomas, J. H. van Lenthe, A. T. Wong, Z. Zhang.

 Total times  cpu:      610.4s     wall:      624.6s
