 argument  1 = methyloxirane_blyp-def2-tzvp_488.9_46.inp
 


============================== echo of input deck ==============================
echo
start methyloxirane_blyp-def2-tzvp_488.9_46.inp
title "methyloxirane roa calculations at 488.9 nm, input generated in va  with delta_type=2"
charge 0



geometry units angstrom nocenter noautoz noautosym nucleus point;symmetry c1
 O -0.879130 -0.180299  0.205256
 C  0.574314 -0.157695  0.122765
 C -0.185514  1.088411  0.340088
 C  1.187010 -0.518348 -1.211140
 H  1.057571 -0.602922  0.996199
 H -0.228043  1.537874  1.335117
 H -0.325229  1.781868 -0.492445
 H  2.223331 -0.221029 -1.245167
 H  1.141958 -1.627085 -1.377218
 H  0.651481 -0.026108 -2.034333
end

basis spherical
* library def2-TZVP
end

 set prop:newaoresp 1
 set aor:roadata T
 set cphf:maxsub 100
 set cphf:acc 1.0d-10
 set cphf:maxiter 100

property
    response 1   0.093196
    bdtensor
    convergence 1e-7
    damping 0.0037
    giao
end

dft
 direct
 mult 1
 xc becke88 lyp
 iterations 250
 tolerances tight
 grid xfine
 convergence nolevelshifting
 convergence energy 1e-8
 convergence gradient 1e-7


end

task dft gradient
task dft property
================================================================================


                                         
                                         
 
 
              Northwest Computational Chemistry Package (NWChem) 6.8
              ------------------------------------------------------
 
 
                    Environmental Molecular Sciences Laboratory
                       Pacific Northwest National Laboratory
                                Richland, WA 99352
 
                              Copyright (c) 1994-2017
                       Pacific Northwest National Laboratory
                            Battelle Memorial Institute
 
             NWChem is an open-source computational chemistry package
                        distributed under the terms of the
                      Educational Community License (ECL) 2.0
             A copy of the license is included with this distribution
                              in the LICENSE.TXT file
 
                                  ACKNOWLEDGMENT
                                  --------------

            This software and its documentation were developed at the
            EMSL at Pacific Northwest National Laboratory, a multiprogram
            national laboratory, operated for the U.S. Department of Energy
            by Battelle under Contract Number DE-AC05-76RL01830. Support
            for this work was provided by the Department of Energy Office
            of Biological and Environmental Research, Office of Basic
            Energy Sciences, and the Office of Advanced Scientific Computing.


           Job information
           ---------------

    hostname        = cpn-d11-08.cbls.ccr.buffalo.edu
    program         = /util/academic/nwchem/nwchem-6.8/bin/LINUX64/nwchem
    date            = Fri Mar  1 10:50:32 2019

    compiled        = Tue_Nov_06_14:59:08_2018
    source          = /util/academic/nwchem/nwchem-6.8
    nwchem branch   = 6.8
    nwchem revision = v6.8-47-gdf6c956
    ga revision     = ga-5.6.3
    use scalapack   = F
    input           = methyloxirane_blyp-def2-tzvp_488.9_46.inp
    prefix          = methyloxirane_blyp-def2-tzvp_488.9_46.inp.
    data base       = ./methyloxirane_blyp-def2-tzvp_488.9_46.inp.db
    status          = startup
    nproc           =        7
    time left       =     -1s



           Memory information
           ------------------

    heap     =   13107196 doubles =    100.0 Mbytes
    stack    =   13107201 doubles =    100.0 Mbytes
    global   =   26214400 doubles =    200.0 Mbytes (distinct from heap & stack)
    total    =   52428797 doubles =    400.0 Mbytes
    verify   = yes
    hardfail = no 


           Directory information
           ---------------------
 
  0 permanent = .
  0 scratch   = .
 
 
 
 
                                NWChem Input Module
                                -------------------
 
 
                    methyloxirane roa calculations at 488.9 nm, input generated in va  with delta_type=2
                    ------------------------------------------

 Scaling coordinates for geometry "geometry" by  1.889725989
 (inverse scale =  0.529177249)

 
 
                             Geometry "geometry" -> ""
                             -------------------------
 
 Output coordinates in angstroms (scale by  1.889725989 to convert to a.u.)
 
  No.       Tag          Charge          X              Y              Z
 ---- ---------------- ---------- -------------- -------------- --------------
    1 O                    8.0000    -0.87913000    -0.18029900     0.20525600
    2 C                    6.0000     0.57431400    -0.15769500     0.12276500
    3 C                    6.0000    -0.18551400     1.08841100     0.34008800
    4 C                    6.0000     1.18701000    -0.51834800    -1.21114000
    5 H                    1.0000     1.05757100    -0.60292200     0.99619900
    6 H                    1.0000    -0.22804300     1.53787400     1.33511700
    7 H                    1.0000    -0.32522900     1.78186800    -0.49244500
    8 H                    1.0000     2.22333100    -0.22102900    -1.24516700
    9 H                    1.0000     1.14195800    -1.62708500    -1.37721800
   10 H                    1.0000     0.65148100    -0.02610800    -2.03433300
 
      Atomic Mass 
      ----------- 
 
      O                 15.994910
      C                 12.000000
      H                  1.007825
 

 Effective nuclear repulsion energy (a.u.)     123.5350466096

            Nuclear Dipole moment (a.u.) 
            ----------------------------
        X                 Y               Z
 ---------------- ---------------- ----------------
    13.1201577791     3.5421288492   -10.7062822725
 
 
            XYZ format geometry
            -------------------
    10
 geometry
 O                    -0.87913000    -0.18029900     0.20525600
 C                     0.57431400    -0.15769500     0.12276500
 C                    -0.18551400     1.08841100     0.34008800
 C                     1.18701000    -0.51834800    -1.21114000
 H                     1.05757100    -0.60292200     0.99619900
 H                    -0.22804300     1.53787400     1.33511700
 H                    -0.32522900     1.78186800    -0.49244500
 H                     2.22333100    -0.22102900    -1.24516700
 H                     1.14195800    -1.62708500    -1.37721800
 H                     0.65148100    -0.02610800    -2.03433300
 
 ==============================================================================
                                internuclear distances
 ------------------------------------------------------------------------------
       center one      |      center two      | atomic units |  angstroms
 ------------------------------------------------------------------------------
    2 C                |   1 O                |     2.75136  |     1.45596
    3 C                |   1 O                |     2.74428  |     1.45221
    3 C                |   2 C                |     2.78845  |     1.47558
    4 C                |   2 C                |     2.85641  |     1.51155
    5 H                |   2 C                |     2.06547  |     1.09300
    6 H                |   3 C                |     2.06483  |     1.09266
    7 H                |   3 C                |     2.06449  |     1.09248
    8 H                |   4 C                |     2.03838  |     1.07866
    9 H                |   4 C                |     2.12029  |     1.12201
   10 H                |   4 C                |     2.07589  |     1.09852
 ------------------------------------------------------------------------------
                         number of included internuclear distances:         10
 ==============================================================================



 ==============================================================================
                                 internuclear angles
 ------------------------------------------------------------------------------
        center 1       |       center 2       |       center 3       |  degrees
 ------------------------------------------------------------------------------
    2 C                |   1 O                |   3 C                |    60.98
    2 C                |   1 O                |   3 C                |    60.98
    1 O                |   2 C                |   4 C                |   116.80
    1 O                |   2 C                |   5 H                |   112.94
    3 C                |   2 C                |   4 C                |   122.70
    3 C                |   2 C                |   5 H                |   117.00
    4 C                |   2 C                |   5 H                |   115.39
    3 C                |   1 O                |   2 C                |    60.98
    1 O                |   3 C                |   6 H                |   115.17
    1 O                |   3 C                |   7 H                |   115.01
    2 C                |   3 C                |   6 H                |   120.10
    2 C                |   3 C                |   7 H                |   119.32
    6 H                |   3 C                |   7 H                |   115.33
    2 C                |   4 C                |   8 H                |   110.58
    2 C                |   4 C                |   9 H                |   110.49
    2 C                |   4 C                |  10 H                |   110.90
    8 H                |   4 C                |   9 H                |   107.84
    8 H                |   4 C                |  10 H                |   108.74
    9 H                |   4 C                |  10 H                |   108.20
 ------------------------------------------------------------------------------
                            number of included internuclear angles:         19
 ==============================================================================



  warning:::::::::::::: from_environment
  NWCHEM_BASIS_LIBRARY set to: <
 /util/academic/nwchem/nwchem-6.8/src/basis/libraries>
  but file does not exist !
  using .nwchemrc or compiled library


 Summary of "ao basis" -> "" (spherical)
 ------------------------------------------------------------------------------
       Tag                 Description            Shells   Functions and Types
 ---------------- ------------------------------  ------  ---------------------
 *                         def2-TZVP                  on all atoms 


 
                                 NWChem DFT Module
                                 -----------------
 
 
                    methyloxirane roa calculations at 488.9 nm, input generated in va  with delta_type=2
 
 
                      Basis "ao basis" -> "ao basis" (spherical)
                      -----
  O (Oxygen)
  ----------
            Exponent  Coefficients 
       -------------- ---------------------------------------------------------
  1 S  2.70323826E+04  0.000217
  1 S  4.05238714E+03  0.001684
  1 S  9.22327227E+02  0.008740
  1 S  2.61240710E+02  0.035240
  1 S  8.53546414E+01  0.111535
  1 S  3.10350352E+01  0.255890
 
  2 S  1.22608607E+01  0.397687
  2 S  4.99870760E+00  0.246278
 
  3 S  1.17031082E+00  1.000000
 
  4 S  4.64747410E-01  1.000000
 
  5 S  1.85045364E-01  1.000000
 
  6 P  6.32749548E+01  0.006069
  6 P  1.46270494E+01  0.041913
  6 P  4.45012235E+00  0.161538
  6 P  1.52757996E+00  0.357070
 
  7 P  5.29351179E-01  1.000000
 
  8 P  1.74784213E-01  1.000000
 
  9 D  2.31400000E+00  1.000000
 
 10 D  6.45000000E-01  1.000000
 
 11 F  1.42800000E+00  1.000000
 
  C (Carbon)
  ----------
            Exponent  Coefficients 
       -------------- ---------------------------------------------------------
  1 S  1.35753497E+04  0.000222
  1 S  2.03523337E+03  0.001723
  1 S  4.63225624E+02  0.008926
  1 S  1.31200196E+02  0.035728
  1 S  4.28530159E+01  0.110763
  1 S  1.55841858E+01  0.242956
 
  2 S  6.20671385E+00  0.414403
  2 S  2.57648965E+00  0.237450
 
  3 S  5.76963394E-01  1.000000
 
  4 S  2.29728314E-01  1.000000
 
  5 S  9.51644400E-02  1.000000
 
  6 P  3.46972322E+01  0.005333
  6 P  7.95826228E+00  0.035864
  6 P  2.37808269E+00  0.142159
  6 P  8.14332082E-01  0.342705
 
  7 P  2.88875473E-01  1.000000
 
  8 P  1.00568237E-01  1.000000
 
  9 D  1.09700000E+00  1.000000
 
 10 D  3.18000000E-01  1.000000
 
 11 F  7.61000000E-01  1.000000
 
  H (Hydrogen)
  ------------
            Exponent  Coefficients 
       -------------- ---------------------------------------------------------
  1 S  3.40613410E+01  0.006025
  1 S  5.12357460E+00  0.045021
  1 S  1.16466260E+00  0.201897
 
  2 S  3.27230410E-01  1.000000
 
  3 S  1.03072410E-01  1.000000
 
  4 P  8.00000000E-01  1.000000
 


 Summary of "ao basis" -> "ao basis" (spherical)
 ------------------------------------------------------------------------------
       Tag                 Description            Shells   Functions and Types
 ---------------- ------------------------------  ------  ---------------------
 O                         def2-TZVP                11       31   5s3p2d1f
 C                         def2-TZVP                11       31   5s3p2d1f
 H                         def2-TZVP                 4        6   3s1p




 Summary of "ao basis" -> "ao basis" (spherical)
 ------------------------------------------------------------------------------
       Tag                 Description            Shells   Functions and Types
 ---------------- ------------------------------  ------  ---------------------
 O                         def2-TZVP                11       31   5s3p2d1f
 C                         def2-TZVP                11       31   5s3p2d1f
 H                         def2-TZVP                 4        6   3s1p


  Caching 1-el integrals 
  itol2e modified to match energy
  convergence criterion.
  tol_rho modified to match energy
  convergence criterion.
 
            General Information
            -------------------
          SCF calculation type: DFT
          Wavefunction type:  closed shell.
          No. of atoms     :    10
          No. of electrons :    32
           Alpha electrons :    16
            Beta electrons :    16
          Charge           :     0
          Spin multiplicity:     1
          Use of symmetry is: off; symmetry adaption is: off
          Maximum number of iterations: 250
          This is a Direct SCF calculation.
          AO basis - number of functions:   160
                     number of shells:    68
          Convergence on energy requested:  1.00D-08
          Convergence on density requested:  1.00D-05
          Convergence on gradient requested:  1.00D-07
 
              XC Information
              --------------
                    Becke 1988 Exchange Functional  1.000          
              Lee-Yang-Parr Correlation Functional  1.000          
 
             Grid Information
             ----------------
          Grid used for XC integration:  xfine     
          Radial quadrature: Mura-Knowles        
          Angular quadrature: Lebedev. 
          Tag              B.-S. Rad. Rad. Pts. Rad. Cut. Ang. Pts.
          ---              ---------- --------- --------- ---------
          O                   0.60      100          11.0      1454
          C                   0.70      100          11.0      1454
          H                   0.35      100          12.0      1202
          Grid pruning is: on 
          Number of quadrature shells:  1000
          Spatial weights used:  Erf1
 
          Convergence Information
          -----------------------
          Convergence aids based upon iterative change in 
          total energy or number of iterations. 
          Levelshifting, if invoked, occurs when the 
          HOMO/LUMO gap drops below (HL_TOL):  1.00D-02
          DIIS, if invoked, will attempt to extrapolate 
          using up to (NFOCK): 10 stored Fock matrices.

                    Damping( 0%)  Levelshifting(0.0)       DIIS
                  --------------- ------------------- ---------------
          dE  on:    start             N/A                start   
          dE off:    2 iters           N/A              250 iters 

 
      Screening Tolerance Information
      -------------------------------
          Density screening/tol_rho:  1.00D-11
          AO Gaussian exp screening on grid/accAOfunc:  18
          CD Gaussian exp screening on grid/accCDfunc:  20
          XC Gaussian exp screening on grid/accXCfunc:  20
          Schwarz screening/accCoul:  1.00D-09

 
      Superposition of Atomic Density Guess
      -------------------------------------
 
 Sum of atomic energies:        -190.79714706
 
      Non-variational initial energy
      ------------------------------

 Total energy =    -193.161653
 1-e energy   =    -502.029625
 2-e energy   =     185.332925
 HOMO         =      -0.351103
 LUMO         =       0.089816
 
   Time after variat. SCF:      0.7
   Time prior to 1st pass:      0.7

 Grid_pts file          = ./methyloxirane_blyp-def2-tzvp_488.9_46.inp.gridpts.0
 Record size in doubles =  12289        No. of grid_pts per rec  =   3070
 Max. records in memory =     76        Max. recs in file   =    317624


           Memory utilization after 1st SCF pass: 
           Heap Space remaining (MW):       12.17            12167540
          Stack Space remaining (MW):       13.11            13106124

   convergence    iter        energy       DeltaE   RMS-Dens  Diis-err    time
 ---------------- ----- ----------------- --------- --------- ---------  ------
 d= 0,ls=0.0,diis     1   -193.0197978294 -3.17D+02  9.23D-03  1.06D+00     7.0
 d= 0,ls=0.0,diis     2   -192.8591518104  1.61D-01  7.63D-03  2.54D+00    13.1
 d= 0,ls=0.0,diis     3   -193.0764949001 -2.17D-01  1.83D-03  3.88D-01    19.1
 d= 0,ls=0.0,diis     4   -193.1067667315 -3.03D-02  6.83D-04  1.81D-02    25.1
 d= 0,ls=0.0,diis     5   -193.1084253525 -1.66D-03  2.93D-04  2.69D-03    31.3
 d= 0,ls=0.0,diis     6   -193.1087608288 -3.35D-04  2.97D-05  3.49D-05    37.4
 d= 0,ls=0.0,diis     7   -193.1087649520 -4.12D-06  8.64D-06  4.09D-06    43.4
 d= 0,ls=0.0,diis     8   -193.1087654106 -4.59D-07  1.96D-06  2.81D-07    49.4
 d= 0,ls=0.0,diis     9   -193.1087654417 -3.11D-08  6.19D-07  1.33D-08    55.4
 d= 0,ls=0.0,diis    10   -193.1087654432 -1.58D-09  1.61D-07  1.25D-09    61.5


         Total DFT energy =     -193.108765443245
      One electron energy =     -505.685962999043
           Coulomb energy =      216.063176306988
    Exchange-Corr. energy =      -27.021025360763
 Nuclear repulsion energy =      123.535046609573

 Numeric. integr. density =       32.000000004910

     Total iterative time =     60.7s


 
                       DFT Final Molecular Orbital Analysis
                       ------------------------------------
 
 Vector    1  Occ=2.000000D+00  E=-1.877964D+01
              MO Center= -8.8D-01, -1.8D-01,  2.1D-01, r^2= 1.5D-02
   Bfn.  Coefficient  Atom+Function         Bfn.  Coefficient  Atom+Function  
  ----- ------------  ---------------      ----- ------------  ---------------
     2      0.638477   1 O  s                 1      0.435422   1 O  s         
     3      0.039885   1 O  s                 4     -0.033233   1 O  s         
 
 Vector    2  Occ=2.000000D+00  E=-9.963048D+00
              MO Center=  5.7D-01, -1.6D-01,  1.2D-01, r^2= 2.8D-02
   Bfn.  Coefficient  Atom+Function         Bfn.  Coefficient  Atom+Function  
  ----- ------------  ---------------      ----- ------------  ---------------
    33      0.606910   2 C  s                32      0.467261   2 C  s         
    34      0.042501   2 C  s                36      0.037348   2 C  s         
    35     -0.027160   2 C  s         
 
 Vector    3  Occ=2.000000D+00  E=-9.955499D+00
              MO Center= -1.9D-01,  1.1D+00,  3.4D-01, r^2= 2.8D-02
   Bfn.  Coefficient  Atom+Function         Bfn.  Coefficient  Atom+Function  
  ----- ------------  ---------------      ----- ------------  ---------------
    64      0.607024   3 C  s                63      0.467222   3 C  s         
    65      0.039717   3 C  s         
 
 Vector    4  Occ=2.000000D+00  E=-9.908242D+00
              MO Center=  1.2D+00, -5.2D-01, -1.2D+00, r^2= 2.8D-02
   Bfn.  Coefficient  Atom+Function         Bfn.  Coefficient  Atom+Function  
  ----- ------------  ---------------      ----- ------------  ---------------
    95      0.606965   4 C  s                94      0.467216   4 C  s         
    96      0.040628   4 C  s                98      0.035778   4 C  s         
 
 Vector    5  Occ=2.000000D+00  E=-9.623392D-01
              MO Center= -4.7D-01,  5.6D-02,  2.1D-01, r^2= 6.5D-01
   Bfn.  Coefficient  Atom+Function         Bfn.  Coefficient  Atom+Function  
  ----- ------------  ---------------      ----- ------------  ---------------
     4      0.375178   1 O  s                 3      0.277424   1 O  s         
     2     -0.192774   1 O  s                34      0.139826   2 C  s         
    65      0.139173   3 C  s                 5      0.122737   1 O  s         
    35      0.105077   2 C  s                 6      0.093260   1 O  px        
    66      0.093653   3 C  s                69     -0.091361   3 C  py        
 
 Vector    6  Occ=2.000000D+00  E=-6.698454D-01
              MO Center=  9.5D-01, -3.8D-01, -7.7D-01, r^2= 1.5D+00
   Bfn.  Coefficient  Atom+Function         Bfn.  Coefficient  Atom+Function  
  ----- ------------  ---------------      ----- ------------  ---------------
    97      0.284756   4 C  s                96      0.275913   4 C  s         
    35      0.185045   2 C  s                34      0.174823   2 C  s         
    95     -0.173745   4 C  s                 4     -0.148202   1 O  s         
    33     -0.109211   2 C  s                 3     -0.103462   1 O  s         
    94     -0.083251   4 C  s               144      0.074253   8 H  s         
 
 Vector    7  Occ=2.000000D+00  E=-5.897670D-01
              MO Center= -1.3D-01,  7.2D-01,  2.2D-01, r^2= 2.0D+00
   Bfn.  Coefficient  Atom+Function         Bfn.  Coefficient  Atom+Function  
  ----- ------------  ---------------      ----- ------------  ---------------
    66      0.326422   3 C  s                65      0.278532   3 C  s         
     4     -0.237681   1 O  s                64     -0.172151   3 C  s         
     3     -0.167930   1 O  s                 5     -0.147550   1 O  s         
     2      0.110867   1 O  s                38      0.104638   2 C  py        
   132      0.103093   6 H  s                97     -0.100297   4 C  s         
 
 Vector    8  Occ=2.000000D+00  E=-5.302455D-01
              MO Center=  4.2D-01,  1.4D-02, -9.6D-02, r^2= 2.7D+00
   Bfn.  Coefficient  Atom+Function         Bfn.  Coefficient  Atom+Function  
  ----- ------------  ---------------      ----- ------------  ---------------
    35      0.303229   2 C  s                34      0.224986   2 C  s         
    97     -0.155396   4 C  s                66     -0.151956   3 C  s         
    33     -0.138437   2 C  s               126      0.133531   5 H  s         
    96     -0.129022   4 C  s                 6      0.106593   1 O  px        
   125      0.106848   5 H  s                39      0.097810   2 C  pz        
 
 Vector    9  Occ=2.000000D+00  E=-4.478191D-01
              MO Center=  1.2D-01,  2.8D-01,  2.4D-01, r^2= 2.5D+00
   Bfn.  Coefficient  Atom+Function         Bfn.  Coefficient  Atom+Function  
  ----- ------------  ---------------      ----- ------------  ---------------
    70      0.209706   3 C  pz               39      0.155798   2 C  pz        
   132      0.144427   6 H  s                73      0.131783   3 C  pz        
     8      0.127244   1 O  pz              126      0.115756   5 H  s         
     6     -0.111694   1 O  px              131      0.107207   6 H  s         
    37      0.105365   2 C  px               38     -0.105732   2 C  py        
 
 Vector   10  Occ=2.000000D+00  E=-4.138524D-01
              MO Center=  5.5D-02,  2.9D-01, -2.4D-01, r^2= 2.6D+00
   Bfn.  Coefficient  Atom+Function         Bfn.  Coefficient  Atom+Function  
  ----- ------------  ---------------      ----- ------------  ---------------
    69      0.216634   3 C  py              138      0.153728   7 H  s         
   101      0.152407   4 C  pz                6     -0.142200   1 O  px        
    38     -0.141799   2 C  py               37      0.127285   2 C  px        
     7     -0.123085   1 O  py               72      0.122334   3 C  py        
    70     -0.114863   3 C  pz                9     -0.113590   1 O  px        
 
 Vector   11  Occ=2.000000D+00  E=-3.774117D-01
              MO Center=  8.8D-01, -2.8D-01, -7.4D-01, r^2= 2.7D+00
   Bfn.  Coefficient  Atom+Function         Bfn.  Coefficient  Atom+Function  
  ----- ------------  ---------------      ----- ------------  ---------------
    99      0.218423   4 C  px              144      0.184889   8 H  s         
   100      0.148653   4 C  py              102      0.138058   4 C  px        
   150     -0.131788   9 H  s               143      0.130417   8 H  s         
    37      0.123970   2 C  px                7      0.116430   1 O  py        
     6     -0.111497   1 O  px              103      0.099473   4 C  py        
 
 Vector   12  Occ=2.000000D+00  E=-3.540999D-01
              MO Center=  6.3D-01, -4.0D-01, -9.1D-01, r^2= 2.8D+00
   Bfn.  Coefficient  Atom+Function         Bfn.  Coefficient  Atom+Function  
  ----- ------------  ---------------      ----- ------------  ---------------
   100      0.263425   4 C  py              150     -0.194874   9 H  s         
   103      0.173668   4 C  py              156      0.170322  10 H  s         
     7     -0.161907   1 O  py              149     -0.134670   9 H  s         
    10     -0.129255   1 O  py              155      0.120405  10 H  s         
    70      0.108951   3 C  pz              106      0.106995   4 C  py        
 
 Vector   13  Occ=2.000000D+00  E=-3.295229D-01
              MO Center=  3.0D-01,  2.4D-01, -2.2D-01, r^2= 2.7D+00
   Bfn.  Coefficient  Atom+Function         Bfn.  Coefficient  Atom+Function  
  ----- ------------  ---------------      ----- ------------  ---------------
    39      0.208952   2 C  pz              101     -0.187829   4 C  pz        
     7     -0.180934   1 O  py               70     -0.165833   3 C  pz        
   138      0.161609   7 H  s                10     -0.146208   1 O  py        
    42      0.141615   2 C  pz               99      0.136446   4 C  px        
   104     -0.132031   4 C  pz              137      0.108737   7 H  s         
 
 Vector   14  Occ=2.000000D+00  E=-3.218624D-01
              MO Center=  3.9D-01, -3.9D-02, -2.1D-01, r^2= 3.0D+00
   Bfn.  Coefficient  Atom+Function         Bfn.  Coefficient  Atom+Function  
  ----- ------------  ---------------      ----- ------------  ---------------
     7      0.197304   1 O  py              126      0.167197   5 H  s         
    10      0.161989   1 O  py              156      0.154952  10 H  s         
    99     -0.147309   4 C  px                6     -0.144997   1 O  px        
    39      0.143326   2 C  pz              101     -0.130962   4 C  pz        
    37      0.129775   2 C  px              144     -0.122591   8 H  s         
 
 Vector   15  Occ=2.000000D+00  E=-2.631397D-01
              MO Center=  2.3D-02,  1.4D-01,  2.6D-02, r^2= 2.3D+00
   Bfn.  Coefficient  Atom+Function         Bfn.  Coefficient  Atom+Function  
  ----- ------------  ---------------      ----- ------------  ---------------
    68      0.264027   3 C  px               38      0.255853   2 C  py        
     6     -0.235798   1 O  px               41      0.199322   2 C  py        
    71      0.196231   3 C  px                9     -0.184375   1 O  px        
    12     -0.156235   1 O  px              150      0.118110   9 H  s         
   100     -0.112516   4 C  py               67      0.107242   3 C  s         
 
 Vector   16  Occ=2.000000D+00  E=-2.196259D-01
              MO Center= -5.8D-01, -2.5D-02,  2.0D-01, r^2= 1.6D+00
   Bfn.  Coefficient  Atom+Function         Bfn.  Coefficient  Atom+Function  
  ----- ------------  ---------------      ----- ------------  ---------------
     8      0.449255   1 O  pz               11      0.357786   1 O  pz        
    14      0.296345   1 O  pz              133     -0.131186   6 H  s         
   139      0.116633   7 H  s               132     -0.103993   6 H  s         
   138      0.103937   7 H  s               145     -0.104369   8 H  s         
   126     -0.096591   5 H  s                98      0.095285   4 C  s         
 
 Vector   17  Occ=0.000000D+00  E= 2.532778D-02
              MO Center=  1.2D+00, -1.3D-01, -6.3D-01, r^2= 7.3D+00
   Bfn.  Coefficient  Atom+Function         Bfn.  Coefficient  Atom+Function  
  ----- ------------  ---------------      ----- ------------  ---------------
    98      4.471887   4 C  s               151     -1.519557   9 H  s         
   145     -1.498757   8 H  s               157     -1.344209  10 H  s         
   127     -1.217870   5 H  s                45      1.121991   2 C  pz        
   139     -0.891509   7 H  s                67      0.768394   3 C  s         
   133     -0.617812   6 H  s                75      0.310196   3 C  py        
 
 Vector   18  Occ=0.000000D+00  E= 4.254507D-02
              MO Center= -1.3D-01,  6.6D-01,  1.1D-01, r^2= 4.4D+00
   Bfn.  Coefficient  Atom+Function         Bfn.  Coefficient  Atom+Function  
  ----- ------------  ---------------      ----- ------------  ---------------
    36      2.014831   2 C  s                98     -1.995533   4 C  s         
     5     -1.238593   1 O  s                74     -0.963342   3 C  px        
   151      0.806089   9 H  s                67     -0.506057   3 C  s         
    45     -0.455003   2 C  pz               44      0.437783   2 C  py        
    13     -0.434438   1 O  py              157      0.390594  10 H  s         
 
 Vector   19  Occ=0.000000D+00  E= 5.036279D-02
              MO Center=  5.2D-01,  2.0D-01,  1.5D-02, r^2= 6.8D+00
   Bfn.  Coefficient  Atom+Function         Bfn.  Coefficient  Atom+Function  
  ----- ------------  ---------------      ----- ------------  ---------------
    36      2.820746   2 C  s               127     -2.113429   5 H  s         
    67     -1.659887   3 C  s                98     -1.426298   4 C  s         
   139      1.402582   7 H  s               157      1.113971  10 H  s         
    76      0.659694   3 C  pz               43      0.635981   2 C  px        
     5      0.454236   1 O  s               133     -0.427843   6 H  s         
 
 Vector   20  Occ=0.000000D+00  E= 5.172288D-02
              MO Center=  4.5D-01,  8.1D-01,  3.2D-01, r^2= 7.5D+00
   Bfn.  Coefficient  Atom+Function         Bfn.  Coefficient  Atom+Function  
  ----- ------------  ---------------      ----- ------------  ---------------
    67      3.479251   3 C  s                98     -3.241579   4 C  s         
   133     -1.849225   6 H  s               145      1.275816   8 H  s         
    44     -1.166405   2 C  py              139     -0.858021   7 H  s         
   157      0.805886  10 H  s               151      0.778132   9 H  s         
    45     -0.619205   2 C  pz               43      0.478374   2 C  px        
 
 Vector   21  Occ=0.000000D+00  E= 6.391847D-02
              MO Center=  2.5D-01,  1.3D-01, -2.1D-01, r^2= 4.7D+00
   Bfn.  Coefficient  Atom+Function         Bfn.  Coefficient  Atom+Function  
  ----- ------------  ---------------      ----- ------------  ---------------
   139      1.257617   7 H  s                 5     -0.916729   1 O  s         
   151     -0.882200   9 H  s                67     -0.869708   3 C  s         
    43     -0.803761   2 C  px               98      0.799983   4 C  s         
    75     -0.617650   3 C  py              133      0.512376   6 H  s         
    12     -0.487399   1 O  px               35      0.383097   2 C  s         
 
 Vector   22  Occ=0.000000D+00  E= 8.720522D-02
              MO Center=  1.1D+00,  2.8D-01, -3.7D-01, r^2= 7.4D+00
   Bfn.  Coefficient  Atom+Function         Bfn.  Coefficient  Atom+Function  
  ----- ------------  ---------------      ----- ------------  ---------------
    36      3.352282   2 C  s               145      1.828506   8 H  s         
    67     -1.479602   3 C  s                98     -1.451929   4 C  s         
   127     -1.421984   5 H  s               133      1.316654   6 H  s         
   157     -1.262256  10 H  s               107     -1.250775   4 C  pz        
    75      0.818648   3 C  py              105     -0.789240   4 C  px        
 
 Vector   23  Occ=0.000000D+00  E= 9.073543D-02
              MO Center=  1.4D+00, -8.1D-01, -7.1D-01, r^2= 5.7D+00
   Bfn.  Coefficient  Atom+Function         Bfn.  Coefficient  Atom+Function  
  ----- ------------  ---------------      ----- ------------  ---------------
   151     -2.092372   9 H  s               145      1.972019   8 H  s         
    36     -1.653286   2 C  s               106     -1.354781   4 C  py        
   105     -1.103063   4 C  px               44      0.678428   2 C  py        
   127      0.669380   5 H  s                67      0.663410   3 C  s         
   133     -0.563943   6 H  s                43      0.515147   2 C  px        
 
 Vector   24  Occ=0.000000D+00  E= 1.018937D-01
              MO Center=  4.2D-01,  5.9D-01, -1.0D+00, r^2= 6.7D+00
   Bfn.  Coefficient  Atom+Function         Bfn.  Coefficient  Atom+Function  
  ----- ------------  ---------------      ----- ------------  ---------------
   157      2.040162  10 H  s                98     -1.681157   4 C  s         
   133      1.649822   6 H  s                36      1.587635   2 C  s         
   139     -1.533069   7 H  s               106     -1.265469   4 C  py        
   105      1.202428   4 C  px               76     -1.154227   3 C  pz        
   151     -1.015796   9 H  s                45     -0.616302   2 C  pz        
 
 Vector   25  Occ=0.000000D+00  E= 1.388985D-01
              MO Center=  8.0D-01,  2.0D-01, -4.4D-01, r^2= 7.9D+00
   Bfn.  Coefficient  Atom+Function         Bfn.  Coefficient  Atom+Function  
  ----- ------------  ---------------      ----- ------------  ---------------
    36      4.672672   2 C  s                98     -3.535282   4 C  s         
    45     -3.431331   2 C  pz               67     -2.802019   3 C  s         
   127      2.752404   5 H  s                76      2.184393   3 C  pz        
   105      2.141333   4 C  px              133     -1.801095   6 H  s         
   139      1.704298   7 H  s               107     -1.562104   4 C  pz        
 
 Vector   26  Occ=0.000000D+00  E= 1.704124D-01
              MO Center=  4.3D-01,  5.4D-01, -1.2D-01, r^2= 7.3D+00
   Bfn.  Coefficient  Atom+Function         Bfn.  Coefficient  Atom+Function  
  ----- ------------  ---------------      ----- ------------  ---------------
    75      2.319984   3 C  py              107      1.610812   4 C  pz        
    36      1.519022   2 C  s                67     -1.493428   3 C  s         
   139     -1.206463   7 H  s               157      1.061445  10 H  s         
    74     -0.974367   3 C  px               44      0.703734   2 C  py        
    43     -0.591043   2 C  px              106     -0.551750   4 C  py        
 
 Vector   27  Occ=0.000000D+00  E= 1.975297D-01
              MO Center=  7.5D-01, -1.2D-01, -9.9D-01, r^2= 5.1D+00
   Bfn.  Coefficient  Atom+Function         Bfn.  Coefficient  Atom+Function  
  ----- ------------  ---------------      ----- ------------  ---------------
    67      3.039088   3 C  s                44     -2.582334   2 C  py        
    36     -2.085355   2 C  s               106      1.875506   4 C  py        
    43      0.965937   2 C  px              105      0.885936   4 C  px        
    74      0.794795   3 C  px               45     -0.732412   2 C  pz        
    75     -0.723437   3 C  py              145     -0.701453   8 H  s         
 
 Vector   28  Occ=0.000000D+00  E= 2.019402D-01
              MO Center=  1.0D+00, -4.3D-01, -6.9D-01, r^2= 6.6D+00
   Bfn.  Coefficient  Atom+Function         Bfn.  Coefficient  Atom+Function  
  ----- ------------  ---------------      ----- ------------  ---------------
    36      2.367691   2 C  s                75      1.579051   3 C  py        
   105     -1.359257   4 C  px              133     -1.263970   6 H  s         
   106      1.053696   4 C  py              107     -0.984060   4 C  pz        
   139     -0.716583   7 H  s               156     -0.717138  10 H  s         
    76      0.707048   3 C  pz               45      0.657320   2 C  pz        
 
 Vector   29  Occ=0.000000D+00  E= 2.362171D-01
              MO Center= -2.8D-01,  3.7D-01, -7.3D-02, r^2= 5.5D+00
   Bfn.  Coefficient  Atom+Function         Bfn.  Coefficient  Atom+Function  
  ----- ------------  ---------------      ----- ------------  ---------------
    67      4.405008   3 C  s                36     -3.119974   2 C  s         
    98      1.545239   4 C  s               139     -1.546228   7 H  s         
    66     -1.435592   3 C  s               133     -1.249577   6 H  s         
   107      1.024859   4 C  pz               74     -0.800516   3 C  px        
   106      0.749515   4 C  py                5     -0.745374   1 O  s         
 
 Vector   30  Occ=0.000000D+00  E= 2.475143D-01
              MO Center=  5.3D-01,  3.7D-02, -7.4D-02, r^2= 5.9D+00
   Bfn.  Coefficient  Atom+Function         Bfn.  Coefficient  Atom+Function  
  ----- ------------  ---------------      ----- ------------  ---------------
    67      6.061741   3 C  s                43      4.188776   2 C  px        
    75     -3.020647   3 C  py               44     -2.603086   2 C  py        
    36     -2.181412   2 C  s               107     -2.033365   4 C  pz        
   157     -1.809427  10 H  s                45     -1.491852   2 C  pz        
    98     -1.453371   4 C  s               105     -1.180444   4 C  px        
 
 Vector   31  Occ=0.000000D+00  E= 2.687386D-01
              MO Center=  2.5D-01, -1.9D-01,  2.5D-01, r^2= 5.6D+00
   Bfn.  Coefficient  Atom+Function         Bfn.  Coefficient  Atom+Function  
  ----- ------------  ---------------      ----- ------------  ---------------
    36      4.430705   2 C  s                 5     -2.301443   1 O  s         
    67      2.169527   3 C  s                43     -1.617470   2 C  px        
   105      1.563314   4 C  px               66     -1.175440   3 C  s         
    98     -1.146915   4 C  s               139     -0.920082   7 H  s         
   133     -0.912982   6 H  s               127     -0.855812   5 H  s         
 
 Vector   32  Occ=0.000000D+00  E= 2.779583D-01
              MO Center=  4.4D-01,  3.6D-01,  3.0D-01, r^2= 4.2D+00
   Bfn.  Coefficient  Atom+Function         Bfn.  Coefficient  Atom+Function  
  ----- ------------  ---------------      ----- ------------  ---------------
    36      2.298824   2 C  s                67     -1.728651   3 C  s         
     5     -1.630556   1 O  s                43     -1.191746   2 C  px        
    74     -0.734901   3 C  px               98     -0.628607   4 C  s         
    45     -0.623362   2 C  pz              145      0.625287   8 H  s         
     4      0.486004   1 O  s                66      0.450767   3 C  s         
 
 Vector   33  Occ=0.000000D+00  E= 3.009371D-01
              MO Center=  4.4D-01,  3.6D-01, -3.9D-01, r^2= 5.0D+00
   Bfn.  Coefficient  Atom+Function         Bfn.  Coefficient  Atom+Function  
  ----- ------------  ---------------      ----- ------------  ---------------
    43      1.863616   2 C  px              106      1.751375   4 C  py        
   151      1.634338   9 H  s                98     -1.565191   4 C  s         
    76      1.359533   3 C  pz               36     -1.259181   2 C  s         
    44     -1.225238   2 C  py               66      1.034440   3 C  s         
   107     -1.007091   4 C  pz              139      0.963142   7 H  s         
 
 Vector   34  Occ=0.000000D+00  E= 3.375272D-01
              MO Center=  1.1D-01,  4.2D-01, -4.2D-01, r^2= 5.8D+00
   Bfn.  Coefficient  Atom+Function         Bfn.  Coefficient  Atom+Function  
  ----- ------------  ---------------      ----- ------------  ---------------
    67      4.492997   3 C  s                76     -3.945939   3 C  pz        
   139     -3.156502   7 H  s                36     -2.258233   2 C  s         
   133      2.004349   6 H  s               107     -1.782956   4 C  pz        
   157     -1.779725  10 H  s                98      1.678134   4 C  s         
    43      1.360687   2 C  px               44     -1.094566   2 C  py        
 
 Vector   35  Occ=0.000000D+00  E= 3.638237D-01
              MO Center=  6.8D-01,  6.4D-05, -3.0D-01, r^2= 6.8D+00
   Bfn.  Coefficient  Atom+Function         Bfn.  Coefficient  Atom+Function  
  ----- ------------  ---------------      ----- ------------  ---------------
    98      7.647142   4 C  s                76      3.436709   3 C  pz        
   145     -3.203610   8 H  s                97     -3.127574   4 C  s         
   133     -2.400974   6 H  s               151     -1.895827   9 H  s         
   139      1.799688   7 H  s                67     -1.773808   3 C  s         
    44      1.676616   2 C  py               36      1.610826   2 C  s         
 
 Vector   36  Occ=0.000000D+00  E= 3.723784D-01
              MO Center=  5.4D-01,  2.2D-01, -9.4D-02, r^2= 6.4D+00
   Bfn.  Coefficient  Atom+Function         Bfn.  Coefficient  Atom+Function  
  ----- ------------  ---------------      ----- ------------  ---------------
    36     12.747205   2 C  s                98     -8.961511   4 C  s         
    67     -8.289497   3 C  s               127     -3.108139   5 H  s         
    97      2.520095   4 C  s               157      2.320314  10 H  s         
    44      1.913175   2 C  py               35     -1.859576   2 C  s         
   151      1.728536   9 H  s                74     -1.594546   3 C  px        
 
 Vector   37  Occ=0.000000D+00  E= 3.842479D-01
              MO Center=  9.2D-01, -4.3D-01, -1.6D-01, r^2= 6.1D+00
   Bfn.  Coefficient  Atom+Function         Bfn.  Coefficient  Atom+Function  
  ----- ------------  ---------------      ----- ------------  ---------------
    36      6.200572   2 C  s                98      4.508136   4 C  s         
   127     -4.092204   5 H  s                67     -3.042300   3 C  s         
    45      2.961176   2 C  pz              151     -2.451478   9 H  s         
    35     -2.200822   2 C  s               145     -1.981555   8 H  s         
    76     -1.932469   3 C  pz              133      1.713478   6 H  s         
 
 Vector   38  Occ=0.000000D+00  E= 3.945982D-01
              MO Center=  2.4D-01,  1.3D-01, -1.5D-01, r^2= 6.5D+00
   Bfn.  Coefficient  Atom+Function         Bfn.  Coefficient  Atom+Function  
  ----- ------------  ---------------      ----- ------------  ---------------
    98     12.399521   4 C  s                67     -6.259879   3 C  s         
    45      5.243196   2 C  pz               76     -2.904454   3 C  pz        
   157     -2.748132  10 H  s                44      2.555960   2 C  py        
   133      2.525182   6 H  s                36     -2.079229   2 C  s         
    43     -2.042449   2 C  px               75      1.861054   3 C  py        
 
 Vector   39  Occ=0.000000D+00  E= 4.015834D-01
              MO Center= -3.0D-01,  1.5D-01,  2.1D-01, r^2= 6.4D+00
   Bfn.  Coefficient  Atom+Function         Bfn.  Coefficient  Atom+Function  
  ----- ------------  ---------------      ----- ------------  ---------------
    67    -11.903765   3 C  s                36     11.474064   2 C  s         
    98     -5.304754   4 C  s                45     -5.275955   2 C  pz        
    44      3.852017   2 C  py              127      3.062760   5 H  s         
    66      2.677689   3 C  s               139      2.513358   7 H  s         
    43     -2.443696   2 C  px              105      2.262990   4 C  px        
 
 Vector   40  Occ=0.000000D+00  E= 4.149665D-01
              MO Center=  9.4D-01, -4.8D-01, -8.9D-01, r^2= 5.6D+00
   Bfn.  Coefficient  Atom+Function         Bfn.  Coefficient  Atom+Function  
  ----- ------------  ---------------      ----- ------------  ---------------
    36      5.356996   2 C  s                98     -5.221330   4 C  s         
    45     -2.732986   2 C  pz              105      2.706746   4 C  px        
   145     -2.416817   8 H  s               151      2.318416   9 H  s         
    67     -1.811898   3 C  s               157      1.401722  10 H  s         
    35     -1.338775   2 C  s               144      0.980773   8 H  s         
 
 Vector   41  Occ=0.000000D+00  E= 4.247062D-01
              MO Center=  3.2D-01,  3.6D-01, -7.5D-02, r^2= 6.5D+00
   Bfn.  Coefficient  Atom+Function         Bfn.  Coefficient  Atom+Function  
  ----- ------------  ---------------      ----- ------------  ---------------
    36      8.143838   2 C  s                67     -4.902297   3 C  s         
    44      2.566767   2 C  py               75      2.480289   3 C  py        
   151      1.735284   9 H  s                98     -1.630397   4 C  s         
    43     -1.621631   2 C  px               74     -1.422855   3 C  px        
   132      1.383178   6 H  s               133     -1.152307   6 H  s         
 
 Vector   42  Occ=0.000000D+00  E= 4.475395D-01
              MO Center=  1.5D-01,  1.0D-02, -1.1D-01, r^2= 6.3D+00
   Bfn.  Coefficient  Atom+Function         Bfn.  Coefficient  Atom+Function  
  ----- ------------  ---------------      ----- ------------  ---------------
    36     10.015028   2 C  s                98     -9.733106   4 C  s         
    45     -5.635547   2 C  pz              127      3.084902   5 H  s         
    67     -2.965470   3 C  s                76      2.607831   3 C  pz        
    44      2.477986   2 C  py              157      2.444104  10 H  s         
   133     -2.237903   6 H  s                75      2.077078   3 C  py        
 
 Vector   43  Occ=0.000000D+00  E= 4.595411D-01
              MO Center=  9.1D-02,  7.8D-01, -5.2D-01, r^2= 5.2D+00
   Bfn.  Coefficient  Atom+Function         Bfn.  Coefficient  Atom+Function  
  ----- ------------  ---------------      ----- ------------  ---------------
   139      3.242691   7 H  s               107     -2.299467   4 C  pz        
   157     -2.308959  10 H  s                75     -2.100102   3 C  py        
    45     -1.903510   2 C  pz               43      1.566125   2 C  px        
    44     -1.486046   2 C  py              138     -1.431490   7 H  s         
    76      1.206989   3 C  pz               98     -1.055330   4 C  s         
 
 Vector   44  Occ=0.000000D+00  E= 4.707795D-01
              MO Center=  4.9D-01,  2.0D-01, -4.0D-02, r^2= 5.7D+00
   Bfn.  Coefficient  Atom+Function         Bfn.  Coefficient  Atom+Function  
  ----- ------------  ---------------      ----- ------------  ---------------
    98      5.982514   4 C  s                36     -5.383630   2 C  s         
    45      2.587479   2 C  pz              145     -2.062224   8 H  s         
   107      1.758060   4 C  pz               67      1.538487   3 C  s         
   133     -1.386361   6 H  s                35      1.314570   2 C  s         
   132      1.104506   6 H  s               126     -1.020981   5 H  s         
 
 Vector   45  Occ=0.000000D+00  E= 5.086019D-01
              MO Center=  9.7D-01, -3.8D-01, -9.6D-01, r^2= 4.7D+00
   Bfn.  Coefficient  Atom+Function         Bfn.  Coefficient  Atom+Function  
  ----- ------------  ---------------      ----- ------------  ---------------
    98     11.591554   4 C  s                36     -7.592451   2 C  s         
    45      4.681189   2 C  pz              107      3.081065   4 C  pz        
   144     -1.482720   8 H  s               156     -1.250975  10 H  s         
   105     -1.203296   4 C  px              127     -1.198963   5 H  s         
   106      1.174042   4 C  py              150     -1.010356   9 H  s         
 
 Vector   46  Occ=0.000000D+00  E= 5.360374D-01
              MO Center=  4.8D-02, -3.9D-01, -4.6D-01, r^2= 4.3D+00
   Bfn.  Coefficient  Atom+Function         Bfn.  Coefficient  Atom+Function  
  ----- ------------  ---------------      ----- ------------  ---------------
    98     -6.685951   4 C  s                36      6.479730   2 C  s         
    45     -3.441302   2 C  pz               76      3.246234   3 C  pz        
   133     -1.817258   6 H  s               105      1.475303   4 C  px        
   139      1.453343   7 H  s               107     -1.347344   4 C  pz        
    14     -1.205443   1 O  pz                5     -1.089972   1 O  s         
 
 Vector   47  Occ=0.000000D+00  E= 6.579162D-01
              MO Center= -3.8D-01,  3.5D-02, -2.0D-02, r^2= 4.3D+00
   Bfn.  Coefficient  Atom+Function         Bfn.  Coefficient  Atom+Function  
  ----- ------------  ---------------      ----- ------------  ---------------
    36     11.631655   2 C  s                67     -8.988848   3 C  s         
    98     -4.047358   4 C  s                43     -2.606804   2 C  px        
    75      2.436806   3 C  py               13      2.226555   1 O  py        
    76      2.060447   3 C  pz              105      1.607594   4 C  px        
   139      1.517494   7 H  s                44      1.480480   2 C  py        
 
 Vector   48  Occ=0.000000D+00  E= 6.744436D-01
              MO Center= -2.8D-01,  3.5D-01,  1.2D-01, r^2= 3.9D+00
   Bfn.  Coefficient  Atom+Function         Bfn.  Coefficient  Atom+Function  
  ----- ------------  ---------------      ----- ------------  ---------------
    36      8.015950   2 C  s                67     -7.813542   3 C  s         
     5      3.011983   1 O  s                75      2.553738   3 C  py        
    13      2.098231   1 O  py               98     -2.101924   4 C  s         
    43     -1.218571   2 C  px               45     -1.224043   2 C  pz        
     4     -1.113211   1 O  s                44      0.946362   2 C  py        
 
 Vector   49  Occ=0.000000D+00  E= 7.071028D-01
              MO Center=  1.7D-01, -3.2D-01, -2.7D-01, r^2= 4.5D+00
   Bfn.  Coefficient  Atom+Function         Bfn.  Coefficient  Atom+Function  
  ----- ------------  ---------------      ----- ------------  ---------------
    67      9.483412   3 C  s                36     -7.414124   2 C  s         
    43      3.637891   2 C  px               44     -3.470807   2 C  py        
    75     -2.751703   3 C  py               98     -2.384065   4 C  s         
     5      2.267440   1 O  s                12      1.694603   1 O  px        
   106      1.646875   4 C  py               13     -1.317446   1 O  py        
 
 Vector   50  Occ=0.000000D+00  E= 7.616425D-01
              MO Center=  6.3D-01, -8.3D-03, -3.3D-01, r^2= 4.1D+00
   Bfn.  Coefficient  Atom+Function         Bfn.  Coefficient  Atom+Function  
  ----- ------------  ---------------      ----- ------------  ---------------
    45      2.397966   2 C  pz              127     -1.704776   5 H  s         
   105     -1.634642   4 C  px                5     -1.479273   1 O  s         
    43      1.482488   2 C  px               36      1.439809   2 C  s         
   126     -1.357295   5 H  s               144      1.342449   8 H  s         
    76     -1.007116   3 C  pz               66      0.990822   3 C  s         
 
 Vector   51  Occ=0.000000D+00  E= 7.944502D-01
              MO Center=  2.8D-01,  5.7D-02, -1.9D-01, r^2= 4.4D+00
   Bfn.  Coefficient  Atom+Function         Bfn.  Coefficient  Atom+Function  
  ----- ------------  ---------------      ----- ------------  ---------------
     5      4.097377   1 O  s                36     -2.779999   2 C  s         
    76     -2.548328   3 C  pz                4     -1.597347   1 O  s         
    45      1.594101   2 C  pz               12      1.345155   1 O  px        
   133      1.340629   6 H  s                43      1.236932   2 C  px        
    35     -1.032781   2 C  s                66     -1.035683   3 C  s         
 
 Vector   52  Occ=0.000000D+00  E= 8.320456D-01
              MO Center=  3.3D-01,  1.6D-01, -7.8D-03, r^2= 4.4D+00
   Bfn.  Coefficient  Atom+Function         Bfn.  Coefficient  Atom+Function  
  ----- ------------  ---------------      ----- ------------  ---------------
    36      6.637231   2 C  s                98     -4.073928   4 C  s         
     5     -3.930821   1 O  s                43     -2.594278   2 C  px        
   105      1.961349   4 C  px               35     -1.847054   2 C  s         
    45     -1.786418   2 C  pz               44      1.496487   2 C  py        
    66     -1.188193   3 C  s                97      1.115281   4 C  s         
 
 Vector   53  Occ=0.000000D+00  E= 8.543578D-01
              MO Center=  6.0D-01,  1.3D-01, -3.9D-01, r^2= 4.2D+00
   Bfn.  Coefficient  Atom+Function         Bfn.  Coefficient  Atom+Function  
  ----- ------------  ---------------      ----- ------------  ---------------
    98     -4.699413   4 C  s                36      4.604318   2 C  s         
    45     -4.581054   2 C  pz               76      2.045677   3 C  pz        
   127      1.802196   5 H  s               106     -1.548369   4 C  py        
    44      1.460574   2 C  py              105      1.368102   4 C  px        
   150     -1.136418   9 H  s               139      1.076235   7 H  s         
 
 Vector   54  Occ=0.000000D+00  E= 8.716784D-01
              MO Center=  1.8D-01, -3.8D-02, -1.1D-01, r^2= 4.2D+00
   Bfn.  Coefficient  Atom+Function         Bfn.  Coefficient  Atom+Function  
  ----- ------------  ---------------      ----- ------------  ---------------
     5      4.618007   1 O  s                36     -1.719336   2 C  s         
     4     -1.565321   1 O  s               138      1.432496   7 H  s         
    76      1.349444   3 C  pz               67     -1.228634   3 C  s         
    12      1.192588   1 O  px               66     -1.150099   3 C  s         
    98     -0.967492   4 C  s                43      0.874806   2 C  px        
 
 Vector   55  Occ=0.000000D+00  E= 9.201991D-01
              MO Center=  5.0D-01,  3.1D-01, -4.8D-01, r^2= 4.6D+00
   Bfn.  Coefficient  Atom+Function         Bfn.  Coefficient  Atom+Function  
  ----- ------------  ---------------      ----- ------------  ---------------
    35      4.938636   2 C  s                36     -1.704771   2 C  s         
    67      1.448654   3 C  s               132     -1.345676   6 H  s         
    72      1.287276   3 C  py               66     -1.261653   3 C  s         
    84      1.167683   3 C  d  0            156     -1.161072  10 H  s         
    41      1.149645   2 C  py              116     -1.081703   4 C  d  1      
 
 Vector   56  Occ=0.000000D+00  E= 9.611516D-01
              MO Center=  4.6D-01,  3.0D-01, -5.3D-01, r^2= 4.7D+00
   Bfn.  Coefficient  Atom+Function         Bfn.  Coefficient  Atom+Function  
  ----- ------------  ---------------      ----- ------------  ---------------
    35      4.216312   2 C  s                67      2.569636   3 C  s         
   138     -2.368595   7 H  s                76     -1.806898   3 C  pz        
    42     -1.750602   2 C  pz               83     -1.655132   3 C  d -1      
    36     -1.473953   2 C  s               115     -1.462150   4 C  d  0      
    98     -1.448021   4 C  s               132      1.362189   6 H  s         
 
 Vector   57  Occ=0.000000D+00  E= 9.920852D-01
              MO Center=  3.3D-01,  4.9D-01, -1.2D-01, r^2= 4.1D+00
   Bfn.  Coefficient  Atom+Function         Bfn.  Coefficient  Atom+Function  
  ----- ------------  ---------------      ----- ------------  ---------------
    36      7.394297   2 C  s                98     -4.810114   4 C  s         
    67     -3.899239   3 C  s                45     -3.735125   2 C  pz        
    43     -2.310269   2 C  px               44      2.130119   2 C  py        
    66     -1.608383   3 C  s               127      1.573174   5 H  s         
    75      1.442914   3 C  py              126      1.345464   5 H  s         
 
 Vector   58  Occ=0.000000D+00  E= 1.011617D+00
              MO Center=  3.9D-01,  5.3D-01, -6.1D-02, r^2= 4.3D+00
   Bfn.  Coefficient  Atom+Function         Bfn.  Coefficient  Atom+Function  
  ----- ------------  ---------------      ----- ------------  ---------------
    36      5.506232   2 C  s                67     -4.488075   3 C  s         
    45     -2.175256   2 C  pz               44      1.868387   2 C  py        
    98     -1.754986   4 C  s               156     -1.475456  10 H  s         
   144      1.442587   8 H  s                43     -1.339728   2 C  px        
    82      1.339026   3 C  d -2             74     -1.322245   3 C  px        
 
 Vector   59  Occ=0.000000D+00  E= 1.041910D+00
              MO Center=  7.1D-01, -1.7D-01, -4.7D-01, r^2= 4.2D+00
   Bfn.  Coefficient  Atom+Function         Bfn.  Coefficient  Atom+Function  
  ----- ------------  ---------------      ----- ------------  ---------------
    36      2.802434   2 C  s                35      2.652637   2 C  s         
    66     -2.271001   3 C  s               144     -2.025193   8 H  s         
     5     -1.918048   1 O  s               150      1.840872   9 H  s         
   117      1.718881   4 C  d  2             41      1.487106   2 C  py        
    67     -1.402262   3 C  s                44      1.386320   2 C  py        
 
 Vector   60  Occ=0.000000D+00  E= 1.078634D+00
              MO Center=  6.7D-01,  2.2D-02, -6.6D-02, r^2= 4.1D+00
   Bfn.  Coefficient  Atom+Function         Bfn.  Coefficient  Atom+Function  
  ----- ------------  ---------------      ----- ------------  ---------------
    98     -4.126245   4 C  s                66      4.075791   3 C  s         
    45     -3.793621   2 C  pz               97     -3.704597   4 C  s         
    36      3.451633   2 C  s                41     -2.587439   2 C  py        
   104     -2.535201   4 C  pz               42     -2.366176   2 C  pz        
    72     -2.370076   3 C  py               53      2.247877   2 C  d  0      
 
 Vector   61  Occ=0.000000D+00  E= 1.105716D+00
              MO Center=  3.6D-01,  6.9D-02,  6.7D-02, r^2= 3.8D+00
   Bfn.  Coefficient  Atom+Function         Bfn.  Coefficient  Atom+Function  
  ----- ------------  ---------------      ----- ------------  ---------------
    36      7.515208   2 C  s                67     -5.303789   3 C  s         
    98     -2.956646   4 C  s                66      2.138041   3 C  s         
   126     -2.051774   5 H  s                45     -1.892659   2 C  pz        
   132      1.689034   6 H  s                72     -1.592581   3 C  py        
    41     -1.474531   2 C  py               53      1.438669   2 C  d  0      
 
 Vector   62  Occ=0.000000D+00  E= 1.147578D+00
              MO Center=  6.3D-01,  2.6D-03, -3.7D-02, r^2= 3.5D+00
   Bfn.  Coefficient  Atom+Function         Bfn.  Coefficient  Atom+Function  
  ----- ------------  ---------------      ----- ------------  ---------------
    67      5.131252   3 C  s                36     -3.896943   2 C  s         
    44     -2.389774   2 C  py              126      1.810214   5 H  s         
    97     -1.749470   4 C  s                54      1.568541   2 C  d  1      
    43      1.554288   2 C  px               55      1.493364   2 C  d  2      
    42     -1.432202   2 C  pz               75     -1.430553   3 C  py        
 
 Vector   63  Occ=0.000000D+00  E= 1.214553D+00
              MO Center=  5.5D-01,  2.1D-01, -1.4D-01, r^2= 3.8D+00
   Bfn.  Coefficient  Atom+Function         Bfn.  Coefficient  Atom+Function  
  ----- ------------  ---------------      ----- ------------  ---------------
    36      6.820182   2 C  s                66     -5.005467   3 C  s         
    97     -3.443299   4 C  s                67     -3.344144   3 C  s         
    35      3.155042   2 C  s                72      1.913298   3 C  py        
    51     -1.762889   2 C  d -2             52      1.685624   2 C  d -1      
   138      1.676871   7 H  s                41      1.496855   2 C  py        
 
 Vector   64  Occ=0.000000D+00  E= 1.348315D+00
              MO Center=  3.4D-01,  5.4D-01,  2.2D-01, r^2= 3.6D+00
   Bfn.  Coefficient  Atom+Function         Bfn.  Coefficient  Atom+Function  
  ----- ------------  ---------------      ----- ------------  ---------------
    66      4.709758   3 C  s                35      3.900616   2 C  s         
    67     -3.100158   3 C  s                36     -2.753994   2 C  s         
    65     -2.409660   3 C  s               132     -2.069652   6 H  s         
    34     -1.440361   2 C  s               133      1.435679   6 H  s         
    72      1.365605   3 C  py              139      1.075020   7 H  s         
 
 Vector   65  Occ=0.000000D+00  E= 1.415000D+00
              MO Center=  1.6D-01,  5.1D-01, -6.0D-02, r^2= 3.4D+00
   Bfn.  Coefficient  Atom+Function         Bfn.  Coefficient  Atom+Function  
  ----- ------------  ---------------      ----- ------------  ---------------
    36     -3.951406   2 C  s                66     -3.807478   3 C  s         
    67      3.810238   3 C  s                35      3.761037   2 C  s         
    73      2.297686   3 C  pz              138      2.234375   7 H  s         
   139     -2.194110   7 H  s               126     -1.773747   5 H  s         
    76     -1.681219   3 C  pz               65      1.546433   3 C  s         
 
 Vector   66  Occ=0.000000D+00  E= 1.431702D+00
              MO Center=  1.1D+00, -3.4D-01, -9.2D-01, r^2= 3.7D+00
   Bfn.  Coefficient  Atom+Function         Bfn.  Coefficient  Atom+Function  
  ----- ------------  ---------------      ----- ------------  ---------------
    98      9.030696   4 C  s                97     -6.951791   4 C  s         
    36     -3.078601   2 C  s                96      2.793772   4 C  s         
   145     -2.546726   8 H  s               144      2.145668   8 H  s         
   157     -1.832017  10 H  s               151     -1.732700   9 H  s         
   127      1.466409   5 H  s               104      1.339226   4 C  pz        
 
 Vector   67  Occ=0.000000D+00  E= 1.444930D+00
              MO Center=  4.5D-01, -4.5D-02, -4.6D-01, r^2= 4.0D+00
   Bfn.  Coefficient  Atom+Function         Bfn.  Coefficient  Atom+Function  
  ----- ------------  ---------------      ----- ------------  ---------------
    66      4.170067   3 C  s                67     -3.224157   3 C  s         
    98      2.738797   4 C  s                36      2.611527   2 C  s         
    35     -2.542143   2 C  s                97     -1.622002   4 C  s         
     5     -1.495071   1 O  s               133      1.488941   6 H  s         
    65     -1.422076   3 C  s               151     -1.358256   9 H  s         
 
 Vector   68  Occ=0.000000D+00  E= 1.446981D+00
              MO Center=  2.9D-01, -4.3D-02, -1.2D-02, r^2= 3.4D+00
   Bfn.  Coefficient  Atom+Function         Bfn.  Coefficient  Atom+Function  
  ----- ------------  ---------------      ----- ------------  ---------------
    98      6.858342   4 C  s                97     -3.778508   4 C  s         
    45      2.567275   2 C  pz               35     -2.363432   2 C  s         
    36     -2.242032   2 C  s                96      1.623837   4 C  s         
     5      1.593242   1 O  s               127     -1.582388   5 H  s         
    76     -1.560756   3 C  pz               66      1.382637   3 C  s         
 
 Vector   69  Occ=0.000000D+00  E= 1.471198D+00
              MO Center=  8.1D-01, -2.9D-01, -8.9D-01, r^2= 3.9D+00
   Bfn.  Coefficient  Atom+Function         Bfn.  Coefficient  Atom+Function  
  ----- ------------  ---------------      ----- ------------  ---------------
    66      2.995588   3 C  s               102      1.554966   4 C  px        
   156      1.474497  10 H  s               144     -1.302430   8 H  s         
   104      1.234708   4 C  pz              133      1.231928   6 H  s         
   157     -1.233884  10 H  s                65     -1.211039   3 C  s         
    67     -1.197777   3 C  s                 5     -1.030397   1 O  s         
 
 Vector   70  Occ=0.000000D+00  E= 1.480588D+00
              MO Center=  1.1D+00, -3.5D-01, -1.1D+00, r^2= 3.0D+00
   Bfn.  Coefficient  Atom+Function         Bfn.  Coefficient  Atom+Function  
  ----- ------------  ---------------      ----- ------------  ---------------
    36      2.846134   2 C  s               156     -2.370141  10 H  s         
   103      1.782414   4 C  py              157      1.721994  10 H  s         
   126      1.613947   5 H  s               102     -1.579605   4 C  px        
    35     -1.438465   2 C  s               104     -1.343415   4 C  pz        
   127     -1.343576   5 H  s               150      1.206499   9 H  s         
 
 Vector   71  Occ=0.000000D+00  E= 1.510760D+00
              MO Center=  2.9D-01,  1.2D-01, -3.2D-01, r^2= 3.9D+00
   Bfn.  Coefficient  Atom+Function         Bfn.  Coefficient  Atom+Function  
  ----- ------------  ---------------      ----- ------------  ---------------
    98      2.243710   4 C  s               144      1.876096   8 H  s         
   102     -1.584841   4 C  px              103     -1.382754   4 C  py        
    45      1.312531   2 C  pz              145     -1.306246   8 H  s         
    36     -1.067510   2 C  s               150     -0.999227   9 H  s         
    97     -0.843812   4 C  s               106      0.803306   4 C  py        
 
 Vector   72  Occ=0.000000D+00  E= 1.542855D+00
              MO Center=  3.5D-01,  4.3D-01, -2.2D-01, r^2= 4.6D+00
   Bfn.  Coefficient  Atom+Function         Bfn.  Coefficient  Atom+Function  
  ----- ------------  ---------------      ----- ------------  ---------------
    36      3.992599   2 C  s                98     -3.728589   4 C  s         
    35     -3.340120   2 C  s                97      3.319610   4 C  s         
    67     -2.164904   3 C  s                73      2.160044   3 C  pz        
   132     -1.745248   6 H  s               133      1.420990   6 H  s         
   102     -1.383700   4 C  px              138      1.376928   7 H  s         
 
 Vector   73  Occ=0.000000D+00  E= 1.576773D+00
              MO Center=  4.8D-01, -3.0D-02, -7.3D-02, r^2= 3.2D+00
   Bfn.  Coefficient  Atom+Function         Bfn.  Coefficient  Atom+Function  
  ----- ------------  ---------------      ----- ------------  ---------------
    35      3.646061   2 C  s                36     -2.903505   2 C  s         
    40     -2.098128   2 C  px               97     -2.098485   4 C  s         
    67      1.922400   3 C  s               126      1.813342   5 H  s         
    72      1.633270   3 C  py               34     -1.500887   2 C  s         
    42     -1.495136   2 C  pz               98      1.367371   4 C  s         
 
 Vector   74  Occ=0.000000D+00  E= 1.598210D+00
              MO Center=  3.4D-01,  3.8D-01, -1.5D-01, r^2= 3.4D+00
   Bfn.  Coefficient  Atom+Function         Bfn.  Coefficient  Atom+Function  
  ----- ------------  ---------------      ----- ------------  ---------------
    36     -5.462002   2 C  s                66     -5.315357   3 C  s         
    35      5.224872   2 C  s                67      4.029946   3 C  s         
    41      3.745033   2 C  py               71     -2.580983   3 C  px        
    72      2.436388   3 C  py               40     -2.039906   2 C  px        
    98      1.942916   4 C  s                82      1.686034   3 C  d -2      
 
 Vector   75  Occ=0.000000D+00  E= 1.641563D+00
              MO Center=  4.6D-01,  1.8D-01, -4.3D-02, r^2= 3.7D+00
   Bfn.  Coefficient  Atom+Function         Bfn.  Coefficient  Atom+Function  
  ----- ------------  ---------------      ----- ------------  ---------------
    66      2.849152   3 C  s                35      2.040186   2 C  s         
    98      1.935702   4 C  s                 5     -1.841776   1 O  s         
    97     -1.700420   4 C  s                67     -1.447171   3 C  s         
   144      1.230915   8 H  s               104     -1.132667   4 C  pz        
   103     -1.055255   4 C  py               41     -1.034382   2 C  py        
 
 Vector   76  Occ=0.000000D+00  E= 1.697740D+00
              MO Center=  2.7D-01,  4.7D-01, -3.1D-01, r^2= 4.0D+00
   Bfn.  Coefficient  Atom+Function         Bfn.  Coefficient  Atom+Function  
  ----- ------------  ---------------      ----- ------------  ---------------
    97      5.694746   4 C  s                35     -5.001864   2 C  s         
    42      3.187679   2 C  pz              104      3.145915   4 C  pz        
    72      2.659742   3 C  py                5      2.533639   1 O  s         
   138     -1.889810   7 H  s                34      1.585935   2 C  s         
   102     -1.528017   4 C  px               96     -1.489424   4 C  s         
 
 Vector   77  Occ=0.000000D+00  E= 1.702427D+00
              MO Center=  2.4D-01, -6.4D-02, -1.9D-01, r^2= 3.4D+00
   Bfn.  Coefficient  Atom+Function         Bfn.  Coefficient  Atom+Function  
  ----- ------------  ---------------      ----- ------------  ---------------
     5      3.022320   1 O  s                66     -2.353317   3 C  s         
    72      2.197356   3 C  py               36     -2.049865   2 C  s         
    35      1.681545   2 C  s                12      1.197962   1 O  px        
    67      1.147719   3 C  s               138     -1.150147   7 H  s         
    41      1.007639   2 C  py               97     -1.003131   4 C  s         
 
 Vector   78  Occ=0.000000D+00  E= 1.787758D+00
              MO Center=  4.2D-01,  2.6D-01,  1.9D-02, r^2= 3.5D+00
   Bfn.  Coefficient  Atom+Function         Bfn.  Coefficient  Atom+Function  
  ----- ------------  ---------------      ----- ------------  ---------------
    35      2.961425   2 C  s                97     -2.757118   4 C  s         
    36      1.715650   2 C  s                45     -1.331493   2 C  pz        
   104     -1.141564   4 C  pz               67     -1.075504   3 C  s         
    42     -1.047797   2 C  pz               72      0.995203   3 C  py        
   102      0.938650   4 C  px              103     -0.903285   4 C  py        
 
 Vector   79  Occ=0.000000D+00  E= 1.815407D+00
              MO Center= -6.4D-01,  1.7D-01,  1.9D-01, r^2= 2.5D+00
   Bfn.  Coefficient  Atom+Function         Bfn.  Coefficient  Atom+Function  
  ----- ------------  ---------------      ----- ------------  ---------------
    35      4.168761   2 C  s                 5     -3.343202   1 O  s         
    40     -2.435928   2 C  px               41      2.082431   2 C  py        
    72      1.973678   3 C  py               66     -1.751111   3 C  s         
    71     -1.660618   3 C  px               12     -1.394770   1 O  px        
   132     -1.048166   6 H  s               138     -1.034256   7 H  s         
 
 Vector   80  Occ=0.000000D+00  E= 1.842164D+00
              MO Center=  7.6D-02,  2.8D-01, -7.7D-02, r^2= 3.7D+00
   Bfn.  Coefficient  Atom+Function         Bfn.  Coefficient  Atom+Function  
  ----- ------------  ---------------      ----- ------------  ---------------
    35      1.683928   2 C  s                36     -1.134765   2 C  s         
   156     -0.942327  10 H  s               104     -0.794292   4 C  pz        
    71     -0.712536   3 C  px               41     -0.658154   2 C  py        
   157      0.655290  10 H  s               126     -0.637846   5 H  s         
    67      0.627465   3 C  s                66      0.600516   3 C  s         
 
 Vector   81  Occ=0.000000D+00  E= 1.867347D+00
              MO Center=  5.2D-01,  1.9D-01, -4.4D-01, r^2= 4.0D+00
   Bfn.  Coefficient  Atom+Function         Bfn.  Coefficient  Atom+Function  
  ----- ------------  ---------------      ----- ------------  ---------------
    35      6.623565   2 C  s                66     -4.339593   3 C  s         
    72      3.492709   3 C  py               97     -3.265041   4 C  s         
    36      2.111613   2 C  s               104     -1.883139   4 C  pz        
    34     -1.641889   2 C  s                67     -1.579432   3 C  s         
    41      1.520930   2 C  py               45     -1.374117   2 C  pz        
 
 Vector   82  Occ=0.000000D+00  E= 1.918853D+00
              MO Center=  3.2D-01, -1.7D-01, -3.1D-01, r^2= 3.2D+00
   Bfn.  Coefficient  Atom+Function         Bfn.  Coefficient  Atom+Function  
  ----- ------------  ---------------      ----- ------------  ---------------
    36      1.559297   2 C  s                98     -1.462971   4 C  s         
    45     -1.302893   2 C  pz               97     -1.252088   4 C  s         
   103     -1.160509   4 C  py               35      0.968549   2 C  s         
    66     -0.935728   3 C  s                41      0.836344   2 C  py        
    42     -0.754538   2 C  pz              144      0.653999   8 H  s         
 
 Vector   83  Occ=0.000000D+00  E= 1.990598D+00
              MO Center=  8.1D-01, -2.0D-01, -3.3D-01, r^2= 3.4D+00
   Bfn.  Coefficient  Atom+Function         Bfn.  Coefficient  Atom+Function  
  ----- ------------  ---------------      ----- ------------  ---------------
    98      3.360088   4 C  s                35      3.253399   2 C  s         
    66     -2.655809   3 C  s                40     -2.269904   2 C  px        
    72      1.903234   3 C  py               41      1.721755   2 C  py        
    43     -1.537679   2 C  px               71     -1.386029   3 C  px        
    36     -1.361047   2 C  s                67     -1.345146   3 C  s         
 
 Vector   84  Occ=0.000000D+00  E= 1.995916D+00
              MO Center=  6.4D-01, -1.2D-01, -7.7D-01, r^2= 3.5D+00
   Bfn.  Coefficient  Atom+Function         Bfn.  Coefficient  Atom+Function  
  ----- ------------  ---------------      ----- ------------  ---------------
    36      4.369932   2 C  s                98     -4.031395   4 C  s         
    35     -2.070706   2 C  s                45     -2.050850   2 C  pz        
    67     -1.473038   3 C  s               156      1.138982  10 H  s         
   107     -1.038312   4 C  pz              104      1.020951   4 C  pz        
    34      0.828954   2 C  s                 5     -0.808429   1 O  s         
 
 Vector   85  Occ=0.000000D+00  E= 2.089565D+00
              MO Center= -3.7D-02,  1.6D-01, -1.6D-02, r^2= 3.5D+00
   Bfn.  Coefficient  Atom+Function         Bfn.  Coefficient  Atom+Function  
  ----- ------------  ---------------      ----- ------------  ---------------
    36      2.301411   2 C  s                98     -2.103690   4 C  s         
   138     -0.750090   7 H  s               156      0.738147  10 H  s         
    14     -0.631726   1 O  pz              144      0.611316   8 H  s         
    40     -0.569444   2 C  px              150      0.531802   9 H  s         
    45     -0.515089   2 C  pz               67     -0.506596   3 C  s         
 
 Vector   86  Occ=0.000000D+00  E= 2.097137D+00
              MO Center= -3.7D-01,  5.3D-02,  5.3D-02, r^2= 2.9D+00
   Bfn.  Coefficient  Atom+Function         Bfn.  Coefficient  Atom+Function  
  ----- ------------  ---------------      ----- ------------  ---------------
    36      5.727440   2 C  s                67     -5.578241   3 C  s         
    66      3.315434   3 C  s                35     -3.289059   2 C  s         
    41     -3.068192   2 C  py               71      2.748415   3 C  px        
    13      1.861297   1 O  py               82     -1.467448   3 C  d -2      
    55      1.341444   2 C  d  2             43     -1.332362   2 C  px        
 
 Vector   87  Occ=0.000000D+00  E= 2.166817D+00
              MO Center=  4.9D-01, -1.4D-02, -4.9D-01, r^2= 3.2D+00
   Bfn.  Coefficient  Atom+Function         Bfn.  Coefficient  Atom+Function  
  ----- ------------  ---------------      ----- ------------  ---------------
    98      2.253624   4 C  s                67     -1.840176   3 C  s         
    35     -1.294692   2 C  s                73      1.039801   3 C  pz        
   156     -0.914814  10 H  s                36      0.838427   2 C  s         
    40      0.840643   2 C  px               43     -0.830500   2 C  px        
    42     -0.818880   2 C  pz               44      0.821179   2 C  py        
 
 Vector   88  Occ=0.000000D+00  E= 2.200256D+00
              MO Center=  4.0D-01,  1.9D-01, -2.7D-01, r^2= 3.6D+00
   Bfn.  Coefficient  Atom+Function         Bfn.  Coefficient  Atom+Function  
  ----- ------------  ---------------      ----- ------------  ---------------
    98      2.006638   4 C  s                36     -1.443644   2 C  s         
    45      1.044322   2 C  pz               76     -0.953400   3 C  pz        
   132      0.811527   6 H  s               117     -0.678302   4 C  d  2      
   103     -0.662494   4 C  py               42     -0.642384   2 C  pz        
   138     -0.627436   7 H  s                55      0.583167   2 C  d  2      
 
 Vector   89  Occ=0.000000D+00  E= 2.228787D+00
              MO Center=  6.4D-01, -2.0D-02, -9.0D-02, r^2= 3.6D+00
   Bfn.  Coefficient  Atom+Function         Bfn.  Coefficient  Atom+Function  
  ----- ------------  ---------------      ----- ------------  ---------------
    36      3.033674   2 C  s                67     -1.569674   3 C  s         
    98     -1.251324   4 C  s                 5     -1.153804   1 O  s         
    42     -1.107993   2 C  pz               72     -0.855633   3 C  py        
   102      0.785729   4 C  px               45     -0.728476   2 C  pz        
    43     -0.694157   2 C  px              150      0.690286   9 H  s         
 
 Vector   90  Occ=0.000000D+00  E= 2.242753D+00
              MO Center=  7.9D-01, -3.4D-01, -8.8D-01, r^2= 3.5D+00
   Bfn.  Coefficient  Atom+Function         Bfn.  Coefficient  Atom+Function  
  ----- ------------  ---------------      ----- ------------  ---------------
    36      1.554176   2 C  s               150      1.489493   9 H  s         
    67     -0.985077   3 C  s                98     -0.989823   4 C  s         
   144     -0.839712   8 H  s               117      0.771957   4 C  d  2      
    66     -0.676049   3 C  s                72      0.624973   3 C  py        
   149     -0.577489   9 H  s                45     -0.507492   2 C  pz        
 
 Vector   91  Occ=0.000000D+00  E= 2.264670D+00
              MO Center=  9.3D-01, -2.7D-01, -1.1D+00, r^2= 3.1D+00
   Bfn.  Coefficient  Atom+Function         Bfn.  Coefficient  Atom+Function  
  ----- ------------  ---------------      ----- ------------  ---------------
    66      2.592088   3 C  s                36      1.921272   2 C  s         
    41     -1.689252   2 C  py               35     -1.437114   2 C  s         
    67     -1.428208   3 C  s                72     -1.263390   3 C  py        
    98     -0.980924   4 C  s               126     -0.979914   5 H  s         
    71      0.959048   3 C  px              156      0.895266  10 H  s         
 
 Vector   92  Occ=0.000000D+00  E= 2.283356D+00
              MO Center=  4.8D-01,  1.5D-01, -1.9D-01, r^2= 3.6D+00
   Bfn.  Coefficient  Atom+Function         Bfn.  Coefficient  Atom+Function  
  ----- ------------  ---------------      ----- ------------  ---------------
    98      3.700651   4 C  s                36     -2.456293   2 C  s         
[...]
    21     -0.871708   1 O  d -1             42     -0.808352   2 C  pz        
    97     -0.711107   4 C  s                45     -0.703936   2 C  pz        
    98     -0.535937   4 C  s                 5     -0.513185   1 O  s         
    67     -0.506571   3 C  s               102      0.498687   4 C  px        
 
 Vector  154  Occ=0.000000D+00  E= 6.676697D+00
              MO Center= -8.7D-01, -1.8D-01,  2.0D-01, r^2= 5.7D-01
   Bfn.  Coefficient  Atom+Function         Bfn.  Coefficient  Atom+Function  
  ----- ------------  ---------------      ----- ------------  ---------------
    18      1.062315   1 O  d  1             23     -1.036557   1 O  d  1      
    97     -0.843101   4 C  s                42     -0.782642   2 C  pz        
    35      0.761669   2 C  s               102      0.653774   4 C  px        
    54     -0.545181   2 C  d  1             14      0.405827   1 O  pz        
    16     -0.392721   1 O  d -1             11      0.388436   1 O  pz        
 
 Vector  155  Occ=0.000000D+00  E= 6.842110D+00
              MO Center= -8.8D-01, -1.9D-01,  2.0D-01, r^2= 5.9D-01
   Bfn.  Coefficient  Atom+Function         Bfn.  Coefficient  Atom+Function  
  ----- ------------  ---------------      ----- ------------  ---------------
     5      2.112012   1 O  s                40      1.768844   2 C  px        
     9      1.362289   1 O  px               97     -1.279946   4 C  s         
     4      1.206581   1 O  s                20      1.048493   1 O  d -2      
    42     -0.971757   2 C  pz               12      0.847107   1 O  px        
    35     -0.846605   2 C  s                15     -0.833627   1 O  d -2      
 
 Vector  156  Occ=0.000000D+00  E= 7.055798D+00
              MO Center= -8.9D-01, -1.9D-01,  2.0D-01, r^2= 6.4D-01
   Bfn.  Coefficient  Atom+Function         Bfn.  Coefficient  Atom+Function  
  ----- ------------  ---------------      ----- ------------  ---------------
    66     -3.176322   3 C  s                35      3.025429   2 C  s         
    40     -2.727909   2 C  px               72      2.693510   3 C  py        
    24     -1.579059   1 O  d  2             36      1.446991   2 C  s         
    10      1.283261   1 O  py               67     -1.285495   3 C  s         
    19      1.016902   1 O  d  2             13      0.866244   1 O  py        
 
 Vector  157  Occ=0.000000D+00  E= 2.194259D+01
              MO Center=  1.1D-01,  7.5D-01,  1.4D-02, r^2= 1.3D+00
   Bfn.  Coefficient  Atom+Function         Bfn.  Coefficient  Atom+Function  
  ----- ------------  ---------------      ----- ------------  ---------------
    64      1.561814   3 C  s                65     -1.326745   3 C  s         
    67     -1.281497   3 C  s                63     -1.230895   3 C  s         
    98      1.108986   4 C  s                95     -0.805538   4 C  s         
    96      0.667464   4 C  s                94      0.637006   4 C  s         
    40     -0.483961   2 C  px               35      0.467385   2 C  s         
 
 Vector  158  Occ=0.000000D+00  E= 2.197976D+01
              MO Center=  8.7D-01, -2.2D-01, -7.1D-01, r^2= 1.2D+00
   Bfn.  Coefficient  Atom+Function         Bfn.  Coefficient  Atom+Function  
  ----- ------------  ---------------      ----- ------------  ---------------
    95      1.419099   4 C  s                96     -1.315561   4 C  s         
    98     -1.147816   4 C  s                94     -1.116565   4 C  s         
    34     -0.931762   2 C  s                36     -0.850996   2 C  s         
    33      0.843207   2 C  s                65     -0.691747   3 C  s         
    32     -0.658595   2 C  s                64      0.652603   3 C  s         
 
 Vector  159  Occ=0.000000D+00  E= 2.210356D+01
              MO Center=  6.0D-01, -1.1D-01, -5.3D-02, r^2= 6.6D-01
   Bfn.  Coefficient  Atom+Function         Bfn.  Coefficient  Atom+Function  
  ----- ------------  ---------------      ----- ------------  ---------------
    36      2.208494   2 C  s                33     -1.561190   2 C  s         
    34      1.549253   2 C  s                35     -1.347657   2 C  s         
    98     -1.263813   4 C  s                32      1.222371   2 C  s         
    67     -1.173156   3 C  s                97      0.686793   4 C  s         
    95      0.681374   4 C  s                96     -0.615345   4 C  s         
 
 Vector  160  Occ=0.000000D+00  E= 4.341422D+01
              MO Center= -8.8D-01, -1.8D-01,  2.0D-01, r^2= 1.2D-01
   Bfn.  Coefficient  Atom+Function         Bfn.  Coefficient  Atom+Function  
  ----- ------------  ---------------      ----- ------------  ---------------
     4      2.506178   1 O  s                 3     -1.874291   1 O  s         
     2      1.731517   1 O  s                 1     -1.395839   1 O  s         
     5     -0.879041   1 O  s                36      0.834346   2 C  s         
     9      0.561414   1 O  px               66     -0.513549   3 C  s         
    40      0.465512   2 C  px               72      0.455745   3 C  py        
 

 center of mass
 --------------
 x =   0.30619356 y =   0.09486554 z =  -0.27792438

 moments of inertia (a.u.)
 ------------------
         200.177660426349          45.692282334950          83.777848872373
          45.692282334950         247.841974681491         -52.668122943369
          83.777848872373         -52.668122943369         238.929392044571
 
     Multipole analysis of the density
     ---------------------------------
 
     L   x y z        total         alpha         beta         nuclear
     -   - - -        -----         -----         ----         -------
     0   0 0 0     -0.000000    -16.000000    -16.000000     32.000000
 
     1   1 0 0      0.695447     -6.212355     -6.212355     13.120158
     1   0 1 0      0.332749     -1.604690     -1.604690      3.542129
     1   0 0 1     -0.055022      5.325630      5.325630    -10.706282
 
     2   2 0 0    -20.002035    -54.229283    -54.229283     88.456532
     2   1 1 0     -1.099920     13.935863     13.935863    -28.971647
     2   1 0 1      0.145244     26.466584     26.466584    -52.787924
     2   0 2 0    -17.851063    -40.582612    -40.582612     63.314160
     2   0 1 1      0.227582    -15.455673    -15.455673     31.138929
     2   0 0 2    -18.203707    -45.751187    -45.751187     73.298667
 
 *** CALLING NEW AORESP DRIVER FOR CLOSED AND OPEN SHELLS ***
 Entering AOResponse driver routine


--------------------------------------------------------------------------------

          ****************
          *** RESPONSE ***
          ****************

 Response module for NWChem and dynamic CPKS solver
 developed by J. Autschbach and coworkers, SUNY Buffalo
 The methodology used in this program is described in 
 ChemPhysChem 12 (2011), 3224-3235 (main reference)
 J. Chem. Phys. 123 (2005), 114103
 J. Chem. Phys. 122 (2005), 224115
 J. Chem. Phys. 122 (2005), 074105
 Comp. Lett. 3 (2007), 131-150 (contact JA for a copy)
 Please cite this work in publications based on results
 obtained with this code. Thank you!

 For extension of response module to open shell
 calculations please acknowledge:
 F. Aquino, Northwestern University, Schatz Rsrch Group
 The update to the methodology is described in
 J. Phys. Chem. A 118 (2014) 517-525



          -----------------------------------------------
          Solving response equations for perturbing field
          -----------------------------------------------

 number of frequencies:     1
 frequency in a.u.:  0.9319600E-01
 Perturbing field: electric
 Using GIAO formalism for OptRot
 Adding quadrupole terms to OptRot
 to create an origin in dependent tensor.
 Using El. Dipole Length Gauge
 
 Applying DAMPING constant of  0.003700 a.u.
 
 Setting up CPKS
 with frequency omega =      0.09319600 a.u.
 and a damping of            0.00370000 a.u.

 
                            NWChem Dynamic CPHF Module
                            --------------------------
 
 
    scftype = RHF 
    nclosed =   16
      nopen =    0
  variables =     9216
  num. vecs =        3
  tolerance =   1.0D-07
  max. iter =  100

 SCF residual:   3.335590773629018E-006


Iterative solution of linear equations
  No. of variables     4608
  No. of equations        3
  Maximum subspace       99
       Convergence  1.0D-07
        Start time     94.6


   iter   nsub   residual    time 
   ----  ------  --------  --------- 
 dft_CPHF2_read: failed to open
 ./methyloxirane_blyp-def2-tzvp_488.9_46.inp.aoresp_fiao_f1
     1      3    3.74D+00     143.5
     2      6    2.73D+00     192.6
     3      9    2.38D-01     241.7
     4     12    5.09D-02     290.7
     5     15    1.05D-02     339.7
     6     18    1.20D-03     388.8
     7     21    1.36D-04     437.8
     8     24    1.23D-05     487.1
     9     27    1.11D-06     536.1
    10     30    4.36D-07     585.1
    11     33    1.66D-08     634.1

 Calculating some arrays needed for GIAO optical rotation

    0 giaofock schwarz done =      93.10%
    0 giaofock schwarz done =      93.10%
 aor_r1_tensor_giao: roadata output requested
 dip-quad polarizability Re:

              1        2        3        4        5        6      
    1   74.6730  -6.6323 -26.8654  -3.9528   1.6317   9.1153
    2  -11.9944  26.3091   3.7597  21.3925 -22.8802   3.9400
    3   -6.1579   1.4131  38.9783  -0.7476  13.5502 -41.2425
 traceless dip-quad polarizability:

              1        2        3      
    1   72.0918  -9.9485 -40.2980
    2   -9.9485 -45.8470   2.4475
    3  -40.2980   2.4475 -26.2448

              1        2        3      
    1  -24.6606  39.4637   5.6396
    2   39.4637  25.4197 -34.3203
    3    5.6396 -34.3203  -0.7591

              1        2        3      
    1   14.8371   2.1196  58.4674
    2    2.1196  22.9527  20.3254
    3   58.4674  20.3254 -37.7898

 roa begin

 alpha real:
 XX       0.4062974073377E+02
 XY      -0.5284428882926E+01
 XZ      -0.2994845228252E+01
 YX      -0.5284428899639E+01
 YY       0.4444862300664E+02
 YZ       0.3340578941089E+01
 ZX      -0.2994845238158E+01
 ZY       0.3340578941574E+01
 ZZ       0.4147610841871E+02

 alpha im:
 XX       0.1083354173684E+00
 XY      -0.3058143999453E-01
 XZ      -0.1087285773473E-01
 YX      -0.3058143615161E-01
 YY       0.1322834353163E+00
 YZ       0.1975247084071E-01
 ZX      -0.1087285309618E-01
 ZY       0.1975246889910E-01
 ZZ       0.1227366119151E+00

 beta real:
 XX      -0.1204313505036E+00
 XY       0.9042706627724E+00
 XZ       0.2272417737327E+00
 YX      -0.9371944074175E+00
 YY       0.1548335114782E+00
 YZ      -0.1585517360789E+01
 ZX      -0.4907698773981E+00
 ZY       0.1878181113434E+01
 ZZ      -0.2981208720482E-01

 G-prime = -omega beta(real):
 XX      -0.1204313505036E+00
 XY       0.9042706627724E+00
 XZ       0.2272417737327E+00
 YX      -0.9371944074175E+00
 YY       0.1548335114782E+00
 YZ      -0.1585517360789E+01
 ZX      -0.4907698773981E+00
 ZY       0.1878181113434E+01
 ZZ      -0.2981208720482E-01

 beta im:
 XX      -0.5214747135174E-02
 XY       0.1209831094382E-01
 XZ       0.4036876252092E-02
 YX      -0.9308082332074E-02
 YY       0.5226020527041E-02
 YZ      -0.2510484972750E-01
 ZX      -0.1422202933930E-01
 ZY       0.4064197444628E-01
 ZZ      -0.4382927676554E-03

 G-prime = -omega beta(imag):
 XX      -0.5214747135174E-02
 XY       0.1209831094382E-01
 XZ       0.4036876252092E-02
 YX      -0.9308082332074E-02
 YY       0.5226020527041E-02
 YZ      -0.2510484972750E-01
 ZX      -0.1422202933930E-01
 ZY       0.4064197444628E-01
 ZZ      -0.4382927676554E-03

 dipole-quadrupole real (Cartesian):
 XXX      0.7467296314961E+02
 XXY     -0.6632305898526E+01
 XXZ     -0.2686536034540E+02
 XYY     -0.3952848921723E+01
 XYZ      0.1631679850052E+01
 XZZ      0.9115274579531E+01
 YXX     -0.1199438144727E+02
 YXY      0.2630913311440E+02
 YXZ      0.3759721370660E+01
 YYY      0.2139252541295E+02
 YYZ     -0.2288022284117E+02
 YZZ      0.3939964538667E+01
 ZXX     -0.6157927002027E+01
 ZXY      0.1413098707233E+01
 ZXZ      0.3897829506656E+02
 ZYY     -0.7475543558065E+00
 ZYZ      0.1355024624143E+02
 ZZZ     -0.4124251967040E+02

 dipole-quadrupole imag (Cartesian):
 XXX      0.2532288502018E+00
 XXY     -0.3664347717563E-01
 XXZ     -0.7155404736468E-01
 XYY     -0.2416257244055E-01
 XYZ      0.5774417041091E-02
 XZZ      0.6068113452964E-01
 YXX     -0.5686175851826E-01
 YXY      0.6769495888503E-01
 YXZ      0.2204111326748E-01
 YYY      0.8042269450737E-01
 YYZ     -0.6990191465506E-01
 YZZ      0.9135720980523E-02
 ZXX     -0.2955917751702E-01
 ZXY      0.2257073364288E-02
 ZXZ      0.1435175887454E+00
 ZYY      0.5872524682455E-03
 ZYZ      0.6387234184510E-01
 ZZZ     -0.9585366890175E-01

 dipole-quadrupole (traceless):
 XXX      0.7209175032071E+02
 XXY     -0.9948458847790E+01
 XXZ     -0.4029804051810E+02
 XYY     -0.4584696778629E+02
 XYZ      0.2447519775078E+01
 XZZ     -0.2624478253441E+02
 YXX     -0.2466062642308E+02
 YXY      0.3946369967160E+02
 YXZ      0.5639582055990E+01
 YYY      0.2541973386725E+02
 YYZ     -0.3432033426176E+02
 YZZ     -0.7591074441768E+00
 ZXX      0.1483711001107E+02
 ZXY      0.2119648060849E+01
 ZXZ      0.5846744259984E+02
 ZYY      0.2295266898040E+02
 ZYZ      0.2032536936215E+02
 ZZZ     -0.3778977899148E+02

 roa end


 Electric Dipole Response Matrix (nonzero elements):

              1        2        3      
    1   40.6297  -5.2844  -2.9948
    2   -5.2844  44.4486   3.3406
    3   -2.9948   3.3406  41.4761
 
 Imaginary part:

              1        2        3      
    1    0.1083  -0.0306  -0.0109
    2   -0.0306   0.1323   0.0198
    3   -0.0109   0.0198   0.1227

 ------------------------------------------
 average:        42.18482 + I       0.12112


 DFT Linear Response polarizability / au 
 Frequency  =       0.0931960 / au
 Wavelength =     488.8981609 / nm
              X              Y              Z
 -----------------------------------------------
 X      40.6297407     -5.2844289     -2.9948452
 Y      -5.2844289     44.4486230      3.3405789
 Z      -2.9948452      3.3405789     41.4761084
 -----------------------------------------------
 Eigenvalues =      36.8228607     50.3897029     39.3419086
 Isotropic   =      42.1848241
 Anisotropic =      10.2055307
 -----------------------------------------------
 *************************

 DFT Linear Response IMAG polarizability / au 
 Frequency  =       0.0931960 / au
 Wavelength =     488.8981609 / nm
              X              Y              Z
 -----------------------------------------------
 X       0.1083354     -0.0305814     -0.0108729
 Y      -0.0305814      0.1322834      0.0197525
 Z      -0.0108729      0.0197525      0.1227366
 -----------------------------------------------
 Eigenvalues =       0.0873006      0.1650683      0.1109866
 Isotropic   =       0.1211185
 Anisotropic =       0.0563728
 -----------------------------------------------
 *************************

 Magnetic Dipole Response Matrix (nonzero elements):
 Optical rotation tensor Beta
 (Buckingham-Dunn version including dipole-quadrupole terms)

              1        2        3      
    1    2.4655  -0.1797   0.3518
    2   -0.1797  -1.7707  -1.6699
    3    0.3518  -1.6699  -0.7441
 
 Imaginary part:

              1        2        3      
    1    0.0560  -0.1298  -0.0433
    2    0.0999  -0.0561   0.2694
    3    0.1526  -0.4361   0.0047

 ------------------------------------------
 average:        -0.01642 + I       0.00153

 Principal components and PAS (Real part)
                 -3.00516
                  2.54036
                  0.41555
 ------------------------
 average:        -0.01642

              1        2        3      
    1   -0.0119   0.9824  -0.1866
    2    0.8035  -0.1017  -0.5866
    3    0.5952   0.1569   0.7881

 Chiral response tensor (Real part):

              1        2        3      
    1   -1.2574   0.0898  -0.1759
    2    0.0898   0.8607   0.8349
    3   -0.1759   0.8349   0.3474
 
 Principal components and PAS (Real part)
                  1.47795
                 -1.29480
                 -0.23240
 ------------------------
 average:        -0.01642

              1        2        3      
    1   -0.0119   0.9824  -0.1866
    2    0.8035  -0.1017  -0.5866
    3    0.5952   0.1569   0.7881
 Exiting AOResponse driver routine

 Task  times  cpu:      614.0s     wall:      627.9s
 
 
                                NWChem Input Module
                                -------------------
 
 
 Summary of allocated global arrays
-----------------------------------
  No active global arrays



                         GA Statistics for process    0
                         ------------------------------

       create   destroy   get      put      acc     scatter   gather  read&inc
calls: 3294     3294     7.57e+06 3.14e+06 7.24e+05 2694        0     1031     
number of processes/call 1.01e+00 1.03e+00 1.42e+00 0.00e+00 0.00e+00
bytes total:             1.65e+09 1.26e+08 1.72e+09 1.84e+02 0.00e+00 8.25e+03
bytes remote:            7.01e+08 3.29e+07 9.78e+08 0.00e+00 0.00e+00 0.00e+00
Max memory consumed for GA by this process: 11242192 bytes
 
MA_summarize_allocated_blocks: starting scan ...
MA_summarize_allocated_blocks: scan completed: 0 heap blocks, 0 stack blocks
MA usage statistics:

	allocation statistics:
					      heap	     stack
					      ----	     -----
	current number of blocks	         0	         0
	maximum number of blocks	        24	        52
	current total bytes		         0	         0
	maximum total bytes		   7519856	  48998312
	maximum total K-bytes		      7520	     48999
	maximum total M-bytes		         8	        49
 
 
                                     CITATION
                                     --------
                Please cite the following reference when publishing
                           results obtained with NWChem:
 
                 M. Valiev, E.J. Bylaska, N. Govind, K. Kowalski,
              T.P. Straatsma, H.J.J. van Dam, D. Wang, J. Nieplocha,
                        E. Apra, T.L. Windus, W.A. de Jong
                 "NWChem: a comprehensive and scalable open-source
                  solution for large scale molecular simulations"
                      Comput. Phys. Commun. 181, 1477 (2010)
                           doi:10.1016/j.cpc.2010.04.018
 
                                      AUTHORS
                                      -------
          E. Apra, E. J. Bylaska, W. A. de Jong, N. Govind, K. Kowalski,
       T. P. Straatsma, M. Valiev, H. J. J. van Dam, D. Wang, T. L. Windus,
        J. Hammond, J. Autschbach, K. Bhaskaran-Nair, J. Brabec, K. Lopata,
    S. A. Fischer, S. Krishnamoorthy, M. Jacquelin, W. Ma, M. Klemm, O. Villa,
      Y. Chen, V. Anisimov, F. Aquino, S. Hirata, M. T. Hackler, V. Konjkov,
            D. Mejia-Rodriguez, T. Risthaus, M. Malagoli, A. Marenich,
   A. Otero-de-la-Roza, J. Mullin, P. Nichols, R. Peverati, J. Pittner, Y. Zhao,
        P.-D. Fan, A. Fonari, M. J. Williamson, R. J. Harrison, J. R. Rehr,
      M. Dupuis, D. Silverstein, D. M. A. Smith, J. Nieplocha, V. Tipparaju,
    M. Krishnan, B. E. Van Kuiken, A. Vazquez-Mayagoitia, L. Jensen, M. Swart,
      Q. Wu, T. Van Voorhis, A. A. Auer, M. Nooijen, L. D. Crosby, E. Brown,
      G. Cisneros, G. I. Fann, H. Fruchtl, J. Garza, K. Hirao, R. A. Kendall,
      J. A. Nichols, K. Tsemekhman, K. Wolinski, J. Anchell, D. E. Bernholdt,
      P. Borowski, T. Clark, D. Clerc, H. Dachsel, M. J. O. Deegan, K. Dyall,
    D. Elwood, E. Glendening, M. Gutowski, A. C. Hess, J. Jaffe, B. G. Johnson,
     J. Ju, R. Kobayashi, R. Kutteh, Z. Lin, R. Littlefield, X. Long, B. Meng,
      T. Nakajima, S. Niu, L. Pollack, M. Rosing, K. Glaesemann, G. Sandrone,
      M. Stave, H. Taylor, G. Thomas, J. H. van Lenthe, A. T. Wong, Z. Zhang.

 Total times  cpu:      688.1s     wall:      703.2s
