 argument  1 = methyloxirane_blyp-def2-tzvp_488.9_18.inp
 


============================== echo of input deck ==============================
echo
start methyloxirane_blyp-def2-tzvp_488.9_18.inp
title "methyloxirane roa calculations at 488.9 nm, input generated in va  with delta_type=2"
charge 0



geometry units angstrom nocenter noautoz noautosym nucleus point;symmetry c1
 O -0.878417 -0.180276  0.205171
 C  0.572277 -0.156328  0.123328
 C -0.184806  1.084629  0.339506
 C  1.185660 -0.520406 -1.211450
 H  1.060913 -0.605132  0.995237
 H -0.230009  1.556305  1.325682
 H -0.326433  1.797725 -0.478558
 H  2.242782 -0.219366 -1.245887
 H  1.144913 -1.605928 -1.376889
 H  0.649484 -0.028114 -2.032159
end

basis spherical
* library def2-TZVP
end

 set prop:newaoresp 1
 set aor:roadata T
 set cphf:maxsub 100
 set cphf:acc 1.0d-10
 set cphf:maxiter 100

property
    response 1   0.093196
    bdtensor
    convergence 1e-7
    damping 0.0037
    giao
end

dft
 direct
 mult 1
 xc becke88 lyp
 iterations 250
 tolerances tight
 grid xfine
 convergence nolevelshifting
 convergence energy 1e-8
 convergence gradient 1e-7


end

task dft gradient
task dft property
================================================================================


                                         
                                         
 
 
              Northwest Computational Chemistry Package (NWChem) 6.8
              ------------------------------------------------------
 
 
                    Environmental Molecular Sciences Laboratory
                       Pacific Northwest National Laboratory
                                Richland, WA 99352
 
                              Copyright (c) 1994-2017
                       Pacific Northwest National Laboratory
                            Battelle Memorial Institute
 
             NWChem is an open-source computational chemistry package
                        distributed under the terms of the
                      Educational Community License (ECL) 2.0
             A copy of the license is included with this distribution
                              in the LICENSE.TXT file
 
                                  ACKNOWLEDGMENT
                                  --------------

            This software and its documentation were developed at the
            EMSL at Pacific Northwest National Laboratory, a multiprogram
            national laboratory, operated for the U.S. Department of Energy
            by Battelle under Contract Number DE-AC05-76RL01830. Support
            for this work was provided by the Department of Energy Office
            of Biological and Environmental Research, Office of Basic
            Energy Sciences, and the Office of Advanced Scientific Computing.


           Job information
           ---------------

    hostname        = cpn-f11-17-01.cbls.ccr.buffalo.edu
    program         = /util/academic/nwchem/nwchem-6.8/bin/LINUX64/nwchem
    date            = Fri Mar  1 10:15:04 2019

    compiled        = Tue_Nov_06_14:59:08_2018
    source          = /util/academic/nwchem/nwchem-6.8
    nwchem branch   = 6.8
    nwchem revision = v6.8-47-gdf6c956
    ga revision     = ga-5.6.3
    use scalapack   = F
    input           = methyloxirane_blyp-def2-tzvp_488.9_18.inp
    prefix          = methyloxirane_blyp-def2-tzvp_488.9_18.inp.
    data base       = ./methyloxirane_blyp-def2-tzvp_488.9_18.inp.db
    status          = startup
    nproc           =        7
    time left       =     -1s



           Memory information
           ------------------

    heap     =   13107198 doubles =    100.0 Mbytes
    stack    =   13107195 doubles =    100.0 Mbytes
    global   =   26214400 doubles =    200.0 Mbytes (distinct from heap & stack)
    total    =   52428793 doubles =    400.0 Mbytes
    verify   = yes
    hardfail = no 


           Directory information
           ---------------------
 
  0 permanent = .
  0 scratch   = .
 
 
 
 
                                NWChem Input Module
                                -------------------
 
 
                    methyloxirane roa calculations at 488.9 nm, input generated in va  with delta_type=2
                    ------------------------------------------

 Scaling coordinates for geometry "geometry" by  1.889725989
 (inverse scale =  0.529177249)

 
 
                             Geometry "geometry" -> ""
                             -------------------------
 
 Output coordinates in angstroms (scale by  1.889725989 to convert to a.u.)
 
  No.       Tag          Charge          X              Y              Z
 ---- ---------------- ---------- -------------- -------------- --------------
    1 O                    8.0000    -0.87841700    -0.18027600     0.20517100
    2 C                    6.0000     0.57227700    -0.15632800     0.12332800
    3 C                    6.0000    -0.18480600     1.08462900     0.33950600
    4 C                    6.0000     1.18566000    -0.52040600    -1.21145000
    5 H                    1.0000     1.06091300    -0.60513200     0.99523700
    6 H                    1.0000    -0.23000900     1.55630500     1.32568200
    7 H                    1.0000    -0.32643300     1.79772500    -0.47855800
    8 H                    1.0000     2.24278200    -0.21936600    -1.24588700
    9 H                    1.0000     1.14491300    -1.60592800    -1.37688900
   10 H                    1.0000     0.64948400    -0.02811400    -2.03215900
 
      Atomic Mass 
      ----------- 
 
      O                 15.994910
      C                 12.000000
      H                  1.007825
 

 Effective nuclear repulsion energy (a.u.)     123.6114148953

            Nuclear Dipole moment (a.u.) 
            ----------------------------
        X                 Y               Z
 ---------------- ---------------- ----------------
    13.1394537712     3.5917114796   -10.7013330802
 
 
            XYZ format geometry
            -------------------
    10
 geometry
 O                    -0.87841700    -0.18027600     0.20517100
 C                     0.57227700    -0.15632800     0.12332800
 C                    -0.18480600     1.08462900     0.33950600
 C                     1.18566000    -0.52040600    -1.21145000
 H                     1.06091300    -0.60513200     0.99523700
 H                    -0.23000900     1.55630500     1.32568200
 H                    -0.32643300     1.79772500    -0.47855800
 H                     2.24278200    -0.21936600    -1.24588700
 H                     1.14491300    -1.60592800    -1.37688900
 H                     0.64948400    -0.02811400    -2.03215900
 
 ==============================================================================
                                internuclear distances
 ------------------------------------------------------------------------------
       center one      |      center two      | atomic units |  angstroms
 ------------------------------------------------------------------------------
    2 C                |   1 O                |     2.74615  |     1.45320
    3 C                |   1 O                |     2.73790  |     1.44884
    3 C                |   2 C                |     2.77724  |     1.46965
    4 C                |   2 C                |     2.85994  |     1.51341
    5 H                |   2 C                |     2.07045  |     1.09563
    6 H                |   3 C                |     2.06756  |     1.09410
    7 H                |   3 C                |     2.06819  |     1.09444
    8 H                |   4 C                |     2.07811  |     1.09969
    9 H                |   4 C                |     2.07645  |     1.09881
   10 H                |   4 C                |     2.07302  |     1.09700
 ------------------------------------------------------------------------------
                         number of included internuclear distances:         10
 ==============================================================================



 ==============================================================================
                                 internuclear angles
 ------------------------------------------------------------------------------
        center 1       |       center 2       |       center 3       |  degrees
 ------------------------------------------------------------------------------
    2 C                |   1 O                |   3 C                |    60.85
    2 C                |   1 O                |   3 C                |    60.85
    1 O                |   2 C                |   4 C                |   116.76
    1 O                |   2 C                |   5 H                |   113.18
    3 C                |   2 C                |   4 C                |   122.80
    3 C                |   2 C                |   5 H                |   117.30
    4 C                |   2 C                |   5 H                |   115.00
    3 C                |   1 O                |   2 C                |    60.85
    1 O                |   3 C                |   6 H                |   116.11
    1 O                |   3 C                |   7 H                |   115.95
    2 C                |   3 C                |   6 H                |   121.19
    2 C                |   3 C                |   7 H                |   120.46
    6 H                |   3 C                |   7 H                |   112.80
    2 C                |   4 C                |   8 H                |   110.57
    2 C                |   4 C                |   9 H                |   110.82
    2 C                |   4 C                |  10 H                |   110.72
    8 H                |   4 C                |   9 H                |   107.54
    8 H                |   4 C                |  10 H                |   108.88
    9 H                |   4 C                |  10 H                |   108.21
 ------------------------------------------------------------------------------
                            number of included internuclear angles:         19
 ==============================================================================



  warning:::::::::::::: from_environment
  NWCHEM_BASIS_LIBRARY set to: <
 /util/academic/nwchem/nwchem-6.8/src/basis/libraries>
  but file does not exist !
  using .nwchemrc or compiled library


 Summary of "ao basis" -> "" (spherical)
 ------------------------------------------------------------------------------
       Tag                 Description            Shells   Functions and Types
 ---------------- ------------------------------  ------  ---------------------
 *                         def2-TZVP                  on all atoms 


 
                                 NWChem DFT Module
                                 -----------------
 
 
                    methyloxirane roa calculations at 488.9 nm, input generated in va  with delta_type=2
 
 
                      Basis "ao basis" -> "ao basis" (spherical)
                      -----
  O (Oxygen)
  ----------
            Exponent  Coefficients 
       -------------- ---------------------------------------------------------
  1 S  2.70323826E+04  0.000217
  1 S  4.05238714E+03  0.001684
  1 S  9.22327227E+02  0.008740
  1 S  2.61240710E+02  0.035240
  1 S  8.53546414E+01  0.111535
  1 S  3.10350352E+01  0.255890
 
  2 S  1.22608607E+01  0.397687
  2 S  4.99870760E+00  0.246278
 
  3 S  1.17031082E+00  1.000000
 
  4 S  4.64747410E-01  1.000000
 
  5 S  1.85045364E-01  1.000000
 
  6 P  6.32749548E+01  0.006069
  6 P  1.46270494E+01  0.041913
  6 P  4.45012235E+00  0.161538
  6 P  1.52757996E+00  0.357070
 
  7 P  5.29351179E-01  1.000000
 
  8 P  1.74784213E-01  1.000000
 
  9 D  2.31400000E+00  1.000000
 
 10 D  6.45000000E-01  1.000000
 
 11 F  1.42800000E+00  1.000000
 
  C (Carbon)
  ----------
            Exponent  Coefficients 
       -------------- ---------------------------------------------------------
  1 S  1.35753497E+04  0.000222
  1 S  2.03523337E+03  0.001723
  1 S  4.63225624E+02  0.008926
  1 S  1.31200196E+02  0.035728
  1 S  4.28530159E+01  0.110763
  1 S  1.55841858E+01  0.242956
 
  2 S  6.20671385E+00  0.414403
  2 S  2.57648965E+00  0.237450
 
  3 S  5.76963394E-01  1.000000
 
  4 S  2.29728314E-01  1.000000
 
  5 S  9.51644400E-02  1.000000
 
  6 P  3.46972322E+01  0.005333
  6 P  7.95826228E+00  0.035864
  6 P  2.37808269E+00  0.142159
  6 P  8.14332082E-01  0.342705
 
  7 P  2.88875473E-01  1.000000
 
  8 P  1.00568237E-01  1.000000
 
  9 D  1.09700000E+00  1.000000
 
 10 D  3.18000000E-01  1.000000
 
 11 F  7.61000000E-01  1.000000
 
  H (Hydrogen)
  ------------
            Exponent  Coefficients 
       -------------- ---------------------------------------------------------
  1 S  3.40613410E+01  0.006025
  1 S  5.12357460E+00  0.045021
  1 S  1.16466260E+00  0.201897
 
  2 S  3.27230410E-01  1.000000
 
  3 S  1.03072410E-01  1.000000
 
  4 P  8.00000000E-01  1.000000
 


 Summary of "ao basis" -> "ao basis" (spherical)
 ------------------------------------------------------------------------------
       Tag                 Description            Shells   Functions and Types
 ---------------- ------------------------------  ------  ---------------------
 O                         def2-TZVP                11       31   5s3p2d1f
 C                         def2-TZVP                11       31   5s3p2d1f
 H                         def2-TZVP                 4        6   3s1p




 Summary of "ao basis" -> "ao basis" (spherical)
 ------------------------------------------------------------------------------
       Tag                 Description            Shells   Functions and Types
 ---------------- ------------------------------  ------  ---------------------
 O                         def2-TZVP                11       31   5s3p2d1f
 C                         def2-TZVP                11       31   5s3p2d1f
 H                         def2-TZVP                 4        6   3s1p


  Caching 1-el integrals 
  itol2e modified to match energy
  convergence criterion.
  tol_rho modified to match energy
  convergence criterion.
 
            General Information
            -------------------
          SCF calculation type: DFT
          Wavefunction type:  closed shell.
          No. of atoms     :    10
          No. of electrons :    32
           Alpha electrons :    16
            Beta electrons :    16
          Charge           :     0
          Spin multiplicity:     1
          Use of symmetry is: off; symmetry adaption is: off
          Maximum number of iterations: 250
          This is a Direct SCF calculation.
          AO basis - number of functions:   160
                     number of shells:    68
          Convergence on energy requested:  1.00D-08
          Convergence on density requested:  1.00D-05
          Convergence on gradient requested:  1.00D-07
 
              XC Information
              --------------
                    Becke 1988 Exchange Functional  1.000          
              Lee-Yang-Parr Correlation Functional  1.000          
 
             Grid Information
             ----------------
          Grid used for XC integration:  xfine     
          Radial quadrature: Mura-Knowles        
          Angular quadrature: Lebedev. 
          Tag              B.-S. Rad. Rad. Pts. Rad. Cut. Ang. Pts.
          ---              ---------- --------- --------- ---------
          O                   0.60      100          11.0      1454
          C                   0.70      100          11.0      1454
          H                   0.35      100          12.0      1202
          Grid pruning is: on 
          Number of quadrature shells:  1000
          Spatial weights used:  Erf1
 
          Convergence Information
          -----------------------
          Convergence aids based upon iterative change in 
          total energy or number of iterations. 
          Levelshifting, if invoked, occurs when the 
          HOMO/LUMO gap drops below (HL_TOL):  1.00D-02
          DIIS, if invoked, will attempt to extrapolate 
          using up to (NFOCK): 10 stored Fock matrices.

                    Damping( 0%)  Levelshifting(0.0)       DIIS
                  --------------- ------------------- ---------------
          dE  on:    start             N/A                start   
          dE off:    2 iters           N/A              250 iters 

 
      Screening Tolerance Information
      -------------------------------
          Density screening/tol_rho:  1.00D-11
          AO Gaussian exp screening on grid/accAOfunc:  18
          CD Gaussian exp screening on grid/accCDfunc:  20
          XC Gaussian exp screening on grid/accXCfunc:  20
          Schwarz screening/accCoul:  1.00D-09

 
      Superposition of Atomic Density Guess
      -------------------------------------
 
 Sum of atomic energies:        -190.79714706
 
      Non-variational initial energy
      ------------------------------

 Total energy =    -193.174411
 1-e energy   =    -502.175804
 2-e energy   =     185.389978
 HOMO         =      -0.353394
 LUMO         =       0.090557
 
   Time after variat. SCF:      0.5
   Time prior to 1st pass:      0.5

 Grid_pts file          = ./methyloxirane_blyp-def2-tzvp_488.9_18.inp.gridpts.0
 Record size in doubles =  12289        No. of grid_pts per rec  =   3070
 Max. records in memory =     76        Max. recs in file   =    554552


           Memory utilization after 1st SCF pass: 
           Heap Space remaining (MW):       12.17            12167542
          Stack Space remaining (MW):       13.11            13106116

   convergence    iter        energy       DeltaE   RMS-Dens  Diis-err    time
 ---------------- ----- ----------------- --------- --------- ---------  ------
 d= 0,ls=0.0,diis     1   -193.0207265634 -3.17D+02  8.94D-03  1.06D+00     6.3
 d= 0,ls=0.0,diis     2   -192.8655922069  1.55D-01  7.37D-03  2.49D+00    11.8
 d= 0,ls=0.0,diis     3   -193.0765214798 -2.11D-01  1.82D-03  3.92D-01    17.2
 d= 0,ls=0.0,diis     4   -193.1071169769 -3.06D-02  6.84D-04  1.83D-02    22.7
 d= 0,ls=0.0,diis     5   -193.1087945531 -1.68D-03  2.92D-04  2.72D-03    28.1
 d= 0,ls=0.0,diis     6   -193.1091335032 -3.39D-04  3.02D-05  3.52D-05    33.6
 d= 0,ls=0.0,diis     7   -193.1091376705 -4.17D-06  8.35D-06  4.25D-06    39.1
 d= 0,ls=0.0,diis     8   -193.1091381360 -4.65D-07  2.20D-06  3.26D-07    44.5
 d= 0,ls=0.0,diis     9   -193.1091381709 -3.49D-08  7.15D-07  2.06D-08    50.0
 d= 0,ls=0.0,diis    10   -193.1091381732 -2.29D-09  2.10D-07  2.85D-09    55.4


         Total DFT energy =     -193.109138173194
      One electron energy =     -505.825632088710
           Coulomb energy =      216.128229630052
    Exchange-Corr. energy =      -27.023150609853
 Nuclear repulsion energy =      123.611414895317

 Numeric. integr. density =       32.000000016746

     Total iterative time =     54.9s


 
                       DFT Final Molecular Orbital Analysis
                       ------------------------------------
 
 Vector    1  Occ=2.000000D+00  E=-1.878060D+01
              MO Center= -8.8D-01, -1.8D-01,  2.1D-01, r^2= 1.5D-02
   Bfn.  Coefficient  Atom+Function         Bfn.  Coefficient  Atom+Function  
  ----- ------------  ---------------      ----- ------------  ---------------
     2      0.638475   1 O  s                 1      0.435422   1 O  s         
     3      0.039912   1 O  s                 4     -0.033336   1 O  s         
 
 Vector    2  Occ=2.000000D+00  E=-9.963442D+00
              MO Center=  5.7D-01, -1.6D-01,  1.2D-01, r^2= 2.8D-02
   Bfn.  Coefficient  Atom+Function         Bfn.  Coefficient  Atom+Function  
  ----- ------------  ---------------      ----- ------------  ---------------
    33      0.606907   2 C  s                32      0.467261   2 C  s         
    34      0.042442   2 C  s                36      0.037480   2 C  s         
    35     -0.026821   2 C  s         
 
 Vector    3  Occ=2.000000D+00  E=-9.955492D+00
              MO Center= -1.8D-01,  1.1D+00,  3.4D-01, r^2= 2.8D-02
   Bfn.  Coefficient  Atom+Function         Bfn.  Coefficient  Atom+Function  
  ----- ------------  ---------------      ----- ------------  ---------------
    64      0.607012   3 C  s                63      0.467223   3 C  s         
    65      0.039770   3 C  s         
 
 Vector    4  Occ=2.000000D+00  E=-9.907882D+00
              MO Center=  1.2D+00, -5.2D-01, -1.2D+00, r^2= 2.8D-02
   Bfn.  Coefficient  Atom+Function         Bfn.  Coefficient  Atom+Function  
  ----- ------------  ---------------      ----- ------------  ---------------
    95      0.606962   4 C  s                94      0.467216   4 C  s         
    96      0.040621   4 C  s                98      0.035749   4 C  s         
 
 Vector    5  Occ=2.000000D+00  E=-9.648662D-01
              MO Center= -4.7D-01,  5.6D-02,  2.1D-01, r^2= 6.4D-01
   Bfn.  Coefficient  Atom+Function         Bfn.  Coefficient  Atom+Function  
  ----- ------------  ---------------      ----- ------------  ---------------
     4      0.375102   1 O  s                 3      0.277196   1 O  s         
     2     -0.192673   1 O  s                34      0.140125   2 C  s         
    65      0.139551   3 C  s                 5      0.122327   1 O  s         
    35      0.105266   2 C  s                 6      0.093783   1 O  px        
    66      0.092958   3 C  s                69     -0.092108   3 C  py        
 
 Vector    6  Occ=2.000000D+00  E=-6.695595D-01
              MO Center=  9.4D-01, -3.9D-01, -7.7D-01, r^2= 1.5D+00
   Bfn.  Coefficient  Atom+Function         Bfn.  Coefficient  Atom+Function  
  ----- ------------  ---------------      ----- ------------  ---------------
    97      0.284875   4 C  s                96      0.275913   4 C  s         
    35      0.185731   2 C  s                34      0.174734   2 C  s         
    95     -0.173741   4 C  s                 4     -0.148087   1 O  s         
    33     -0.109167   2 C  s                 3     -0.103388   1 O  s         
    94     -0.083248   4 C  s                 5     -0.073239   1 O  s         
 
 Vector    7  Occ=2.000000D+00  E=-5.903795D-01
              MO Center= -1.3D-01,  7.2D-01,  2.2D-01, r^2= 2.0D+00
   Bfn.  Coefficient  Atom+Function         Bfn.  Coefficient  Atom+Function  
  ----- ------------  ---------------      ----- ------------  ---------------
    66      0.326536   3 C  s                65      0.278071   3 C  s         
     4     -0.237340   1 O  s                64     -0.171949   3 C  s         
     3     -0.167391   1 O  s                 5     -0.147253   1 O  s         
     2      0.110551   1 O  s                38      0.105344   2 C  py        
   132      0.102606   6 H  s                97     -0.099506   4 C  s         
 
 Vector    8  Occ=2.000000D+00  E=-5.305812D-01
              MO Center=  4.1D-01,  2.1D-02, -9.6D-02, r^2= 2.7D+00
   Bfn.  Coefficient  Atom+Function         Bfn.  Coefficient  Atom+Function  
  ----- ------------  ---------------      ----- ------------  ---------------
    35      0.303045   2 C  s                34      0.224860   2 C  s         
    97     -0.155162   4 C  s                66     -0.152667   3 C  s         
    33     -0.138256   2 C  s               126      0.131511   5 H  s         
    96     -0.129365   4 C  s                 6      0.108130   1 O  px        
   125      0.105245   5 H  s                65     -0.098056   3 C  s         
 
 Vector    9  Occ=2.000000D+00  E=-4.477990D-01
              MO Center=  1.2D-01,  2.6D-01,  2.6D-01, r^2= 2.4D+00
   Bfn.  Coefficient  Atom+Function         Bfn.  Coefficient  Atom+Function  
  ----- ------------  ---------------      ----- ------------  ---------------
    70      0.201985   3 C  pz               39      0.154427   2 C  pz        
   132      0.141529   6 H  s                73      0.127881   3 C  pz        
     8      0.124764   1 O  pz              126      0.120359   5 H  s         
     6     -0.115376   1 O  px               38     -0.114201   2 C  py        
    37      0.110235   2 C  px              131      0.105177   6 H  s         
 
 Vector   10  Occ=2.000000D+00  E=-4.146108D-01
              MO Center=  6.4D-02,  2.8D-01, -2.5D-01, r^2= 2.6D+00
   Bfn.  Coefficient  Atom+Function         Bfn.  Coefficient  Atom+Function  
  ----- ------------  ---------------      ----- ------------  ---------------
    69      0.213649   3 C  py              101      0.153630   4 C  pz        
   138      0.153863   7 H  s                38     -0.136239   2 C  py        
     6     -0.134973   1 O  px                7     -0.125491   1 O  py        
    37      0.121338   2 C  px               70     -0.121226   3 C  pz        
    72      0.119491   3 C  py              137      0.111663   7 H  s         
 
 Vector   11  Occ=2.000000D+00  E=-3.768019D-01
              MO Center=  8.8D-01, -3.1D-01, -7.3D-01, r^2= 2.7D+00
   Bfn.  Coefficient  Atom+Function         Bfn.  Coefficient  Atom+Function  
  ----- ------------  ---------------      ----- ------------  ---------------
    99      0.207251   4 C  px              144      0.182215   8 H  s         
   100      0.161403   4 C  py              150     -0.138063   9 H  s         
   102      0.132977   4 C  px               37      0.131602   2 C  px        
   143      0.127507   8 H  s                 6     -0.122550   1 O  px        
     7      0.119340   1 O  py              103      0.107007   4 C  py        
 
 Vector   12  Occ=2.000000D+00  E=-3.558138D-01
              MO Center=  6.1D-01, -3.5D-01, -9.0D-01, r^2= 2.8D+00
   Bfn.  Coefficient  Atom+Function         Bfn.  Coefficient  Atom+Function  
  ----- ------------  ---------------      ----- ------------  ---------------
   100      0.257990   4 C  py              150     -0.187072   9 H  s         
   156      0.178046  10 H  s               103      0.167342   4 C  py        
     7     -0.165971   1 O  py               10     -0.132712   1 O  py        
   149     -0.130329   9 H  s               155      0.126087  10 H  s         
    70      0.114991   3 C  pz              106      0.104338   4 C  py        
 
 Vector   13  Occ=2.000000D+00  E=-3.281386D-01
              MO Center=  2.8D-01,  2.2D-01, -2.5D-01, r^2= 2.8D+00
   Bfn.  Coefficient  Atom+Function         Bfn.  Coefficient  Atom+Function  
  ----- ------------  ---------------      ----- ------------  ---------------
     7      0.201146   1 O  py               39     -0.184504   2 C  pz        
    10      0.162770   1 O  py               99     -0.163486   4 C  px        
   101      0.162542   4 C  pz               70      0.156100   3 C  pz        
   138     -0.156824   7 H  s                42     -0.125497   2 C  pz        
   144     -0.119132   8 H  s                 6     -0.116428   1 O  px        
 
 Vector   14  Occ=2.000000D+00  E=-3.213107D-01
              MO Center=  4.6D-01, -2.1D-03, -2.0D-01, r^2= 3.0D+00
   Bfn.  Coefficient  Atom+Function         Bfn.  Coefficient  Atom+Function  
  ----- ------------  ---------------      ----- ------------  ---------------
   126      0.178236   5 H  s                39      0.170435   2 C  pz        
     7      0.166411   1 O  py              156      0.157923  10 H  s         
   101     -0.155901   4 C  pz               10      0.136909   1 O  py        
    99     -0.129076   4 C  px                6     -0.127599   1 O  px        
   132     -0.127842   6 H  s               125      0.121478   5 H  s         
 
 Vector   15  Occ=2.000000D+00  E=-2.647082D-01
              MO Center=  1.6D-02,  1.4D-01,  3.1D-02, r^2= 2.3D+00
   Bfn.  Coefficient  Atom+Function         Bfn.  Coefficient  Atom+Function  
  ----- ------------  ---------------      ----- ------------  ---------------
    68      0.264276   3 C  px               38      0.255793   2 C  py        
     6     -0.237376   1 O  px               41      0.198934   2 C  py        
    71      0.195770   3 C  px                9     -0.185627   1 O  px        
    12     -0.156736   1 O  px              150      0.115677   9 H  s         
   100     -0.112227   4 C  py               67      0.106495   3 C  s         
 
 Vector   16  Occ=2.000000D+00  E=-2.201420D-01
              MO Center= -5.7D-01, -1.7D-02,  2.0D-01, r^2= 1.6D+00
   Bfn.  Coefficient  Atom+Function         Bfn.  Coefficient  Atom+Function  
  ----- ------------  ---------------      ----- ------------  ---------------
     8      0.447860   1 O  pz               11      0.356879   1 O  pz        
    14      0.295326   1 O  pz              133     -0.132127   6 H  s         
   139      0.117512   7 H  s               132     -0.105856   6 H  s         
   138      0.105689   7 H  s               145     -0.101800   8 H  s         
   126     -0.096819   5 H  s                98      0.086893   4 C  s         
 
 Vector   17  Occ=0.000000D+00  E= 2.590355D-02
              MO Center=  1.2D+00, -1.1D-01, -6.0D-01, r^2= 7.3D+00
   Bfn.  Coefficient  Atom+Function         Bfn.  Coefficient  Atom+Function  
  ----- ------------  ---------------      ----- ------------  ---------------
    98      4.481918   4 C  s               145     -1.533390   8 H  s         
   151     -1.511800   9 H  s               157     -1.335296  10 H  s         
   127     -1.241255   5 H  s                45      1.128090   2 C  pz        
   139     -0.866703   7 H  s                67      0.675730   3 C  s         
   133     -0.613503   6 H  s                75      0.340423   3 C  py        
 
 Vector   18  Occ=0.000000D+00  E= 4.319760D-02
              MO Center= -8.3D-02,  6.3D-01,  7.2D-02, r^2= 4.7D+00
   Bfn.  Coefficient  Atom+Function         Bfn.  Coefficient  Atom+Function  
  ----- ------------  ---------------      ----- ------------  ---------------
    98      2.330305   4 C  s                36     -1.899605   2 C  s         
     5      1.307232   1 O  s                74      0.905694   3 C  px        
   151     -0.867607   9 H  s                45      0.554645   2 C  pz        
   157     -0.458157  10 H  s               145     -0.447507   8 H  s         
    13      0.440387   1 O  py               75      0.377147   3 C  py        
 
 Vector   19  Occ=0.000000D+00  E= 4.992922D-02
              MO Center=  2.7D-01,  7.4D-01, -1.1D-01, r^2= 6.4D+00
   Bfn.  Coefficient  Atom+Function         Bfn.  Coefficient  Atom+Function  
  ----- ------------  ---------------      ----- ------------  ---------------
    67      3.337405   3 C  s                36     -2.597763   2 C  s         
   139     -1.679512   7 H  s               127      1.468134   5 H  s         
    44     -0.697081   2 C  py              133     -0.684282   6 H  s         
   145      0.672438   8 H  s               157     -0.599274  10 H  s         
    45     -0.583086   2 C  pz               74      0.545670   3 C  px        
 
 Vector   20  Occ=0.000000D+00  E= 5.140363D-02
              MO Center=  6.3D-01,  3.8D-01,  4.4D-01, r^2= 7.5D+00
   Bfn.  Coefficient  Atom+Function         Bfn.  Coefficient  Atom+Function  
  ----- ------------  ---------------      ----- ------------  ---------------
    98      3.275042   4 C  s                67     -1.990263   3 C  s         
   133      1.730852   6 H  s               127      1.589003   5 H  s         
    36     -1.368455   2 C  s               157     -1.243531  10 H  s         
   145     -1.025922   8 H  s                44      0.976501   2 C  py        
    43     -0.751808   2 C  px              151     -0.621821   9 H  s         
 
 Vector   21  Occ=0.000000D+00  E= 6.529549D-02
              MO Center=  2.7D-01,  9.5D-02, -1.5D-01, r^2= 4.7D+00
   Bfn.  Coefficient  Atom+Function         Bfn.  Coefficient  Atom+Function  
  ----- ------------  ---------------      ----- ------------  ---------------
   139      1.211328   7 H  s                98      1.176004   4 C  s         
   151     -0.953497   9 H  s                67     -0.928445   3 C  s         
     5     -0.904030   1 O  s                43     -0.839772   2 C  px        
   133      0.603429   6 H  s                75     -0.588899   3 C  py        
    12     -0.493354   1 O  px               35      0.401528   2 C  s         
 
 Vector   22  Occ=0.000000D+00  E= 8.623216D-02
              MO Center=  1.3D+00,  2.2D-01, -5.1D-01, r^2= 7.1D+00
   Bfn.  Coefficient  Atom+Function         Bfn.  Coefficient  Atom+Function  
  ----- ------------  ---------------      ----- ------------  ---------------
    36      2.968263   2 C  s               145      1.967314   8 H  s         
    67     -1.387442   3 C  s               157     -1.348836  10 H  s         
   127     -1.314370   5 H  s               133      1.174256   6 H  s         
   107     -1.164124   4 C  pz               98     -1.047576   4 C  s         
   105     -0.975160   4 C  px               75      0.779556   3 C  py        
 
 Vector   23  Occ=0.000000D+00  E= 9.122112D-02
              MO Center=  1.2D+00, -6.5D-01, -5.7D-01, r^2= 6.5D+00
   Bfn.  Coefficient  Atom+Function         Bfn.  Coefficient  Atom+Function  
  ----- ------------  ---------------      ----- ------------  ---------------
    36      2.419777   2 C  s               151      2.056764   9 H  s         
   145     -1.626843   8 H  s                98     -1.290594   4 C  s         
   105      1.152445   4 C  px              106      1.134577   4 C  py        
   133      0.893087   6 H  s                67     -0.831480   3 C  s         
   127     -0.777125   5 H  s               107     -0.663099   4 C  pz        
 
 Vector   24  Occ=0.000000D+00  E= 1.025163D-01
              MO Center=  4.3D-01,  4.1D-01, -1.1D+00, r^2= 6.8D+00
   Bfn.  Coefficient  Atom+Function         Bfn.  Coefficient  Atom+Function  
  ----- ------------  ---------------      ----- ------------  ---------------
   157      2.038530  10 H  s               133      1.569923   6 H  s         
   106     -1.475376   4 C  py              139     -1.456103   7 H  s         
   151     -1.442447   9 H  s                98     -1.393926   4 C  s         
    36      1.252310   2 C  s                76     -1.120559   3 C  pz        
   105      0.986850   4 C  px               45     -0.517262   2 C  pz        
 
 Vector   25  Occ=0.000000D+00  E= 1.392368D-01
              MO Center=  8.2D-01,  1.6D-01, -4.7D-01, r^2= 7.8D+00
   Bfn.  Coefficient  Atom+Function         Bfn.  Coefficient  Atom+Function  
  ----- ------------  ---------------      ----- ------------  ---------------
    36      4.689686   2 C  s                98     -3.569983   4 C  s         
    45     -3.428250   2 C  pz               67     -2.803245   3 C  s         
   127      2.726917   5 H  s                76      2.145186   3 C  pz        
   105      2.103020   4 C  px              133     -1.781954   6 H  s         
   139      1.681819   7 H  s               107     -1.593617   4 C  pz        
 
 Vector   26  Occ=0.000000D+00  E= 1.711392D-01
              MO Center=  4.8D-01,  5.1D-01, -1.0D-01, r^2= 7.2D+00
   Bfn.  Coefficient  Atom+Function         Bfn.  Coefficient  Atom+Function  
  ----- ------------  ---------------      ----- ------------  ---------------
    75      2.368457   3 C  py               67     -1.721537   3 C  s         
    36      1.679498   2 C  s               107      1.584713   4 C  pz        
   139     -1.143088   7 H  s               157      1.041982  10 H  s         
    74     -0.988151   3 C  px               44      0.770867   2 C  py        
    43     -0.627356   2 C  px              106     -0.628388   4 C  py        
 
 Vector   27  Occ=0.000000D+00  E= 1.973925D-01
              MO Center=  8.4D-01, -7.0D-02, -9.7D-01, r^2= 5.1D+00
   Bfn.  Coefficient  Atom+Function         Bfn.  Coefficient  Atom+Function  
  ----- ------------  ---------------      ----- ------------  ---------------
    67      3.121298   3 C  s                44     -2.604095   2 C  py        
   106      2.000565   4 C  py               36     -1.727556   2 C  s         
    43      1.005606   2 C  px               74      0.714588   3 C  px        
   157     -0.675301  10 H  s               105      0.654968   4 C  px        
    45     -0.646710   2 C  pz              150      0.644930   9 H  s         
 
 Vector   28  Occ=0.000000D+00  E= 2.028702D-01
              MO Center=  9.0D-01, -4.3D-01, -6.9D-01, r^2= 6.8D+00
   Bfn.  Coefficient  Atom+Function         Bfn.  Coefficient  Atom+Function  
  ----- ------------  ---------------      ----- ------------  ---------------
    36      2.872802   2 C  s                75      1.858376   3 C  py        
   105     -1.465908   4 C  px              133     -1.265822   6 H  s         
   107     -0.895757   4 C  pz              139     -0.791506   7 H  s         
   106      0.745321   4 C  py               45      0.723034   2 C  pz        
   156     -0.705621  10 H  s                76      0.693899   3 C  pz        
 
 Vector   29  Occ=0.000000D+00  E= 2.361227D-01
              MO Center= -3.4D-01,  4.4D-01, -8.0D-03, r^2= 5.4D+00
   Bfn.  Coefficient  Atom+Function         Bfn.  Coefficient  Atom+Function  
  ----- ------------  ---------------      ----- ------------  ---------------
    67      4.657819   3 C  s                36     -3.011459   2 C  s         
   139     -1.522893   7 H  s                66     -1.469304   3 C  s         
   133     -1.302124   6 H  s                98      1.206145   4 C  s         
   107      0.901843   4 C  pz               74     -0.832661   3 C  px        
     5     -0.727984   1 O  s               106      0.721899   4 C  py        
 
 Vector   30  Occ=0.000000D+00  E= 2.482936D-01
              MO Center=  5.6D-01, -2.4D-03, -1.2D-01, r^2= 5.8D+00
   Bfn.  Coefficient  Atom+Function         Bfn.  Coefficient  Atom+Function  
  ----- ------------  ---------------      ----- ------------  ---------------
    67      5.904844   3 C  s                43      4.206090   2 C  px        
    75     -3.105013   3 C  py               44     -2.689217   2 C  py        
    36     -2.210108   2 C  s               107     -2.063199   4 C  pz        
   157     -1.849244  10 H  s                45     -1.511606   2 C  pz        
    98     -1.377738   4 C  s               105     -1.187880   4 C  px        
 
 Vector   31  Occ=0.000000D+00  E= 2.682806D-01
              MO Center=  3.1D-01, -1.1D-01,  2.4D-01, r^2= 5.7D+00
   Bfn.  Coefficient  Atom+Function         Bfn.  Coefficient  Atom+Function  
  ----- ------------  ---------------      ----- ------------  ---------------
    36      4.452356   2 C  s                 5     -2.130865   1 O  s         
    67      2.085003   3 C  s               105      1.573399   4 C  px        
    43     -1.563965   2 C  px               98     -1.208437   4 C  s         
    66     -1.176825   3 C  s               139     -0.962525   7 H  s         
   133     -0.939865   6 H  s               127     -0.808998   5 H  s         
 
 Vector   32  Occ=0.000000D+00  E= 2.782022D-01
              MO Center=  3.6D-01,  2.7D-01,  2.9D-01, r^2= 4.2D+00
   Bfn.  Coefficient  Atom+Function         Bfn.  Coefficient  Atom+Function  
  ----- ------------  ---------------      ----- ------------  ---------------
    36      2.641729   2 C  s                 5     -1.845004   1 O  s         
    67     -1.503130   3 C  s                43     -1.332705   2 C  px        
    74     -0.706424   3 C  px               98     -0.670995   4 C  s         
    45     -0.604661   2 C  pz              145      0.564539   8 H  s         
     4      0.496621   1 O  s               132      0.378863   6 H  s         
 
 Vector   33  Occ=0.000000D+00  E= 2.995635D-01
              MO Center=  4.4D-01,  4.0D-01, -3.8D-01, r^2= 5.1D+00
   Bfn.  Coefficient  Atom+Function         Bfn.  Coefficient  Atom+Function  
  ----- ------------  ---------------      ----- ------------  ---------------
    43      1.906054   2 C  px              106      1.793253   4 C  py        
   151      1.655587   9 H  s                98     -1.604841   4 C  s         
    36     -1.462369   2 C  s                76      1.375863   3 C  pz        
    44     -1.333496   2 C  py               66      1.078183   3 C  s         
   107     -1.011158   4 C  pz              139      0.970349   7 H  s         
 
 Vector   34  Occ=0.000000D+00  E= 3.366163D-01
              MO Center=  9.8D-02,  4.3D-01, -3.9D-01, r^2= 5.9D+00
   Bfn.  Coefficient  Atom+Function         Bfn.  Coefficient  Atom+Function  
  ----- ------------  ---------------      ----- ------------  ---------------
    67      4.416292   3 C  s                76     -3.982182   3 C  pz        
   139     -3.089164   7 H  s                36     -2.113608   2 C  s         
   133      2.084265   6 H  s               107     -1.849464   4 C  pz        
   157     -1.744881  10 H  s                43      1.467866   2 C  px        
    44     -1.189130   2 C  py               98      1.157023   4 C  s         
 
 Vector   35  Occ=0.000000D+00  E= 3.625856D-01
              MO Center=  8.2D-01, -5.4D-02, -4.1D-01, r^2= 6.7D+00
   Bfn.  Coefficient  Atom+Function         Bfn.  Coefficient  Atom+Function  
  ----- ------------  ---------------      ----- ------------  ---------------
    98      8.076959   4 C  s               145     -3.294749   8 H  s         
    97     -3.224314   4 C  s                76      3.061479   3 C  pz        
   133     -2.208434   6 H  s               151     -2.014094   9 H  s         
    45     -1.534107   2 C  pz              157     -1.499040  10 H  s         
   139      1.457004   7 H  s                44      1.436664   2 C  py        
 
 Vector   36  Occ=0.000000D+00  E= 3.714834D-01
              MO Center=  5.2D-01,  2.8D-01, -3.7D-02, r^2= 6.4D+00
   Bfn.  Coefficient  Atom+Function         Bfn.  Coefficient  Atom+Function  
  ----- ------------  ---------------      ----- ------------  ---------------
    36     12.666661   2 C  s                67     -8.411099   3 C  s         
    98     -8.402447   4 C  s               127     -3.132596   5 H  s         
    97      2.333661   4 C  s               157      2.164734  10 H  s         
    44      1.937848   2 C  py               35     -1.866177   2 C  s         
   151      1.662011   9 H  s                74     -1.613320   3 C  px        
 
 Vector   37  Occ=0.000000D+00  E= 3.852458D-01
              MO Center=  9.0D-01, -3.3D-01, -1.1D-01, r^2= 6.1D+00
   Bfn.  Coefficient  Atom+Function         Bfn.  Coefficient  Atom+Function  
  ----- ------------  ---------------      ----- ------------  ---------------
    36      6.087767   2 C  s                98      4.124329   4 C  s         
   127     -4.095846   5 H  s                45      2.883951   2 C  pz        
    67     -2.628673   3 C  s                35     -2.279804   2 C  s         
   151     -2.261468   9 H  s               145     -2.028160   8 H  s         
    76     -1.982376   3 C  pz              133      1.687104   6 H  s         
 
 Vector   38  Occ=0.000000D+00  E= 3.948206D-01
              MO Center=  1.5D-01,  1.5D-01, -1.1D-01, r^2= 6.5D+00
   Bfn.  Coefficient  Atom+Function         Bfn.  Coefficient  Atom+Function  
  ----- ------------  ---------------      ----- ------------  ---------------
    98     12.236369   4 C  s                67     -5.389430   3 C  s         
    45      5.361751   2 C  pz               76     -3.034224   3 C  pz        
   157     -2.678035  10 H  s               133      2.471409   6 H  s         
    36     -2.453371   2 C  s                44      2.195362   2 C  py        
    43     -1.834688   2 C  px               75      1.734482   3 C  py        
 
 Vector   39  Occ=0.000000D+00  E= 4.015676D-01
              MO Center= -2.2D-01,  2.0D-01,  2.4D-01, r^2= 6.5D+00
   Bfn.  Coefficient  Atom+Function         Bfn.  Coefficient  Atom+Function  
  ----- ------------  ---------------      ----- ------------  ---------------
    67    -12.752843   3 C  s                36     11.853697   2 C  s         
    45     -4.784575   2 C  pz               98     -4.236308   4 C  s         
    44      4.188725   2 C  py              127      2.923414   5 H  s         
    66      2.743462   3 C  s                43     -2.691335   2 C  px        
   139      2.368839   7 H  s               105      2.206040   4 C  px        
 
 Vector   40  Occ=0.000000D+00  E= 4.151214D-01
              MO Center=  8.2D-01, -3.5D-01, -8.7D-01, r^2= 5.8D+00
   Bfn.  Coefficient  Atom+Function         Bfn.  Coefficient  Atom+Function  
  ----- ------------  ---------------      ----- ------------  ---------------
    98      7.572659   4 C  s                36     -3.980393   2 C  s         
    45      3.340781   2 C  pz              105     -2.690223   4 C  px        
   151     -2.401370   9 H  s               157     -2.201162  10 H  s         
   145      1.780523   8 H  s                97     -1.160893   4 C  s         
   127     -1.119431   5 H  s               144     -0.960667   8 H  s         
 
 Vector   41  Occ=0.000000D+00  E= 4.274195D-01
              MO Center=  5.1D-01,  1.2D-01, -2.4D-01, r^2= 6.8D+00
   Bfn.  Coefficient  Atom+Function         Bfn.  Coefficient  Atom+Function  
  ----- ------------  ---------------      ----- ------------  ---------------
    36      8.216923   2 C  s                67     -4.147246   3 C  s         
    98     -3.192455   4 C  s               151      2.398477   9 H  s         
    44      2.276262   2 C  py               75      2.263393   3 C  py        
    43     -1.493369   2 C  px               74     -1.314431   3 C  px        
   132      1.320508   6 H  s               133     -1.192807   6 H  s         
 
 Vector   42  Occ=0.000000D+00  E= 4.476815D-01
              MO Center=  1.1D-01, -8.4D-02, -6.5D-02, r^2= 6.0D+00
   Bfn.  Coefficient  Atom+Function         Bfn.  Coefficient  Atom+Function  
  ----- ------------  ---------------      ----- ------------  ---------------
    36     10.054676   2 C  s                98     -9.220137   4 C  s         
    45     -5.794721   2 C  pz               67     -3.127180   3 C  s         
   127      2.907975   5 H  s                76      2.748861   3 C  pz        
    44      2.168225   2 C  py              133     -2.130442   6 H  s         
    35     -2.028828   2 C  s               106     -1.966240   4 C  py        
 
 Vector   43  Occ=0.000000D+00  E= 4.584764D-01
              MO Center= -1.1D-02,  9.8D-01, -4.2D-01, r^2= 4.8D+00
   Bfn.  Coefficient  Atom+Function         Bfn.  Coefficient  Atom+Function  
  ----- ------------  ---------------      ----- ------------  ---------------
   139      3.108848   7 H  s                36     -2.639041   2 C  s         
    75     -2.387163   3 C  py              157     -2.338350  10 H  s         
    44     -1.836174   2 C  py              107     -1.701956   4 C  pz        
    43      1.642395   2 C  px              138     -1.580339   7 H  s         
    98      1.507098   4 C  s                67      1.065583   3 C  s         
 
 Vector   44  Occ=0.000000D+00  E= 4.690961D-01
              MO Center=  5.5D-01,  7.4D-02, -1.7D-01, r^2= 5.7D+00
   Bfn.  Coefficient  Atom+Function         Bfn.  Coefficient  Atom+Function  
  ----- ------------  ---------------      ----- ------------  ---------------
    98      5.118557   4 C  s                36     -4.622078   2 C  s         
    45      2.409189   2 C  pz              107      2.005747   4 C  pz        
   145     -1.702802   8 H  s               133     -1.523005   6 H  s         
   157      1.449181  10 H  s                67      1.398776   3 C  s         
    35      1.250538   2 C  s                43     -1.245058   2 C  px        
 
 Vector   45  Occ=0.000000D+00  E= 5.079711D-01
              MO Center=  8.9D-01, -3.9D-01, -9.2D-01, r^2= 4.8D+00
   Bfn.  Coefficient  Atom+Function         Bfn.  Coefficient  Atom+Function  
  ----- ------------  ---------------      ----- ------------  ---------------
    98     11.321871   4 C  s                36     -7.331094   2 C  s         
    45      4.586993   2 C  pz              107      3.050543   4 C  pz        
   144     -1.339962   8 H  s               106      1.319003   4 C  py        
   156     -1.201131  10 H  s               127     -1.193885   5 H  s         
   150     -1.081463   9 H  s                14     -1.069589   1 O  pz        
 
 Vector   46  Occ=0.000000D+00  E= 5.375699D-01
              MO Center=  1.0D-01, -4.0D-01, -4.9D-01, r^2= 4.4D+00
   Bfn.  Coefficient  Atom+Function         Bfn.  Coefficient  Atom+Function  
  ----- ------------  ---------------      ----- ------------  ---------------
    98     -7.406948   4 C  s                36      6.918257   2 C  s         
    45     -3.682441   2 C  pz               76      3.183487   3 C  pz        
   133     -1.772869   6 H  s               105      1.534880   4 C  px        
   107     -1.506247   4 C  pz              139      1.442085   7 H  s         
     5     -1.165110   1 O  s                14     -1.154992   1 O  pz        
 
 Vector   47  Occ=0.000000D+00  E= 6.573144D-01
              MO Center= -3.7D-01,  3.0D-02, -3.5D-02, r^2= 4.3D+00
   Bfn.  Coefficient  Atom+Function         Bfn.  Coefficient  Atom+Function  
  ----- ------------  ---------------      ----- ------------  ---------------
    36     11.692610   2 C  s                67     -8.971785   3 C  s         
    98     -4.171125   4 C  s                43     -2.585393   2 C  px        
    75      2.433199   3 C  py               13      2.239552   1 O  py        
    76      2.057051   3 C  pz              105      1.611894   4 C  px        
   139      1.485234   7 H  s                44      1.455126   2 C  py        
 
 Vector   48  Occ=0.000000D+00  E= 6.744644D-01
              MO Center= -2.8D-01,  3.5D-01,  1.3D-01, r^2= 3.9D+00
   Bfn.  Coefficient  Atom+Function         Bfn.  Coefficient  Atom+Function  
  ----- ------------  ---------------      ----- ------------  ---------------
    36      7.964259   2 C  s                67     -7.764180   3 C  s         
     5      2.994092   1 O  s                75      2.558315   3 C  py        
    98     -2.101812   4 C  s                13      2.081972   1 O  py        
    43     -1.239824   2 C  px               45     -1.235229   2 C  pz        
     4     -1.100940   1 O  s                44      0.973421   2 C  py        
 
 Vector   49  Occ=0.000000D+00  E= 7.071604D-01
              MO Center=  1.8D-01, -3.1D-01, -2.7D-01, r^2= 4.5D+00
   Bfn.  Coefficient  Atom+Function         Bfn.  Coefficient  Atom+Function  
  ----- ------------  ---------------      ----- ------------  ---------------
    67      9.522231   3 C  s                36     -7.488305   2 C  s         
    43      3.663851   2 C  px               44     -3.500386   2 C  py        
    75     -2.708135   3 C  py               98     -2.418118   4 C  s         
     5      2.301721   1 O  s                12      1.692518   1 O  px        
   106      1.671774   4 C  py               13     -1.315457   1 O  py        
 
 Vector   50  Occ=0.000000D+00  E= 7.617276D-01
              MO Center=  6.3D-01, -1.3D-02, -3.4D-01, r^2= 4.1D+00
   Bfn.  Coefficient  Atom+Function         Bfn.  Coefficient  Atom+Function  
  ----- ------------  ---------------      ----- ------------  ---------------
    45      2.377837   2 C  pz              127     -1.688822   5 H  s         
   105     -1.645000   4 C  px               43      1.503506   2 C  px        
    36      1.423950   2 C  s                 5     -1.414401   1 O  s         
   126     -1.345990   5 H  s               144      1.270247   8 H  s         
    66      1.030573   3 C  s                76     -0.981027   3 C  pz        
 
 Vector   51  Occ=0.000000D+00  E= 7.946205D-01
              MO Center=  2.7D-01,  5.7D-02, -1.9D-01, r^2= 4.4D+00
   Bfn.  Coefficient  Atom+Function         Bfn.  Coefficient  Atom+Function  
  ----- ------------  ---------------      ----- ------------  ---------------
     5      4.111181   1 O  s                36     -2.863214   2 C  s         
    76     -2.386314   3 C  pz                4     -1.605346   1 O  s         
    45      1.514523   2 C  pz               12      1.371193   1 O  px        
    43      1.279336   2 C  px              133      1.241692   6 H  s         
    35     -1.079435   2 C  s                66     -1.051015   3 C  s         
 
 Vector   52  Occ=0.000000D+00  E= 8.316745D-01
              MO Center=  3.1D-01,  1.7D-01,  1.2D-02, r^2= 4.4D+00
   Bfn.  Coefficient  Atom+Function         Bfn.  Coefficient  Atom+Function  
  ----- ------------  ---------------      ----- ------------  ---------------
    36      6.618988   2 C  s                98     -4.007426   4 C  s         
     5     -3.916620   1 O  s                43     -2.560571   2 C  px        
   105      1.904735   4 C  px               35     -1.848631   2 C  s         
    45     -1.703048   2 C  pz               44      1.464105   2 C  py        
    66     -1.146264   3 C  s                97      1.089164   4 C  s         
 
 Vector   53  Occ=0.000000D+00  E= 8.547939D-01
              MO Center=  5.9D-01,  1.3D-01, -4.0D-01, r^2= 4.2D+00
   Bfn.  Coefficient  Atom+Function         Bfn.  Coefficient  Atom+Function  
  ----- ------------  ---------------      ----- ------------  ---------------
    36      4.880577   2 C  s                98     -4.727220   4 C  s         
    45     -4.560247   2 C  pz               76      1.944150   3 C  pz        
   127      1.793539   5 H  s               106     -1.589054   4 C  py        
    44      1.524067   2 C  py              105      1.421094   4 C  px        
     5     -1.255290   1 O  s               150     -1.201237   9 H  s         
 
 Vector   54  Occ=0.000000D+00  E= 8.701894D-01
              MO Center=  1.8D-01, -3.6D-02, -1.0D-01, r^2= 4.2D+00
   Bfn.  Coefficient  Atom+Function         Bfn.  Coefficient  Atom+Function  
  ----- ------------  ---------------      ----- ------------  ---------------
     5      4.586339   1 O  s                36     -1.677503   2 C  s         
     4     -1.540575   1 O  s               138      1.340853   7 H  s         
    76      1.275218   3 C  pz               67     -1.218046   3 C  s         
    12      1.188707   1 O  px               66     -1.098371   3 C  s         
    98     -1.075431   4 C  s                43      0.906114   2 C  px        
 
 Vector   55  Occ=0.000000D+00  E= 9.200678D-01
              MO Center=  5.5D-01,  2.5D-01, -5.2D-01, r^2= 4.6D+00
   Bfn.  Coefficient  Atom+Function         Bfn.  Coefficient  Atom+Function  
  ----- ------------  ---------------      ----- ------------  ---------------
    35      5.074463   2 C  s                36     -1.560601   2 C  s         
    66     -1.415024   3 C  s                67      1.408281   3 C  s         
    72      1.321847   3 C  py              132     -1.237231   6 H  s         
    98     -1.218828   4 C  s               156     -1.187880  10 H  s         
    41      1.149106   2 C  py               84      1.128306   3 C  d  0      
 
 Vector   56  Occ=0.000000D+00  E= 9.677108D-01
              MO Center=  4.5D-01,  2.9D-01, -5.6D-01, r^2= 4.7D+00
   Bfn.  Coefficient  Atom+Function         Bfn.  Coefficient  Atom+Function  
  ----- ------------  ---------------      ----- ------------  ---------------
    35      4.226024   2 C  s                67      2.844395   3 C  s         
   138     -2.327158   7 H  s                36     -1.966482   2 C  s         
    42     -1.778786   2 C  pz               76     -1.781375   3 C  pz        
    83     -1.638605   3 C  d -1            115     -1.519549   4 C  d  0      
    43      1.441567   2 C  px              132      1.400241   6 H  s         
 
 Vector   57  Occ=0.000000D+00  E= 9.914869D-01
              MO Center=  2.9D-01,  5.6D-01, -5.8D-02, r^2= 4.0D+00
   Bfn.  Coefficient  Atom+Function         Bfn.  Coefficient  Atom+Function  
  ----- ------------  ---------------      ----- ------------  ---------------
    36      7.075055   2 C  s                98     -4.747592   4 C  s         
    67     -3.588335   3 C  s                45     -3.559714   2 C  pz        
    43     -2.201040   2 C  px               44      2.001897   2 C  py        
    66     -1.658046   3 C  s               127      1.475669   5 H  s         
    75      1.384023   3 C  py              126      1.318237   5 H  s         
 
 Vector   58  Occ=0.000000D+00  E= 1.011685D+00
              MO Center=  4.1D-01,  4.9D-01, -8.9D-02, r^2= 4.3D+00
   Bfn.  Coefficient  Atom+Function         Bfn.  Coefficient  Atom+Function  
  ----- ------------  ---------------      ----- ------------  ---------------
    36      5.890937   2 C  s                67     -4.755708   3 C  s         
    45     -2.367978   2 C  pz               44      1.981408   2 C  py        
    98     -1.974457   4 C  s               156     -1.537839  10 H  s         
    43     -1.471202   2 C  px              144      1.412185   8 H  s         
    76      1.379869   3 C  pz               74     -1.330437   3 C  px        
 
 Vector   59  Occ=0.000000D+00  E= 1.041934D+00
              MO Center=  7.0D-01, -1.6D-01, -4.7D-01, r^2= 4.2D+00
   Bfn.  Coefficient  Atom+Function         Bfn.  Coefficient  Atom+Function  
  ----- ------------  ---------------      ----- ------------  ---------------
    36      2.861005   2 C  s                35      2.715751   2 C  s         
    66     -2.484145   3 C  s               150      1.978674   9 H  s         
     5     -1.889471   1 O  s               144     -1.889125   8 H  s         
   117      1.726285   4 C  d  2             41      1.602821   2 C  py        
    67     -1.490213   3 C  s                44      1.456526   2 C  py        
 
 Vector   60  Occ=0.000000D+00  E= 1.079531D+00
              MO Center=  6.7D-01,  1.4D-02, -6.5D-02, r^2= 4.1D+00
   Bfn.  Coefficient  Atom+Function         Bfn.  Coefficient  Atom+Function  
  ----- ------------  ---------------      ----- ------------  ---------------
    98     -4.296122   4 C  s                66      4.195719   3 C  s         
    45     -3.928369   2 C  pz               36      3.737024   2 C  s         
    97     -3.661773   4 C  s                41     -2.627861   2 C  py        
   104     -2.470331   4 C  pz               72     -2.429547   3 C  py        
    42     -2.289969   2 C  pz               53      2.260782   2 C  d  0      
 
 Vector   61  Occ=0.000000D+00  E= 1.106057D+00
              MO Center=  3.7D-01,  5.2D-02,  5.2D-02, r^2= 3.7D+00
   Bfn.  Coefficient  Atom+Function         Bfn.  Coefficient  Atom+Function  
  ----- ------------  ---------------      ----- ------------  ---------------
    36      7.178094   2 C  s                67     -4.982350   3 C  s         
    98     -2.806098   4 C  s                66      2.145012   3 C  s         
   126     -1.948361   5 H  s                45     -1.795082   2 C  pz        
   132      1.653139   6 H  s                72     -1.580064   3 C  py        
    41     -1.470657   2 C  py               53      1.376446   2 C  d  0      
 
 Vector   62  Occ=0.000000D+00  E= 1.149056D+00
              MO Center=  6.1D-01,  2.1D-02, -1.0D-02, r^2= 3.6D+00
   Bfn.  Coefficient  Atom+Function         Bfn.  Coefficient  Atom+Function  
  ----- ------------  ---------------      ----- ------------  ---------------
    67      5.253145   3 C  s                36     -4.079911   2 C  s         
    44     -2.414040   2 C  py              126      1.877657   5 H  s         
    97     -1.744593   4 C  s                54      1.575605   2 C  d  1      
    43      1.565817   2 C  px              132     -1.474171   6 H  s         
    55      1.465047   2 C  d  2             75     -1.455667   3 C  py        
 
 Vector   63  Occ=0.000000D+00  E= 1.217498D+00
              MO Center=  5.5D-01,  2.2D-01, -1.4D-01, r^2= 3.8D+00
   Bfn.  Coefficient  Atom+Function         Bfn.  Coefficient  Atom+Function  
  ----- ------------  ---------------      ----- ------------  ---------------
    36      6.816971   2 C  s                66     -5.123964   3 C  s         
    97     -3.438405   4 C  s                67     -3.208923   3 C  s         
    35      3.165760   2 C  s                72      1.951412   3 C  py        
    51     -1.753285   2 C  d -2            138      1.746996   7 H  s         
    52      1.724845   2 C  d -1             41      1.551002   2 C  py        
 
 Vector   64  Occ=0.000000D+00  E= 1.349328D+00
              MO Center=  3.4D-01,  5.5D-01,  2.4D-01, r^2= 3.6D+00
   Bfn.  Coefficient  Atom+Function         Bfn.  Coefficient  Atom+Function  
  ----- ------------  ---------------      ----- ------------  ---------------
    66      4.624327   3 C  s                35      4.000159   2 C  s         
    67     -3.025761   3 C  s                36     -2.756574   2 C  s         
    65     -2.403715   3 C  s               132     -2.121179   6 H  s         
   133      1.464987   6 H  s                34     -1.452805   2 C  s         
    72      1.421529   3 C  py              139      1.051205   7 H  s         
 
 Vector   65  Occ=0.000000D+00  E= 1.415496D+00
              MO Center=  1.4D-01,  5.4D-01, -6.0D-02, r^2= 3.4D+00
   Bfn.  Coefficient  Atom+Function         Bfn.  Coefficient  Atom+Function  
  ----- ------------  ---------------      ----- ------------  ---------------
    36      4.063495   2 C  s                35     -3.675659   2 C  s         
    66      3.676081   3 C  s                67     -3.630187   3 C  s         
    73     -2.391097   3 C  pz              138     -2.267115   7 H  s         
   139      2.208979   7 H  s                76      1.731062   3 C  pz        
   126      1.688895   5 H  s                34      1.481290   2 C  s         
 
 Vector   66  Occ=0.000000D+00  E= 1.432556D+00
              MO Center=  1.0D+00, -4.4D-01, -1.1D+00, r^2= 3.6D+00
   Bfn.  Coefficient  Atom+Function         Bfn.  Coefficient  Atom+Function  
  ----- ------------  ---------------      ----- ------------  ---------------
    98      9.892642   4 C  s                97     -7.461211   4 C  s         
    96      3.019712   4 C  s                36     -2.471587   2 C  s         
   145     -2.399170   8 H  s               151     -2.255784   9 H  s         
   157     -2.060468  10 H  s               144      1.738080   8 H  s         
   150      1.585891   9 H  s               104      1.466336   4 C  pz        
 
 Vector   67  Occ=0.000000D+00  E= 1.442844D+00
              MO Center=  3.8D-01, -2.6D-02, -8.8D-02, r^2= 4.2D+00
   Bfn.  Coefficient  Atom+Function         Bfn.  Coefficient  Atom+Function  
  ----- ------------  ---------------      ----- ------------  ---------------
    66      4.525741   3 C  s                98      3.981507   4 C  s         
    35     -3.501862   2 C  s                67     -3.031307   3 C  s         
    45      2.138819   2 C  pz              133      1.981100   6 H  s         
    97     -1.970439   4 C  s                76     -1.785907   3 C  pz        
   127     -1.767382   5 H  s                36      1.714925   2 C  s         
 
 Vector   68  Occ=0.000000D+00  E= 1.446559D+00
              MO Center=  3.1D-01,  5.0D-03, -1.9D-01, r^2= 3.1D+00
   Bfn.  Coefficient  Atom+Function         Bfn.  Coefficient  Atom+Function  
  ----- ------------  ---------------      ----- ------------  ---------------
    98      4.563704   4 C  s                36     -2.800403   2 C  s         
    97     -2.529444   4 C  s                 5      2.122357   1 O  s         
    45      1.759524   2 C  pz               35     -1.172555   2 C  s         
   127     -1.110624   5 H  s                67      1.091181   3 C  s         
    96      1.068308   4 C  s                44     -1.053737   2 C  py        
 
 Vector   69  Occ=0.000000D+00  E= 1.474685D+00
              MO Center=  9.3D-01, -2.8D-01, -9.7D-01, r^2= 3.5D+00
   Bfn.  Coefficient  Atom+Function         Bfn.  Coefficient  Atom+Function  
  ----- ------------  ---------------      ----- ------------  ---------------
    66      2.284797   3 C  s                67     -1.343119   3 C  s         
    36      1.244310   2 C  s                 5     -1.190053   1 O  s         
    65     -0.966245   3 C  s               133      0.928537   6 H  s         
    71     -0.921588   3 C  px               97      0.901001   4 C  s         
   103      0.899625   4 C  py               98     -0.862154   4 C  s         
 
 Vector   70  Occ=0.000000D+00  E= 1.478299D+00
              MO Center=  9.8D-01, -3.8D-01, -1.0D+00, r^2= 3.3D+00
   Bfn.  Coefficient  Atom+Function         Bfn.  Coefficient  Atom+Function  
  ----- ------------  ---------------      ----- ------------  ---------------
    36      2.834673   2 C  s               156     -2.756296  10 H  s         
   157      2.113884  10 H  s               102     -2.075426   4 C  px        
   104     -1.792649   4 C  pz              126      1.743538   5 H  s         
   103      1.724592   4 C  py               66     -1.710061   3 C  s         
   127     -1.376890   5 H  s                35     -1.322795   2 C  s         
 
 Vector   71  Occ=0.000000D+00  E= 1.509188D+00
              MO Center=  2.3D-01,  2.5D-01, -2.5D-01, r^2= 3.9D+00
   Bfn.  Coefficient  Atom+Function         Bfn.  Coefficient  Atom+Function  
  ----- ------------  ---------------      ----- ------------  ---------------
    98      3.191277   4 C  s               144      1.747323   8 H  s         
    97     -1.594641   4 C  s                36     -1.573106   2 C  s         
   102     -1.417207   4 C  px              145     -1.360559   8 H  s         
    45      1.334676   2 C  pz              103     -1.208675   4 C  py        
   150     -0.768490   9 H  s               106      0.741217   4 C  py        
 
 Vector   72  Occ=0.000000D+00  E= 1.537838D+00
              MO Center=  4.5D-01,  3.7D-01, -2.9D-01, r^2= 4.7D+00
   Bfn.  Coefficient  Atom+Function         Bfn.  Coefficient  Atom+Function  
  ----- ------------  ---------------      ----- ------------  ---------------
    36      4.356072   2 C  s                35     -3.644618   2 C  s         
    98     -3.431599   4 C  s                97      2.917149   4 C  s         
    67     -2.521611   3 C  s                73      2.040394   3 C  pz        
   132     -1.650990   6 H  s               102     -1.515758   4 C  px        
   133      1.470159   6 H  s               150     -1.386888   9 H  s         
 
 Vector   73  Occ=0.000000D+00  E= 1.578290D+00
              MO Center=  5.4D-01, -9.8D-02, -1.2D-01, r^2= 3.1D+00
   Bfn.  Coefficient  Atom+Function         Bfn.  Coefficient  Atom+Function  
  ----- ------------  ---------------      ----- ------------  ---------------
    35      4.148841   2 C  s                36     -3.420058   2 C  s         
    40     -2.303117   2 C  px               67      2.250448   3 C  s         
    97     -2.066018   4 C  s                72      1.820550   3 C  py        
   126      1.795408   5 H  s                66     -1.737770   3 C  s         
    98      1.731078   4 C  s                34     -1.642869   2 C  s         
 
 Vector   74  Occ=0.000000D+00  E= 1.602936D+00
              MO Center=  3.6D-01,  3.4D-01, -1.7D-01, r^2= 3.4D+00
   Bfn.  Coefficient  Atom+Function         Bfn.  Coefficient  Atom+Function  
  ----- ------------  ---------------      ----- ------------  ---------------
    66      5.579010   3 C  s                36      5.024696   2 C  s         
    35     -4.769140   2 C  s                67     -3.969431   3 C  s         
    41     -3.913804   2 C  py               71      2.665169   3 C  px        
    72     -2.436923   3 C  py               40      1.922697   2 C  px        
    82     -1.722005   3 C  d -2            104     -1.631312   4 C  pz        
 
 Vector   75  Occ=0.000000D+00  E= 1.643716D+00
              MO Center=  4.3D-01,  2.4D-01,  1.6D-02, r^2= 3.6D+00
   Bfn.  Coefficient  Atom+Function         Bfn.  Coefficient  Atom+Function  
  ----- ------------  ---------------      ----- ------------  ---------------
    35      2.363810   2 C  s                66      2.302598   3 C  s         
    98      2.028460   4 C  s                 5     -1.671287   1 O  s         
    97     -1.331512   4 C  s               144      1.107526   8 H  s         
    67     -1.090706   3 C  s               145     -0.967817   8 H  s         
   104     -0.948759   4 C  pz              150     -0.952582   9 H  s         
 
 Vector   76  Occ=0.000000D+00  E= 1.695436D+00
              MO Center=  5.4D-01,  1.7D-01, -4.1D-01, r^2= 3.8D+00
   Bfn.  Coefficient  Atom+Function         Bfn.  Coefficient  Atom+Function  
  ----- ------------  ---------------      ----- ------------  ---------------
    97     -5.631961   4 C  s                35      5.243744   2 C  s         
   104     -2.909772   4 C  pz               42     -2.880810   2 C  pz        
   102      1.838432   4 C  px               40      1.570960   2 C  px        
    34     -1.554308   2 C  s                96      1.546045   4 C  s         
    72     -1.427839   3 C  py               66     -1.396048   3 C  s         
 
 Vector   77  Occ=0.000000D+00  E= 1.700611D+00
              MO Center= -6.2D-02,  2.4D-01, -6.5D-02, r^2= 3.6D+00
   Bfn.  Coefficient  Atom+Function         Bfn.  Coefficient  Atom+Function  
  ----- ------------  ---------------      ----- ------------  ---------------
     5      4.026666   1 O  s                72      3.232852   3 C  py        
    36     -2.345263   2 C  s                66     -2.184011   3 C  s         
   138     -1.768774   7 H  s                12      1.544653   1 O  px        
    97      1.467884   4 C  s                41      1.401989   2 C  py        
    42      1.243822   2 C  pz               43      1.234837   2 C  px        
 
 Vector   78  Occ=0.000000D+00  E= 1.787940D+00
              MO Center=  4.3D-01,  2.4D-01,  3.7D-03, r^2= 3.5D+00
   Bfn.  Coefficient  Atom+Function         Bfn.  Coefficient  Atom+Function  
  ----- ------------  ---------------      ----- ------------  ---------------
    35      2.937914   2 C  s                97     -2.743341   4 C  s         
    36      1.569680   2 C  s                45     -1.233889   2 C  pz        
   104     -1.172747   4 C  pz               67     -1.074713   3 C  s         
    42     -1.036263   2 C  pz              102      0.942994   4 C  px        
    72      0.924633   3 C  py               96      0.894633   4 C  s         
 
 Vector   79  Occ=0.000000D+00  E= 1.817274D+00
              MO Center= -6.2D-01,  1.9D-01,  1.8D-01, r^2= 2.6D+00
   Bfn.  Coefficient  Atom+Function         Bfn.  Coefficient  Atom+Function  
  ----- ------------  ---------------      ----- ------------  ---------------
    35      4.167430   2 C  s                 5     -3.196813   1 O  s         
    40     -2.553950   2 C  px               41      2.246903   2 C  py        
    72      2.199385   3 C  py               66     -1.967523   3 C  s         
    71     -1.653945   3 C  px               12     -1.344726   1 O  px        
   132     -1.114505   6 H  s               138     -1.088617   7 H  s         
 
 Vector   80  Occ=0.000000D+00  E= 1.844199D+00
              MO Center=  6.9D-02,  3.2D-01, -8.6D-02, r^2= 3.7D+00
   Bfn.  Coefficient  Atom+Function         Bfn.  Coefficient  Atom+Function  
  ----- ------------  ---------------      ----- ------------  ---------------
    35      1.855423   2 C  s                36     -1.121202   2 C  s         
   156     -0.953981  10 H  s               104     -0.808290   4 C  pz        
    71     -0.737555   3 C  px              157      0.649226  10 H  s         
    97     -0.644379   4 C  s                 5     -0.632731   1 O  s         
    67      0.630098   3 C  s               126     -0.624614   5 H  s         
 
 Vector   81  Occ=0.000000D+00  E= 1.866773D+00
              MO Center=  5.1D-01,  2.0D-01, -4.3D-01, r^2= 4.0D+00
   Bfn.  Coefficient  Atom+Function         Bfn.  Coefficient  Atom+Function  
  ----- ------------  ---------------      ----- ------------  ---------------
    35      6.865438   2 C  s                66     -4.580020   3 C  s         
    72      3.626300   3 C  py               97     -3.333702   4 C  s         
    36      2.208711   2 C  s               104     -1.873635   4 C  pz        
    34     -1.681268   2 C  s                41      1.678121   2 C  py        
    67     -1.591841   3 C  s                45     -1.408988   2 C  pz        
 
 Vector   82  Occ=0.000000D+00  E= 1.921527D+00
              MO Center=  3.3D-01, -1.5D-01, -3.0D-01, r^2= 3.2D+00
   Bfn.  Coefficient  Atom+Function         Bfn.  Coefficient  Atom+Function  
  ----- ------------  ---------------      ----- ------------  ---------------
    36      1.366372   2 C  s                98     -1.298652   4 C  s         
   103     -1.217134   4 C  py               45     -1.205284   2 C  pz        
    97     -1.168753   4 C  s                35      1.093776   2 C  s         
    66     -0.907540   3 C  s                41      0.785680   2 C  py        
   150     -0.772474   9 H  s                42     -0.762304   2 C  pz        
 
 Vector   83  Occ=0.000000D+00  E= 1.992458D+00
              MO Center=  7.1D-01, -1.4D-01, -2.1D-01, r^2= 3.3D+00
   Bfn.  Coefficient  Atom+Function         Bfn.  Coefficient  Atom+Function  
  ----- ------------  ---------------      ----- ------------  ---------------
    35      3.146863   2 C  s                66     -2.769335   3 C  s         
    98      2.702117   4 C  s                40     -2.371419   2 C  px        
    72      1.971323   3 C  py               41      1.723313   2 C  py        
    67     -1.608041   3 C  s                43     -1.581989   2 C  px        
    71     -1.467224   3 C  px              126      1.242855   5 H  s         
 
 Vector   84  Occ=0.000000D+00  E= 1.993641D+00
              MO Center=  7.3D-01, -1.7D-01, -8.8D-01, r^2= 3.5D+00
   Bfn.  Coefficient  Atom+Function         Bfn.  Coefficient  Atom+Function  
  ----- ------------  ---------------      ----- ------------  ---------------
    36      4.546423   2 C  s                98     -4.459821   4 C  s         
    35     -2.604323   2 C  s                45     -2.028872   2 C  pz        
    67     -1.269589   3 C  s               107     -1.210927   4 C  pz        
   156      1.204602  10 H  s                66      1.119786   3 C  s         
   104      0.997928   4 C  pz               34      0.969626   2 C  s         
 
 Vector   85  Occ=0.000000D+00  E= 2.085647D+00
              MO Center= -5.5D-02,  2.1D-01, -9.1D-03, r^2= 3.5D+00
   Bfn.  Coefficient  Atom+Function         Bfn.  Coefficient  Atom+Function  
  ----- ------------  ---------------      ----- ------------  ---------------
    36      2.278327   2 C  s                98     -2.276672   4 C  s         
   138     -0.764599   7 H  s               156      0.762918  10 H  s         
    14     -0.636850   1 O  pz               45     -0.606860   2 C  pz        
    40     -0.570975   2 C  px              144      0.544351   8 H  s         
    83     -0.535310   3 C  d -1            105      0.525716   4 C  px        
 
 Vector   86  Occ=0.000000D+00  E= 2.095426D+00
              MO Center= -3.8D-01,  6.1D-02,  6.4D-02, r^2= 2.9D+00
   Bfn.  Coefficient  Atom+Function         Bfn.  Coefficient  Atom+Function  
  ----- ------------  ---------------      ----- ------------  ---------------
    36      5.739700   2 C  s                67     -5.536545   3 C  s         
    35     -3.457734   2 C  s                66      3.404755   3 C  s         
    41     -3.123811   2 C  py               71      2.805738   3 C  px        
    13      1.862583   1 O  py               82     -1.477827   3 C  d -2      
    55      1.352935   2 C  d  2             43     -1.312736   2 C  px        
 
 Vector   87  Occ=0.000000D+00  E= 2.168071D+00
              MO Center=  5.5D-01, -6.7D-02, -5.0D-01, r^2= 3.2D+00
   Bfn.  Coefficient  Atom+Function         Bfn.  Coefficient  Atom+Function  
  ----- ------------  ---------------      ----- ------------  ---------------
    98     -2.164352   4 C  s                67      2.092434   3 C  s         
    35      1.672021   2 C  s                36     -1.142992   2 C  s         
    73     -1.012401   3 C  pz               40     -0.931294   2 C  px        
    42      0.916968   2 C  pz              156      0.905343  10 H  s         
    44     -0.899455   2 C  py               43      0.889608   2 C  px        
 
 Vector   88  Occ=0.000000D+00  E= 2.198358D+00
              MO Center=  4.2D-01,  1.8D-01, -3.0D-01, r^2= 3.7D+00
   Bfn.  Coefficient  Atom+Function         Bfn.  Coefficient  Atom+Function  
  ----- ------------  ---------------      ----- ------------  ---------------
    98      2.187629   4 C  s                36     -1.548496   2 C  s         
    45      1.043000   2 C  pz               76     -0.914098   3 C  pz        
   132      0.790505   6 H  s                42     -0.659225   2 C  pz        
   103     -0.647884   4 C  py              117     -0.646319   4 C  d  2      
   138     -0.618232   7 H  s                97     -0.604737   4 C  s         
 
 Vector   89  Occ=0.000000D+00  E= 2.230165D+00
              MO Center=  6.5D-01, -2.6D-02, -1.4D-01, r^2= 3.6D+00
   Bfn.  Coefficient  Atom+Function         Bfn.  Coefficient  Atom+Function  
  ----- ------------  ---------------      ----- ------------  ---------------
    36      3.614396   2 C  s                98     -1.872145   4 C  s         
    67     -1.838509   3 C  s                 5     -1.184310   1 O  s         
    42     -1.067927   2 C  pz               45     -1.008682   2 C  pz        
    43     -0.765050   2 C  px              150      0.766435   9 H  s         
    72     -0.688320   3 C  py              102      0.689701   4 C  px        
 
 Vector   90  Occ=0.000000D+00  E= 2.241497D+00
              MO Center=  7.0D-01, -1.8D-01, -7.2D-01, r^2= 3.6D+00
   Bfn.  Coefficient  Atom+Function         Bfn.  Coefficient  Atom+Function  
  ----- ------------  ---------------      ----- ------------  ---------------
   150      1.210987   9 H  s               144     -0.946321   8 H  s         
   117      0.862745   4 C  d  2             83      0.654822   3 C  d -1      
    66     -0.633760   3 C  s                72      0.588528   3 C  py        
    67     -0.576463   3 C  s                36      0.555892   2 C  s         
   138      0.518187   7 H  s               147      0.467983   8 H  py        
 
 Vector   91  Occ=0.000000D+00  E= 2.267274D+00
              MO Center=  9.6D-01, -2.7D-01, -1.1D+00, r^2= 3.0D+00
   Bfn.  Coefficient  Atom+Function         Bfn.  Coefficient  Atom+Function  
  ----- ------------  ---------------      ----- ------------  ---------------
    66      2.150831   3 C  s                36      1.801054   2 C  s         
    41     -1.492650   2 C  py               35     -1.270415   2 C  s         
    67     -1.258742   3 C  s                98     -1.250264   4 C  s         
   156      0.940152  10 H  s                71      0.929637   3 C  px        
    72     -0.889190   3 C  py              126     -0.782371   5 H  s         
 
 Vector   92  Occ=0.000000D+00  E= 2.286643D+00
              MO Center=  5.1D-01,  1.3D-01, -2.1D-01, r^2= 3.7D+00
   Bfn.  Coefficient  Atom+Function         Bfn.  Coefficient  Atom+Function  
  ----- ------------  ---------------      ----- ------------  ---------------
    98      3.427875   4 C  s                66      2.394709   3 C  s         
[...]
    21     -0.872733   1 O  d -1             42     -0.802927   2 C  pz        
    97     -0.710410   4 C  s                45     -0.690541   2 C  pz        
    98     -0.518681   4 C  s                67     -0.514957   3 C  s         
     5     -0.509626   1 O  s                83     -0.507480   3 C  d -1      
 
 Vector  154  Occ=0.000000D+00  E= 6.677342D+00
              MO Center= -8.7D-01, -1.8D-01,  2.0D-01, r^2= 5.7D-01
   Bfn.  Coefficient  Atom+Function         Bfn.  Coefficient  Atom+Function  
  ----- ------------  ---------------      ----- ------------  ---------------
    18      1.062988   1 O  d  1             23     -1.041155   1 O  d  1      
    97     -0.856105   4 C  s                42     -0.786502   2 C  pz        
    35      0.751259   2 C  s               102      0.644230   4 C  px        
    54     -0.551484   2 C  d  1             14      0.402811   1 O  pz        
    11      0.394602   1 O  pz               16     -0.387653   1 O  d -1      
 
 Vector  155  Occ=0.000000D+00  E= 6.842400D+00
              MO Center= -8.8D-01, -1.9D-01,  2.0D-01, r^2= 5.9D-01
   Bfn.  Coefficient  Atom+Function         Bfn.  Coefficient  Atom+Function  
  ----- ------------  ---------------      ----- ------------  ---------------
     5      2.100684   1 O  s                40      1.770843   2 C  px        
     9      1.361203   1 O  px               97     -1.278551   4 C  s         
     4      1.202963   1 O  s                20      1.052125   1 O  d -2      
    42     -0.973663   2 C  pz               35     -0.860843   2 C  s         
    12      0.843711   1 O  px               15     -0.834827   1 O  d -2      
 
 Vector  156  Occ=0.000000D+00  E= 7.053809D+00
              MO Center= -8.9D-01, -1.9D-01,  2.0D-01, r^2= 6.4D-01
   Bfn.  Coefficient  Atom+Function         Bfn.  Coefficient  Atom+Function  
  ----- ------------  ---------------      ----- ------------  ---------------
    66     -3.200042   3 C  s                35      3.044414   2 C  s         
    40     -2.737910   2 C  px               72      2.713590   3 C  py        
    24     -1.579294   1 O  d  2             36      1.431805   2 C  s         
    10      1.291501   1 O  py               67     -1.275141   3 C  s         
    19      1.015882   1 O  d  2             13      0.865387   1 O  py        
 
 Vector  157  Occ=0.000000D+00  E= 2.194813D+01
              MO Center=  1.5D-01,  7.0D-01, -2.7D-02, r^2= 1.4D+00
   Bfn.  Coefficient  Atom+Function         Bfn.  Coefficient  Atom+Function  
  ----- ------------  ---------------      ----- ------------  ---------------
    64      1.531391   3 C  s                65     -1.303499   3 C  s         
    67     -1.234897   3 C  s                63     -1.206458   3 C  s         
    98      1.175785   4 C  s                95     -0.852695   4 C  s         
    96      0.711005   4 C  s                94      0.674166   4 C  s         
    35      0.554278   2 C  s                40     -0.487553   2 C  px        
 
 Vector  158  Occ=0.000000D+00  E= 2.198451D+01
              MO Center=  8.5D-01, -2.1D-01, -6.8D-01, r^2= 1.2D+00
   Bfn.  Coefficient  Atom+Function         Bfn.  Coefficient  Atom+Function  
  ----- ------------  ---------------      ----- ------------  ---------------
    95      1.401300   4 C  s                96     -1.297762   4 C  s         
    98     -1.111373   4 C  s                94     -1.102308   4 C  s         
    34     -0.945457   2 C  s                36     -0.887889   2 C  s         
    33      0.859882   2 C  s                65     -0.717399   3 C  s         
    32     -0.671547   2 C  s                64      0.670857   3 C  s         
 
 Vector  159  Occ=0.000000D+00  E= 2.210767D+01
              MO Center=  5.8D-01, -7.8D-02, -3.5D-02, r^2= 7.0D-01
   Bfn.  Coefficient  Atom+Function         Bfn.  Coefficient  Atom+Function  
  ----- ------------  ---------------      ----- ------------  ---------------
    36      2.203116   2 C  s                33     -1.546397   2 C  s         
    34      1.522088   2 C  s                35     -1.290922   2 C  s         
    98     -1.230150   4 C  s                67     -1.216823   3 C  s         
    32      1.210720   2 C  s                97      0.697438   4 C  s         
    95      0.661078   4 C  s                96     -0.600860   4 C  s         
 
 Vector  160  Occ=0.000000D+00  E= 4.341534D+01
              MO Center= -8.8D-01, -1.8D-01,  2.0D-01, r^2= 1.2D-01
   Bfn.  Coefficient  Atom+Function         Bfn.  Coefficient  Atom+Function  
  ----- ------------  ---------------      ----- ------------  ---------------
     4      2.515433   1 O  s                 3     -1.876525   1 O  s         
     2      1.731659   1 O  s                 1     -1.395862   1 O  s         
     5     -0.872351   1 O  s                36      0.856559   2 C  s         
     9      0.566612   1 O  px               66     -0.521219   3 C  s         
    40      0.468882   2 C  px               72      0.464347   3 C  py        
 

 center of mass
 --------------
 x =   0.30619351 y =   0.09486546 z =  -0.27792416

 moments of inertia (a.u.)
 ------------------
         199.913724586709          45.669948432472          83.786972009630
          45.669948432472         247.725762956828         -52.696688982255
          83.786972009630         -52.696688982255         238.859674790941
 
     Multipole analysis of the density
     ---------------------------------
 
     L   x y z        total         alpha         beta         nuclear
     -   - - -        -----         -----         ----         -------
     0   0 0 0     -0.000000    -16.000000    -16.000000     32.000000
 
     1   1 0 0      0.686635     -6.226409     -6.226409     13.139454
     1   0 1 0      0.324889     -1.633411     -1.633411      3.591711
     1   0 0 1     -0.056524      5.322404      5.322404    -10.701333
 
     2   2 0 0    -19.999729    -54.326272    -54.326272     88.652814
     2   1 1 0     -1.121400     13.920736     13.920736    -28.962873
     2   1 0 1      0.149986     26.494387     26.494387    -52.838788
     2   0 2 0    -17.795261    -40.569547    -40.569547     63.343834
     2   0 1 1      0.266054    -15.441721    -15.441721     31.149496
     2   0 0 2    -18.256480    -45.695845    -45.695845     73.135210
 
 *** CALLING NEW AORESP DRIVER FOR CLOSED AND OPEN SHELLS ***
 Entering AOResponse driver routine


--------------------------------------------------------------------------------

          ****************
          *** RESPONSE ***
          ****************

 Response module for NWChem and dynamic CPKS solver
 developed by J. Autschbach and coworkers, SUNY Buffalo
 The methodology used in this program is described in 
 ChemPhysChem 12 (2011), 3224-3235 (main reference)
 J. Chem. Phys. 123 (2005), 114103
 J. Chem. Phys. 122 (2005), 224115
 J. Chem. Phys. 122 (2005), 074105
 Comp. Lett. 3 (2007), 131-150 (contact JA for a copy)
 Please cite this work in publications based on results
 obtained with this code. Thank you!

 For extension of response module to open shell
 calculations please acknowledge:
 F. Aquino, Northwestern University, Schatz Rsrch Group
 The update to the methodology is described in
 J. Phys. Chem. A 118 (2014) 517-525



          -----------------------------------------------
          Solving response equations for perturbing field
          -----------------------------------------------

 number of frequencies:     1
 frequency in a.u.:  0.9319600E-01
 Perturbing field: electric
 Using GIAO formalism for OptRot
 Adding quadrupole terms to OptRot
 to create an origin in dependent tensor.
 Using El. Dipole Length Gauge
 
 Applying DAMPING constant of  0.003700 a.u.
 
 Setting up CPKS
 with frequency omega =      0.09319600 a.u.
 and a damping of            0.00370000 a.u.

 
                            NWChem Dynamic CPHF Module
                            --------------------------
 
 
    scftype = RHF 
    nclosed =   16
      nopen =    0
  variables =     9216
  num. vecs =        3
  tolerance =   1.0D-07
  max. iter =  100

 SCF residual:   4.958864714220510E-006


Iterative solution of linear equations
  No. of variables     4608
  No. of equations        3
  Maximum subspace       99
       Convergence  1.0D-07
        Start time     85.4


   iter   nsub   residual    time 
   ----  ------  --------  --------- 
 dft_CPHF2_read: failed to open
 ./methyloxirane_blyp-def2-tzvp_488.9_18.inp.aoresp_fiao_f1
     1      3    3.69D+00     128.2
     2      6    2.67D+00     171.3
     3      9    2.44D-01     214.4
     4     12    5.53D-02     257.4
     5     15    1.13D-02     300.4
     6     18    1.32D-03     343.5
     7     21    1.44D-04     386.6
     8     24    1.37D-05     429.6
     9     27    1.27D-06     472.7
    10     30    4.81D-07     515.7
    11     33    1.48D-08     558.9

 Calculating some arrays needed for GIAO optical rotation

    0 giaofock schwarz done =      92.99%
    0 giaofock schwarz done =      93.31%
 aor_r1_tensor_giao: roadata output requested
 dip-quad polarizability Re:

              1        2        3        4        5        6      
    1   77.4824  -6.4207 -27.6807  -4.5578   1.2274   9.0815
    2  -11.9804  25.5243   3.4568  24.4817 -21.5156   4.0069
    3   -6.6368   1.1525  39.2729  -0.0858  14.2091 -40.9625
 traceless dip-quad polarizability:

              1        2        3      
    1   75.2206  -9.6311 -41.5210
    2   -9.6311 -47.8398   1.8411
    3  -41.5210   1.8411 -27.3808

              1        2        3      
    1  -26.2247  38.2865   5.1852
    2   38.2865  28.4685 -32.2734
    3    5.1852 -32.2734  -2.2438

              1        2        3      
    1   13.8873   1.7288  58.9093
    2    1.7288  23.7139  21.3137
    3   58.9093  21.3137 -37.6012

 roa begin

 alpha real:
 XX       0.4092158448536E+02
 XY      -0.5221045215106E+01
 XZ      -0.3012002004393E+01
 YX      -0.5221045218771E+01
 YY       0.4415114839438E+02
 YZ       0.3211572719630E+01
 ZX      -0.3012002001189E+01
 ZY       0.3211572726888E+01
 ZZ       0.4144835321083E+02

 alpha im:
 XX       0.1103410923264E+00
 XY      -0.2987750024677E-01
 XZ      -0.1099542249994E-01
 YX      -0.2987749558411E-01
 YY       0.1293405543425E+00
 YZ       0.1836519903056E-01
 ZX      -0.1099541945144E-01
 ZY       0.1836519925083E-01
 ZZ       0.1230298374611E+00

 beta real:
 XX      -0.1385250297556E+00
 XY       0.9442942845723E+00
 XZ       0.1970694608872E+00
 YX      -0.8855792829983E+00
 YY       0.1439957371993E+00
 YZ      -0.1541407811846E+01
 ZX      -0.4814071779766E+00
 ZY       0.1867091340935E+01
 ZZ      -0.7966237458507E-02

 G-prime = -omega beta(real):
 XX      -0.1385250297556E+00
 XY       0.9442942845723E+00
 XZ       0.1970694608872E+00
 YX      -0.8855792829983E+00
 YY       0.1439957371993E+00
 YZ      -0.1541407811846E+01
 ZX      -0.4814071779766E+00
 ZY       0.1867091340935E+01
 ZZ      -0.7966237458507E-02

 beta im:
 XX      -0.5912244724871E-02
 XY       0.1342786518009E-01
 XZ       0.2755825024382E-02
 YX      -0.7544661936074E-02
 YY       0.4725167459048E-02
 YZ      -0.2321748606905E-01
 ZX      -0.1325190156906E-01
 ZY       0.3988867706651E-01
 ZZ       0.4757079066513E-03

 G-prime = -omega beta(imag):
 XX      -0.5912244724871E-02
 XY       0.1342786518009E-01
 XZ       0.2755825024382E-02
 YX      -0.7544661936074E-02
 YY       0.4725167459048E-02
 YZ      -0.2321748606905E-01
 ZX      -0.1325190156906E-01
 ZY       0.3988867706651E-01
 ZZ       0.4757079066513E-03

 dipole-quadrupole real (Cartesian):
 XXX      0.7748244022916E+02
 XXY     -0.6420732804294E+01
 XXZ     -0.2768069471371E+02
 XYY     -0.4557824574842E+01
 XYZ      0.1227375182201E+01
 XZZ      0.9081478252621E+01
 YXX     -0.1198039813052E+02
 YXY      0.2552430776561E+02
 YXZ      0.3456785973137E+01
 YYY      0.2448168143520E+02
 YYZ     -0.2151561468746E+02
 YZZ      0.4006860485308E+01
 ZXX     -0.6636801904448E+01
 ZXY      0.1152545451765E+01
 ZXZ      0.3927285078087E+02
 ZYY     -0.8575257880152E-01
 ZYZ      0.1420912897840E+02
 ZZZ     -0.4096251687429E+02

 dipole-quadrupole imag (Cartesian):
 XXX      0.2705657503106E+00
 XXY     -0.3567591433602E-01
 XXZ     -0.7690498194326E-01
 XYY     -0.2908423701891E-01
 XYZ      0.2173996675837E-02
 XZZ      0.6025809732924E-01
 YXX     -0.5737244619126E-01
 YXY      0.6180853929932E-01
 YXZ      0.1961749468049E-01
 YYY      0.9679140248848E-01
 YYZ     -0.6075369526342E-01
 YZZ      0.9851651705063E-02
 ZXX     -0.3386032854122E-01
 ZXY      0.3888702499127E-03
 ZXZ      0.1450341947336E+00
 ZYY      0.5068377529511E-02
 ZYZ      0.6944722172676E-01
 ZZZ     -0.9405136462457E-01

 dipole-quadrupole (traceless):
 XXX      0.7522061339027E+02
 XXY     -0.9631099206440E+01
 XXZ     -0.4152104207057E+02
 XYY     -0.4783978381573E+02
 XYZ      0.1841062773301E+01
 XZZ     -0.2738082957454E+02
 YXX     -0.2622466909077E+02
 YXY      0.3828646164841E+02
 YXZ      0.5185178959706E+01
 YYY      0.2846845025780E+02
 YYZ     -0.3227342203120E+02
 YZZ     -0.2243781167033E+01
 ZXX      0.1388733282210E+02
 ZXY      0.1728818177648E+01
 ZXZ      0.5890927617130E+02
 ZYY      0.2371390681057E+02
 ZYZ      0.2131369346761E+02
 ZZZ     -0.3760123963267E+02

 roa end


 Electric Dipole Response Matrix (nonzero elements):

              1        2        3      
    1   40.9216  -5.2210  -3.0120
    2   -5.2210  44.1511   3.2116
    3   -3.0120   3.2116  41.4484
 
 Imaginary part:

              1        2        3      
    1    0.1103  -0.0299  -0.0110
    2   -0.0299   0.1293   0.0184
    3   -0.0110   0.0184   0.1230

 ------------------------------------------
 average:        42.17370 + I       0.12090


 DFT Linear Response polarizability / au 
 Frequency  =       0.0931960 / au
 Wavelength =     488.8981609 / nm
              X              Y              Z
 -----------------------------------------------
 X      40.9215845     -5.2210452     -3.0120020
 Y      -5.2210452     44.1511484      3.2115727
 Z      -3.0120020      3.2115727     41.4483532
 -----------------------------------------------
 Eigenvalues =      36.9734305     50.1928419     39.3548137
 Isotropic   =      42.1736954
 Anisotropic =       9.9647158
 -----------------------------------------------
 *************************

 DFT Linear Response IMAG polarizability / au 
 Frequency  =       0.0931960 / au
 Wavelength =     488.8981609 / nm
              X              Y              Z
 -----------------------------------------------
 X       0.1103411     -0.0298775     -0.0109954
 Y      -0.0298775      0.1293406      0.0183652
 Z      -0.0109954      0.0183652      0.1230298
 -----------------------------------------------
 Eigenvalues =       0.0883485      0.1626686      0.1116943
 Isotropic   =       0.1209038
 Anisotropic =       0.0537490
 -----------------------------------------------
 *************************

 Magnetic Dipole Response Matrix (nonzero elements):
 Optical rotation tensor Beta
 (Buckingham-Dunn version including dipole-quadrupole terms)

              1        2        3      
    1    2.6385  -0.4115   0.3648
    2   -0.4115  -1.5825  -1.7200
    3    0.3648  -1.7200  -1.0292
 
 Imaginary part:

              1        2        3      
    1    0.0634  -0.1441  -0.0296
    2    0.0810  -0.0507   0.2491
    3    0.1422  -0.4280  -0.0051

 ------------------------------------------
 average:         0.00893 + I       0.00254

 Principal components and PAS (Real part)
                 -3.04901
                  2.76677
                  0.30902
 ------------------------
 average:         0.00893

              1        2        3      
    1    0.0137   0.9737  -0.2275
    2    0.7625  -0.1573  -0.6276
    3    0.6469   0.1649   0.7446

 Chiral response tensor (Real part):

              1        2        3      
    1   -1.3059   0.2058  -0.1824
    2    0.2058   0.8046   0.8600
    3   -0.1824   0.8600   0.5280
 
 Principal components and PAS (Real part)
                  1.53789
                 -1.36999
                 -0.14112
 ------------------------
 average:         0.00893

              1        2        3      
    1    0.0137   0.9737  -0.2275
    2    0.7625  -0.1573  -0.6276
    3    0.6469   0.1649   0.7446
 Exiting AOResponse driver routine

 Task  times  cpu:      540.9s     wall:      552.7s
 
 
                                NWChem Input Module
                                -------------------
 
 
 Summary of allocated global arrays
-----------------------------------
  No active global arrays



                         GA Statistics for process    0
                         ------------------------------

       create   destroy   get      put      acc     scatter   gather  read&inc
calls: 3294     3294     7.62e+06 3.14e+06 6.81e+05 2694        0     1142     
number of processes/call 1.01e+00 1.03e+00 1.41e+00 0.00e+00 0.00e+00
bytes total:             1.64e+09 1.26e+08 1.64e+09 1.84e+02 0.00e+00 9.14e+03
bytes remote:            6.78e+08 3.29e+07 9.03e+08 0.00e+00 0.00e+00 0.00e+00
Max memory consumed for GA by this process: 11242192 bytes
 
MA_summarize_allocated_blocks: starting scan ...
MA_summarize_allocated_blocks: scan completed: 0 heap blocks, 0 stack blocks
MA usage statistics:

	allocation statistics:
					      heap	     stack
					      ----	     -----
	current number of blocks	         0	         0
	maximum number of blocks	        24	        52
	current total bytes		         0	         0
	maximum total bytes		   7519840	  48998328
	maximum total K-bytes		      7520	     48999
	maximum total M-bytes		         8	        49
 
 
                                     CITATION
                                     --------
                Please cite the following reference when publishing
                           results obtained with NWChem:
 
                 M. Valiev, E.J. Bylaska, N. Govind, K. Kowalski,
              T.P. Straatsma, H.J.J. van Dam, D. Wang, J. Nieplocha,
                        E. Apra, T.L. Windus, W.A. de Jong
                 "NWChem: a comprehensive and scalable open-source
                  solution for large scale molecular simulations"
                      Comput. Phys. Commun. 181, 1477 (2010)
                           doi:10.1016/j.cpc.2010.04.018
 
                                      AUTHORS
                                      -------
          E. Apra, E. J. Bylaska, W. A. de Jong, N. Govind, K. Kowalski,
       T. P. Straatsma, M. Valiev, H. J. J. van Dam, D. Wang, T. L. Windus,
        J. Hammond, J. Autschbach, K. Bhaskaran-Nair, J. Brabec, K. Lopata,
    S. A. Fischer, S. Krishnamoorthy, M. Jacquelin, W. Ma, M. Klemm, O. Villa,
      Y. Chen, V. Anisimov, F. Aquino, S. Hirata, M. T. Hackler, V. Konjkov,
            D. Mejia-Rodriguez, T. Risthaus, M. Malagoli, A. Marenich,
   A. Otero-de-la-Roza, J. Mullin, P. Nichols, R. Peverati, J. Pittner, Y. Zhao,
        P.-D. Fan, A. Fonari, M. J. Williamson, R. J. Harrison, J. R. Rehr,
      M. Dupuis, D. Silverstein, D. M. A. Smith, J. Nieplocha, V. Tipparaju,
    M. Krishnan, B. E. Van Kuiken, A. Vazquez-Mayagoitia, L. Jensen, M. Swart,
      Q. Wu, T. Van Voorhis, A. A. Auer, M. Nooijen, L. D. Crosby, E. Brown,
      G. Cisneros, G. I. Fann, H. Fruchtl, J. Garza, K. Hirao, R. A. Kendall,
      J. A. Nichols, K. Tsemekhman, K. Wolinski, J. Anchell, D. E. Bernholdt,
      P. Borowski, T. Clark, D. Clerc, H. Dachsel, M. J. O. Deegan, K. Dyall,
    D. Elwood, E. Glendening, M. Gutowski, A. C. Hess, J. Jaffe, B. G. Johnson,
     J. Ju, R. Kobayashi, R. Kutteh, Z. Lin, R. Littlefield, X. Long, B. Meng,
      T. Nakajima, S. Niu, L. Pollack, M. Rosing, K. Glaesemann, G. Sandrone,
      M. Stave, H. Taylor, G. Thomas, J. H. van Lenthe, A. T. Wong, Z. Zhang.

 Total times  cpu:      607.4s     wall:      620.6s
