 argument  1 = methyloxirane_blyp-def2-tzvp_488.9_32.inp
 


============================== echo of input deck ==============================
echo
start methyloxirane_blyp-def2-tzvp_488.9_32.inp
title "methyloxirane roa calculations at 488.9 nm, input generated in va  with delta_type=2"
charge 0



geometry units angstrom nocenter noautoz noautosym nucleus point;symmetry c1
 O -0.877852 -0.179872  0.205160
 C  0.573375 -0.158624  0.121180
 C -0.185956  1.088357  0.340376
 C  1.187515 -0.517975 -1.209621
 H  1.045377 -0.620194  0.995577
 H -0.216686  1.545369  1.333136
 H -0.341153  1.775289 -0.496092
 H  2.245272 -0.222045 -1.257816
 H  1.132966 -1.604720 -1.364224
 H  0.645430 -0.030618 -2.029559
end

basis spherical
* library def2-TZVP
end

 set prop:newaoresp 1
 set aor:roadata T
 set cphf:maxsub 100
 set cphf:acc 1.0d-10
 set cphf:maxiter 100

property
    response 1   0.093196
    bdtensor
    convergence 1e-7
    damping 0.0037
    giao
end

dft
 direct
 mult 1
 xc becke88 lyp
 iterations 250
 tolerances tight
 grid xfine
 convergence nolevelshifting
 convergence energy 1e-8
 convergence gradient 1e-7


end

task dft gradient
task dft property
================================================================================


                                         
                                         
 
 
              Northwest Computational Chemistry Package (NWChem) 6.8
              ------------------------------------------------------
 
 
                    Environmental Molecular Sciences Laboratory
                       Pacific Northwest National Laboratory
                                Richland, WA 99352
 
                              Copyright (c) 1994-2017
                       Pacific Northwest National Laboratory
                            Battelle Memorial Institute
 
             NWChem is an open-source computational chemistry package
                        distributed under the terms of the
                      Educational Community License (ECL) 2.0
             A copy of the license is included with this distribution
                              in the LICENSE.TXT file
 
                                  ACKNOWLEDGMENT
                                  --------------

            This software and its documentation were developed at the
            EMSL at Pacific Northwest National Laboratory, a multiprogram
            national laboratory, operated for the U.S. Department of Energy
            by Battelle under Contract Number DE-AC05-76RL01830. Support
            for this work was provided by the Department of Energy Office
            of Biological and Environmental Research, Office of Basic
            Energy Sciences, and the Office of Advanced Scientific Computing.


           Job information
           ---------------

    hostname        = cpn-f11-19-01.cbls.ccr.buffalo.edu
    program         = /util/academic/nwchem/nwchem-6.8/bin/LINUX64/nwchem
    date            = Fri Mar  1 10:29:48 2019

    compiled        = Tue_Nov_06_14:59:08_2018
    source          = /util/academic/nwchem/nwchem-6.8
    nwchem branch   = 6.8
    nwchem revision = v6.8-47-gdf6c956
    ga revision     = ga-5.6.3
    use scalapack   = F
    input           = methyloxirane_blyp-def2-tzvp_488.9_32.inp
    prefix          = methyloxirane_blyp-def2-tzvp_488.9_32.inp.
    data base       = ./methyloxirane_blyp-def2-tzvp_488.9_32.inp.db
    status          = startup
    nproc           =        7
    time left       =     -1s



           Memory information
           ------------------

    heap     =   13107196 doubles =    100.0 Mbytes
    stack    =   13107201 doubles =    100.0 Mbytes
    global   =   26214400 doubles =    200.0 Mbytes (distinct from heap & stack)
    total    =   52428797 doubles =    400.0 Mbytes
    verify   = yes
    hardfail = no 


           Directory information
           ---------------------
 
  0 permanent = .
  0 scratch   = .
 
 
 
 
                                NWChem Input Module
                                -------------------
 
 
                    methyloxirane roa calculations at 488.9 nm, input generated in va  with delta_type=2
                    ------------------------------------------

 Scaling coordinates for geometry "geometry" by  1.889725989
 (inverse scale =  0.529177249)

 
 
                             Geometry "geometry" -> ""
                             -------------------------
 
 Output coordinates in angstroms (scale by  1.889725989 to convert to a.u.)
 
  No.       Tag          Charge          X              Y              Z
 ---- ---------------- ---------- -------------- -------------- --------------
    1 O                    8.0000    -0.87785200    -0.17987200     0.20516000
    2 C                    6.0000     0.57337500    -0.15862400     0.12118000
    3 C                    6.0000    -0.18595600     1.08835700     0.34037600
    4 C                    6.0000     1.18751500    -0.51797500    -1.20962100
    5 H                    1.0000     1.04537700    -0.62019400     0.99557700
    6 H                    1.0000    -0.21668600     1.54536900     1.33313600
    7 H                    1.0000    -0.34115300     1.77528900    -0.49609200
    8 H                    1.0000     2.24527200    -0.22204500    -1.25781600
    9 H                    1.0000     1.13296600    -1.60472000    -1.36422400
   10 H                    1.0000     0.64543000    -0.03061800    -2.02955900
 
      Atomic Mass 
      ----------- 
 
      O                 15.994910
      C                 12.000000
      H                  1.007825
 

 Effective nuclear repulsion energy (a.u.)     123.6125030679

            Nuclear Dipole moment (a.u.) 
            ----------------------------
        X                 Y               Z
 ---------------- ---------------- ----------------
    13.1109075704     3.5425804937   -10.7073537472
 
 
            XYZ format geometry
            -------------------
    10
 geometry
 O                    -0.87785200    -0.17987200     0.20516000
 C                     0.57337500    -0.15862400     0.12118000
 C                    -0.18595600     1.08835700     0.34037600
 C                     1.18751500    -0.51797500    -1.20962100
 H                     1.04537700    -0.62019400     0.99557700
 H                    -0.21668600     1.54536900     1.33313600
 H                    -0.34115300     1.77528900    -0.49609200
 H                     2.24527200    -0.22204500    -1.25781600
 H                     1.13296600    -1.60472000    -1.36422400
 H                     0.64543000    -0.03061800    -2.02955900
 
 ==============================================================================
                                internuclear distances
 ------------------------------------------------------------------------------
       center one      |      center two      | atomic units |  angstroms
 ------------------------------------------------------------------------------
    2 C                |   1 O                |     2.74730  |     1.45381
    3 C                |   1 O                |     2.74200  |     1.45100
    3 C                |   2 C                |     2.78989  |     1.47634
    4 C                |   2 C                |     2.85175  |     1.50908
    5 H                |   2 C                |     2.07044  |     1.09563
    6 H                |   3 C                |     2.06610  |     1.09333
    7 H                |   3 C                |     2.06633  |     1.09345
    8 H                |   4 C                |     2.07762  |     1.09943
    9 H                |   4 C                |     2.07689  |     1.09904
   10 H                |   4 C                |     2.07326  |     1.09712
 ------------------------------------------------------------------------------
                         number of included internuclear distances:         10
 ==============================================================================



 ==============================================================================
                                 internuclear angles
 ------------------------------------------------------------------------------
        center 1       |       center 2       |       center 3       |  degrees
 ------------------------------------------------------------------------------
    2 C                |   1 O                |   3 C                |    61.09
    2 C                |   1 O                |   3 C                |    61.09
    1 O                |   2 C                |   4 C                |   116.98
    1 O                |   2 C                |   5 H                |   112.20
    3 C                |   2 C                |   4 C                |   122.78
    3 C                |   2 C                |   5 H                |   117.32
    4 C                |   2 C                |   5 H                |   115.35
    3 C                |   1 O                |   2 C                |    61.09
    1 O                |   3 C                |   6 H                |   115.88
    1 O                |   3 C                |   7 H                |   114.21
    2 C                |   3 C                |   6 H                |   120.15
    2 C                |   3 C                |   7 H                |   119.34
    6 H                |   3 C                |   7 H                |   115.34
    2 C                |   4 C                |   8 H                |   111.48
    2 C                |   4 C                |   9 H                |   109.84
    2 C                |   4 C                |  10 H                |   110.62
    8 H                |   4 C                |   9 H                |   107.92
    8 H                |   4 C                |  10 H                |   108.85
    9 H                |   4 C                |  10 H                |   108.03
 ------------------------------------------------------------------------------
                            number of included internuclear angles:         19
 ==============================================================================



  warning:::::::::::::: from_environment
  NWCHEM_BASIS_LIBRARY set to: <
 /util/academic/nwchem/nwchem-6.8/src/basis/libraries>
  but file does not exist !
  using .nwchemrc or compiled library


 Summary of "ao basis" -> "" (spherical)
 ------------------------------------------------------------------------------
       Tag                 Description            Shells   Functions and Types
 ---------------- ------------------------------  ------  ---------------------
 *                         def2-TZVP                  on all atoms 


 
                                 NWChem DFT Module
                                 -----------------
 
 
                    methyloxirane roa calculations at 488.9 nm, input generated in va  with delta_type=2
 
 
                      Basis "ao basis" -> "ao basis" (spherical)
                      -----
  O (Oxygen)
  ----------
            Exponent  Coefficients 
       -------------- ---------------------------------------------------------
  1 S  2.70323826E+04  0.000217
  1 S  4.05238714E+03  0.001684
  1 S  9.22327227E+02  0.008740
  1 S  2.61240710E+02  0.035240
  1 S  8.53546414E+01  0.111535
  1 S  3.10350352E+01  0.255890
 
  2 S  1.22608607E+01  0.397687
  2 S  4.99870760E+00  0.246278
 
  3 S  1.17031082E+00  1.000000
 
  4 S  4.64747410E-01  1.000000
 
  5 S  1.85045364E-01  1.000000
 
  6 P  6.32749548E+01  0.006069
  6 P  1.46270494E+01  0.041913
  6 P  4.45012235E+00  0.161538
  6 P  1.52757996E+00  0.357070
 
  7 P  5.29351179E-01  1.000000
 
  8 P  1.74784213E-01  1.000000
 
  9 D  2.31400000E+00  1.000000
 
 10 D  6.45000000E-01  1.000000
 
 11 F  1.42800000E+00  1.000000
 
  C (Carbon)
  ----------
            Exponent  Coefficients 
       -------------- ---------------------------------------------------------
  1 S  1.35753497E+04  0.000222
  1 S  2.03523337E+03  0.001723
  1 S  4.63225624E+02  0.008926
  1 S  1.31200196E+02  0.035728
  1 S  4.28530159E+01  0.110763
  1 S  1.55841858E+01  0.242956
 
  2 S  6.20671385E+00  0.414403
  2 S  2.57648965E+00  0.237450
 
  3 S  5.76963394E-01  1.000000
 
  4 S  2.29728314E-01  1.000000
 
  5 S  9.51644400E-02  1.000000
 
  6 P  3.46972322E+01  0.005333
  6 P  7.95826228E+00  0.035864
  6 P  2.37808269E+00  0.142159
  6 P  8.14332082E-01  0.342705
 
  7 P  2.88875473E-01  1.000000
 
  8 P  1.00568237E-01  1.000000
 
  9 D  1.09700000E+00  1.000000
 
 10 D  3.18000000E-01  1.000000
 
 11 F  7.61000000E-01  1.000000
 
  H (Hydrogen)
  ------------
            Exponent  Coefficients 
       -------------- ---------------------------------------------------------
  1 S  3.40613410E+01  0.006025
  1 S  5.12357460E+00  0.045021
  1 S  1.16466260E+00  0.201897
 
  2 S  3.27230410E-01  1.000000
 
  3 S  1.03072410E-01  1.000000
 
  4 P  8.00000000E-01  1.000000
 


 Summary of "ao basis" -> "ao basis" (spherical)
 ------------------------------------------------------------------------------
       Tag                 Description            Shells   Functions and Types
 ---------------- ------------------------------  ------  ---------------------
 O                         def2-TZVP                11       31   5s3p2d1f
 C                         def2-TZVP                11       31   5s3p2d1f
 H                         def2-TZVP                 4        6   3s1p




 Summary of "ao basis" -> "ao basis" (spherical)
 ------------------------------------------------------------------------------
       Tag                 Description            Shells   Functions and Types
 ---------------- ------------------------------  ------  ---------------------
 O                         def2-TZVP                11       31   5s3p2d1f
 C                         def2-TZVP                11       31   5s3p2d1f
 H                         def2-TZVP                 4        6   3s1p


  Caching 1-el integrals 
  itol2e modified to match energy
  convergence criterion.
  tol_rho modified to match energy
  convergence criterion.
 
            General Information
            -------------------
          SCF calculation type: DFT
          Wavefunction type:  closed shell.
          No. of atoms     :    10
          No. of electrons :    32
           Alpha electrons :    16
            Beta electrons :    16
          Charge           :     0
          Spin multiplicity:     1
          Use of symmetry is: off; symmetry adaption is: off
          Maximum number of iterations: 250
          This is a Direct SCF calculation.
          AO basis - number of functions:   160
                     number of shells:    68
          Convergence on energy requested:  1.00D-08
          Convergence on density requested:  1.00D-05
          Convergence on gradient requested:  1.00D-07
 
              XC Information
              --------------
                    Becke 1988 Exchange Functional  1.000          
              Lee-Yang-Parr Correlation Functional  1.000          
 
             Grid Information
             ----------------
          Grid used for XC integration:  xfine     
          Radial quadrature: Mura-Knowles        
          Angular quadrature: Lebedev. 
          Tag              B.-S. Rad. Rad. Pts. Rad. Cut. Ang. Pts.
          ---              ---------- --------- --------- ---------
          O                   0.60      100          11.0      1454
          C                   0.70      100          11.0      1454
          H                   0.35      100          12.0      1202
          Grid pruning is: on 
          Number of quadrature shells:  1000
          Spatial weights used:  Erf1
 
          Convergence Information
          -----------------------
          Convergence aids based upon iterative change in 
          total energy or number of iterations. 
          Levelshifting, if invoked, occurs when the 
          HOMO/LUMO gap drops below (HL_TOL):  1.00D-02
          DIIS, if invoked, will attempt to extrapolate 
          using up to (NFOCK): 10 stored Fock matrices.

                    Damping( 0%)  Levelshifting(0.0)       DIIS
                  --------------- ------------------- ---------------
          dE  on:    start             N/A                start   
          dE off:    2 iters           N/A              250 iters 

 
      Screening Tolerance Information
      -------------------------------
          Density screening/tol_rho:  1.00D-11
          AO Gaussian exp screening on grid/accAOfunc:  18
          CD Gaussian exp screening on grid/accCDfunc:  20
          XC Gaussian exp screening on grid/accXCfunc:  20
          Schwarz screening/accCoul:  1.00D-09

 
      Superposition of Atomic Density Guess
      -------------------------------------
 
 Sum of atomic energies:        -190.79714706
 
      Non-variational initial energy
      ------------------------------

 Total energy =    -193.169764
 1-e energy   =    -502.182066
 2-e energy   =     185.399799
 HOMO         =      -0.351312
 LUMO         =       0.090948
 
   Time after variat. SCF:      0.7
   Time prior to 1st pass:      0.7

 Grid_pts file          = ./methyloxirane_blyp-def2-tzvp_488.9_32.inp.gridpts.0
 Record size in doubles =  12289        No. of grid_pts per rec  =   3070
 Max. records in memory =     76        Max. recs in file   =    554542


           Memory utilization after 1st SCF pass: 
           Heap Space remaining (MW):       12.17            12167540
          Stack Space remaining (MW):       13.11            13106124

   convergence    iter        energy       DeltaE   RMS-Dens  Diis-err    time
 ---------------- ----- ----------------- --------- --------- ---------  ------
 d= 0,ls=0.0,diis     1   -193.0203008522 -3.17D+02  9.16D-03  1.06D+00     7.0
 d= 0,ls=0.0,diis     2   -192.8614213660  1.59D-01  7.57D-03  2.53D+00    13.1
 d= 0,ls=0.0,diis     3   -193.0769847606 -2.16D-01  1.83D-03  3.87D-01    19.2
 d= 0,ls=0.0,diis     4   -193.1072026680 -3.02D-02  6.82D-04  1.81D-02    25.3
 d= 0,ls=0.0,diis     5   -193.1088656779 -1.66D-03  2.92D-04  2.68D-03    31.5
 d= 0,ls=0.0,diis     6   -193.1091989822 -3.33D-04  3.01D-05  3.45D-05    37.6
 d= 0,ls=0.0,diis     7   -193.1092031131 -4.13D-06  8.50D-06  3.75D-06    43.7
 d= 0,ls=0.0,diis     8   -193.1092035338 -4.21D-07  1.87D-06  2.69D-07    49.8
 d= 0,ls=0.0,diis     9   -193.1092035635 -2.97D-08  5.96D-07  1.27D-08    56.0
 d= 0,ls=0.0,diis    10   -193.1092035651 -1.56D-09  1.39D-07  6.93D-10    62.2


         Total DFT energy =     -193.109203565106
      One electron energy =     -505.838780714211
           Coulomb energy =      216.139627651451
    Exchange-Corr. energy =      -27.022553570265
 Nuclear repulsion energy =      123.612503067919

 Numeric. integr. density =       31.999999965104

     Total iterative time =     61.5s


 
                       DFT Final Molecular Orbital Analysis
                       ------------------------------------
 
 Vector    1  Occ=2.000000D+00  E=-1.877962D+01
              MO Center= -8.8D-01, -1.8D-01,  2.1D-01, r^2= 1.5D-02
   Bfn.  Coefficient  Atom+Function         Bfn.  Coefficient  Atom+Function  
  ----- ------------  ---------------      ----- ------------  ---------------
     2      0.638475   1 O  s                 1      0.435422   1 O  s         
     3      0.039903   1 O  s                 4     -0.033288   1 O  s         
 
 Vector    2  Occ=2.000000D+00  E=-9.963042D+00
              MO Center=  5.7D-01, -1.6D-01,  1.2D-01, r^2= 2.8D-02
   Bfn.  Coefficient  Atom+Function         Bfn.  Coefficient  Atom+Function  
  ----- ------------  ---------------      ----- ------------  ---------------
    33      0.606909   2 C  s                32      0.467261   2 C  s         
    34      0.042492   2 C  s                36      0.037424   2 C  s         
    35     -0.027149   2 C  s         
 
 Vector    3  Occ=2.000000D+00  E=-9.955613D+00
              MO Center= -1.9D-01,  1.1D+00,  3.4D-01, r^2= 2.8D-02
   Bfn.  Coefficient  Atom+Function         Bfn.  Coefficient  Atom+Function  
  ----- ------------  ---------------      ----- ------------  ---------------
    64      0.607026   3 C  s                63      0.467223   3 C  s         
    65      0.039695   3 C  s         
 
 Vector    4  Occ=2.000000D+00  E=-9.907709D+00
              MO Center=  1.2D+00, -5.2D-01, -1.2D+00, r^2= 2.8D-02
   Bfn.  Coefficient  Atom+Function         Bfn.  Coefficient  Atom+Function  
  ----- ------------  ---------------      ----- ------------  ---------------
    95      0.606958   4 C  s                94      0.467214   4 C  s         
    96      0.040595   4 C  s                98      0.035699   4 C  s         
 
 Vector    5  Occ=2.000000D+00  E=-9.633225D-01
              MO Center= -4.7D-01,  5.6D-02,  2.1D-01, r^2= 6.5D-01
   Bfn.  Coefficient  Atom+Function         Bfn.  Coefficient  Atom+Function  
  ----- ------------  ---------------      ----- ------------  ---------------
     4      0.375146   1 O  s                 3      0.277360   1 O  s         
     2     -0.192771   1 O  s                34      0.139929   2 C  s         
    65      0.139022   3 C  s                 5      0.122665   1 O  s         
    35      0.105097   2 C  s                 6      0.093510   1 O  px        
    66      0.093178   3 C  s                69     -0.091422   3 C  py        
 
 Vector    6  Occ=2.000000D+00  E=-6.700483D-01
              MO Center=  9.4D-01, -3.9D-01, -7.7D-01, r^2= 1.5D+00
   Bfn.  Coefficient  Atom+Function         Bfn.  Coefficient  Atom+Function  
  ----- ------------  ---------------      ----- ------------  ---------------
    97      0.285652   4 C  s                96      0.276691   4 C  s         
    35      0.185057   2 C  s                34      0.174308   2 C  s         
    95     -0.174259   4 C  s                 4     -0.146706   1 O  s         
    33     -0.108935   2 C  s                 3     -0.102554   1 O  s         
    94     -0.083496   4 C  s                 5     -0.072744   1 O  s         
 
 Vector    7  Occ=2.000000D+00  E=-5.894576D-01
              MO Center= -1.3D-01,  7.3D-01,  2.2D-01, r^2= 1.9D+00
   Bfn.  Coefficient  Atom+Function         Bfn.  Coefficient  Atom+Function  
  ----- ------------  ---------------      ----- ------------  ---------------
    66      0.327671   3 C  s                65      0.279152   3 C  s         
     4     -0.238218   1 O  s                64     -0.172550   3 C  s         
     3     -0.168154   1 O  s                 5     -0.147830   1 O  s         
     2      0.111037   1 O  s                38      0.105066   2 C  py        
   132      0.103443   6 H  s               138      0.098455   7 H  s         
 
 Vector    8  Occ=2.000000D+00  E=-5.300824D-01
              MO Center=  4.1D-01,  2.9D-03, -1.0D-01, r^2= 2.7D+00
   Bfn.  Coefficient  Atom+Function         Bfn.  Coefficient  Atom+Function  
  ----- ------------  ---------------      ----- ------------  ---------------
    35      0.303358   2 C  s                34      0.225228   2 C  s         
    97     -0.155893   4 C  s                66     -0.149263   3 C  s         
    33     -0.138535   2 C  s               126      0.133113   5 H  s         
    96     -0.129211   4 C  s                 6      0.107869   1 O  px        
   125      0.106409   5 H  s                39      0.097688   2 C  pz        
 
 Vector    9  Occ=2.000000D+00  E=-4.478181D-01
              MO Center=  1.2D-01,  2.8D-01,  2.5D-01, r^2= 2.5D+00
   Bfn.  Coefficient  Atom+Function         Bfn.  Coefficient  Atom+Function  
  ----- ------------  ---------------      ----- ------------  ---------------
    70      0.208939   3 C  pz               39      0.154943   2 C  pz        
   132      0.145037   6 H  s                73      0.131192   3 C  pz        
     8      0.127128   1 O  pz              126      0.115341   5 H  s         
     6     -0.110929   1 O  px               38     -0.108191   2 C  py        
   131      0.107568   6 H  s                11      0.102987   1 O  pz        
 
 Vector   10  Occ=2.000000D+00  E=-4.138355D-01
              MO Center=  6.0D-02,  2.8D-01, -2.4D-01, r^2= 2.6D+00
   Bfn.  Coefficient  Atom+Function         Bfn.  Coefficient  Atom+Function  
  ----- ------------  ---------------      ----- ------------  ---------------
    69      0.214756   3 C  py              101      0.154469   4 C  pz        
   138      0.153488   7 H  s                 6     -0.141486   1 O  px        
    38     -0.141180   2 C  py               37      0.126548   2 C  px        
     7     -0.121410   1 O  py               72      0.121395   3 C  py        
    70     -0.116213   3 C  pz                9     -0.113036   1 O  px        
 
 Vector   11  Occ=2.000000D+00  E=-3.769937D-01
              MO Center=  9.0D-01, -3.0D-01, -7.4D-01, r^2= 2.7D+00
   Bfn.  Coefficient  Atom+Function         Bfn.  Coefficient  Atom+Function  
  ----- ------------  ---------------      ----- ------------  ---------------
    99      0.212799   4 C  px              144      0.184641   8 H  s         
   100      0.159088   4 C  py              150     -0.137633   9 H  s         
   102      0.136121   4 C  px               37      0.129639   2 C  px        
   143      0.129192   8 H  s                 6     -0.118023   1 O  px        
     7      0.113721   1 O  py              103      0.105320   4 C  py        
 
 Vector   12  Occ=2.000000D+00  E=-3.560292D-01
              MO Center=  5.9D-01, -3.5D-01, -8.7D-01, r^2= 2.9D+00
   Bfn.  Coefficient  Atom+Function         Bfn.  Coefficient  Atom+Function  
  ----- ------------  ---------------      ----- ------------  ---------------
   100      0.258721   4 C  py              150     -0.188972   9 H  s         
   156      0.171741  10 H  s                 7     -0.168602   1 O  py        
   103      0.167952   4 C  py               10     -0.134889   1 O  py        
   149     -0.131611   9 H  s               155      0.121598  10 H  s         
    70      0.115518   3 C  pz              106      0.103662   4 C  py        
 
 Vector   13  Occ=2.000000D+00  E=-3.294492D-01
              MO Center=  3.0D-01,  2.4D-01, -2.3D-01, r^2= 2.7D+00
   Bfn.  Coefficient  Atom+Function         Bfn.  Coefficient  Atom+Function  
  ----- ------------  ---------------      ----- ------------  ---------------
    39      0.207098   2 C  pz              101     -0.186892   4 C  pz        
     7     -0.179942   1 O  py               70     -0.166592   3 C  pz        
   138      0.162327   7 H  s                10     -0.145485   1 O  py        
    42      0.140084   2 C  pz               99      0.136812   4 C  px        
   104     -0.131081   4 C  pz              137      0.109269   7 H  s         
 
 Vector   14  Occ=2.000000D+00  E=-3.212820D-01
              MO Center=  4.2D-01, -5.0D-02, -2.4D-01, r^2= 3.0D+00
   Bfn.  Coefficient  Atom+Function         Bfn.  Coefficient  Atom+Function  
  ----- ------------  ---------------      ----- ------------  ---------------
     7      0.192901   1 O  py              126      0.167193   5 H  s         
    10      0.158283   1 O  py              156      0.158763  10 H  s         
    99     -0.150728   4 C  px               39      0.143676   2 C  pz        
     6     -0.140040   1 O  px              101     -0.131915   4 C  pz        
    37      0.125901   2 C  px              144     -0.124810   8 H  s         
 
 Vector   15  Occ=2.000000D+00  E=-2.630656D-01
              MO Center=  2.0D-02,  1.5D-01,  3.2D-02, r^2= 2.3D+00
   Bfn.  Coefficient  Atom+Function         Bfn.  Coefficient  Atom+Function  
  ----- ------------  ---------------      ----- ------------  ---------------
    68      0.264088   3 C  px               38      0.254904   2 C  py        
     6     -0.236742   1 O  px               41      0.198694   2 C  py        
    71      0.196382   3 C  px                9     -0.185168   1 O  px        
    12     -0.156871   1 O  px              150      0.116393   9 H  s         
   100     -0.113168   4 C  py               67      0.107923   3 C  s         
 
 Vector   16  Occ=2.000000D+00  E=-2.196081D-01
              MO Center= -5.8D-01, -2.5D-02,  2.0D-01, r^2= 1.6D+00
   Bfn.  Coefficient  Atom+Function         Bfn.  Coefficient  Atom+Function  
  ----- ------------  ---------------      ----- ------------  ---------------
     8      0.448072   1 O  pz               11      0.356914   1 O  pz        
    14      0.295946   1 O  pz              133     -0.132856   6 H  s         
   139      0.115666   7 H  s               138      0.105022   7 H  s         
   132     -0.103751   6 H  s               145     -0.102465   8 H  s         
   126     -0.098063   5 H  s                98      0.092954   4 C  s         
 
 Vector   17  Occ=0.000000D+00  E= 2.595761D-02
              MO Center=  1.2D+00, -1.2D-01, -6.2D-01, r^2= 7.3D+00
   Bfn.  Coefficient  Atom+Function         Bfn.  Coefficient  Atom+Function  
  ----- ------------  ---------------      ----- ------------  ---------------
    98      4.489575   4 C  s               145     -1.513222   8 H  s         
   151     -1.519596   9 H  s               157     -1.352626  10 H  s         
   127     -1.246264   5 H  s                45      1.134774   2 C  pz        
   139     -0.872750   7 H  s                67      0.701250   3 C  s         
   133     -0.609430   6 H  s                75      0.329717   3 C  py        
 
 Vector   18  Occ=0.000000D+00  E= 4.309448D-02
              MO Center= -1.3D-01,  6.7D-01,  1.1D-01, r^2= 4.4D+00
   Bfn.  Coefficient  Atom+Function         Bfn.  Coefficient  Atom+Function  
  ----- ------------  ---------------      ----- ------------  ---------------
    98     -2.184946   4 C  s                36      2.073972   2 C  s         
     5     -1.265168   1 O  s                74     -0.951288   3 C  px        
   151      0.806669   9 H  s                45     -0.500190   2 C  pz        
    67     -0.469746   3 C  s               157      0.456930  10 H  s         
    13     -0.433848   1 O  py               44      0.426430   2 C  py        
 
 Vector   19  Occ=0.000000D+00  E= 4.941261D-02
              MO Center=  3.2D-01,  5.9D-01, -1.6D-01, r^2= 6.4D+00
   Bfn.  Coefficient  Atom+Function         Bfn.  Coefficient  Atom+Function  
  ----- ------------  ---------------      ----- ------------  ---------------
    67      3.020518   3 C  s                36     -2.428020   2 C  s         
   139     -1.652544   7 H  s               127      1.572790   5 H  s         
   157     -0.696348  10 H  s               145      0.608260   8 H  s         
    45     -0.602334   2 C  pz               44     -0.563565   2 C  py        
     5     -0.536008   1 O  s               133     -0.473622   6 H  s         
 
 Vector   20  Occ=0.000000D+00  E= 5.116054D-02
              MO Center=  6.3D-01,  4.5D-01,  4.5D-01, r^2= 7.6D+00
   Bfn.  Coefficient  Atom+Function         Bfn.  Coefficient  Atom+Function  
  ----- ------------  ---------------      ----- ------------  ---------------
    98      3.380245   4 C  s                67     -2.285600   3 C  s         
   133      1.804354   6 H  s               127      1.430699   5 H  s         
    36     -1.223756   2 C  s               157     -1.182432  10 H  s         
   145     -1.104939   8 H  s                44      1.020860   2 C  py        
    43     -0.721483   2 C  px              151     -0.668619   9 H  s         
 
 Vector   21  Occ=0.000000D+00  E= 6.542249D-02
              MO Center=  2.8D-01,  9.2D-02, -1.9D-01, r^2= 4.8D+00
   Bfn.  Coefficient  Atom+Function         Bfn.  Coefficient  Atom+Function  
  ----- ------------  ---------------      ----- ------------  ---------------
   139      1.256768   7 H  s                98      1.152187   4 C  s         
   151     -0.990433   9 H  s                67     -0.960591   3 C  s         
     5     -0.881721   1 O  s                43     -0.818266   2 C  px        
    75     -0.562826   3 C  py              133      0.544486   6 H  s         
    12     -0.485302   1 O  px              127     -0.436540   5 H  s         
 
 Vector   22  Occ=0.000000D+00  E= 8.551428D-02
              MO Center=  1.3D+00,  2.2D-01, -4.9D-01, r^2= 7.2D+00
   Bfn.  Coefficient  Atom+Function         Bfn.  Coefficient  Atom+Function  
  ----- ------------  ---------------      ----- ------------  ---------------
    36      2.850229   2 C  s               145      2.005720   8 H  s         
    67     -1.386138   3 C  s               127     -1.307373   5 H  s         
   157     -1.299560  10 H  s               133      1.224835   6 H  s         
   107     -1.101088   4 C  pz              105     -1.020093   4 C  px        
    98     -0.967288   4 C  s                75      0.762618   3 C  py        
 
 Vector   23  Occ=0.000000D+00  E= 9.188959D-02
              MO Center=  1.2D+00, -6.9D-01, -5.4D-01, r^2= 6.5D+00
   Bfn.  Coefficient  Atom+Function         Bfn.  Coefficient  Atom+Function  
  ----- ------------  ---------------      ----- ------------  ---------------
    36      2.633376   2 C  s               151      2.110881   9 H  s         
   145     -1.577203   8 H  s                98     -1.325841   4 C  s         
   106      1.176954   4 C  py              105      1.113209   4 C  px        
    67     -0.961997   3 C  s               133      0.885222   6 H  s         
   127     -0.876772   5 H  s               107     -0.712602   4 C  pz        
 
 Vector   24  Occ=0.000000D+00  E= 1.027134D-01
              MO Center=  4.2D-01,  4.9D-01, -1.1D+00, r^2= 6.7D+00
   Bfn.  Coefficient  Atom+Function         Bfn.  Coefficient  Atom+Function  
  ----- ------------  ---------------      ----- ------------  ---------------
   157      2.048687  10 H  s               133      1.613669   6 H  s         
    98     -1.522765   4 C  s               139     -1.513827   7 H  s         
   106     -1.417218   4 C  py               36      1.355819   2 C  s         
   151     -1.299063   9 H  s                76     -1.166777   3 C  pz        
   105      1.052722   4 C  px               45     -0.549962   2 C  pz        
 
 Vector   25  Occ=0.000000D+00  E= 1.388408D-01
              MO Center=  7.9D-01,  2.0D-01, -4.4D-01, r^2= 7.9D+00
   Bfn.  Coefficient  Atom+Function         Bfn.  Coefficient  Atom+Function  
  ----- ------------  ---------------      ----- ------------  ---------------
    36      4.747030   2 C  s                98     -3.588778   4 C  s         
    45     -3.424649   2 C  pz               67     -2.860265   3 C  s         
   127      2.727688   5 H  s                76      2.175337   3 C  pz        
   105      2.099390   4 C  px              133     -1.782708   6 H  s         
   139      1.693213   7 H  s               107     -1.575519   4 C  pz        
 
 Vector   26  Occ=0.000000D+00  E= 1.705032D-01
              MO Center=  4.6D-01,  5.2D-01, -1.5D-01, r^2= 7.3D+00
   Bfn.  Coefficient  Atom+Function         Bfn.  Coefficient  Atom+Function  
  ----- ------------  ---------------      ----- ------------  ---------------
    75      2.288725   3 C  py              107      1.653490   4 C  pz        
    67     -1.524780   3 C  s                36      1.479600   2 C  s         
   139     -1.192976   7 H  s               157      1.070700  10 H  s         
    74     -0.985757   3 C  px               44      0.734105   2 C  py        
    43     -0.620228   2 C  px              106     -0.577760   4 C  py        
 
 Vector   27  Occ=0.000000D+00  E= 1.972911D-01
              MO Center=  9.7D-01, -3.6D-02, -9.6D-01, r^2= 5.3D+00
   Bfn.  Coefficient  Atom+Function         Bfn.  Coefficient  Atom+Function  
  ----- ------------  ---------------      ----- ------------  ---------------
    67      3.009025   3 C  s                44     -2.523617   2 C  py        
   106      2.106336   4 C  py               36     -1.038016   2 C  s         
    43      0.982204   2 C  px              107     -0.703153   4 C  pz        
   150      0.677095   9 H  s               133     -0.637588   6 H  s         
   157     -0.627046  10 H  s                74      0.583502   3 C  px        
 
 Vector   28  Occ=0.000000D+00  E= 2.025344D-01
              MO Center=  7.9D-01, -4.7D-01, -7.3D-01, r^2= 6.5D+00
   Bfn.  Coefficient  Atom+Function         Bfn.  Coefficient  Atom+Function  
  ----- ------------  ---------------      ----- ------------  ---------------
    36      2.937383   2 C  s                75      1.816127   3 C  py        
   105     -1.579629   4 C  px              133     -1.125635   6 H  s         
    45      0.947350   2 C  pz               67     -0.790605   3 C  s         
   139     -0.772505   7 H  s               156     -0.689451  10 H  s         
   107     -0.676218   4 C  pz               44      0.638281   2 C  py        
 
 Vector   29  Occ=0.000000D+00  E= 2.364640D-01
              MO Center= -3.3D-01,  4.1D-01, -1.2D-02, r^2= 5.4D+00
   Bfn.  Coefficient  Atom+Function         Bfn.  Coefficient  Atom+Function  
  ----- ------------  ---------------      ----- ------------  ---------------
    67      4.684640   3 C  s                36     -3.233753   2 C  s         
   139     -1.493921   7 H  s                66     -1.459073   3 C  s         
    98      1.317651   4 C  s               133     -1.235144   6 H  s         
   107      0.934716   4 C  pz               74     -0.790147   3 C  px        
     5     -0.771662   1 O  s               106      0.710976   4 C  py        
 
 Vector   30  Occ=0.000000D+00  E= 2.479343D-01
              MO Center=  5.8D-01, -2.4D-02, -9.4D-02, r^2= 5.8D+00
   Bfn.  Coefficient  Atom+Function         Bfn.  Coefficient  Atom+Function  
  ----- ------------  ---------------      ----- ------------  ---------------
    67      5.884074   3 C  s                43      4.206649   2 C  px        
    75     -2.946381   3 C  py               44     -2.649437   2 C  py        
   107     -2.079353   4 C  pz               36     -2.004715   2 C  s         
   157     -1.843674  10 H  s                45     -1.478732   2 C  pz        
    98     -1.412173   4 C  s               105     -1.224949   4 C  px        
 
 Vector   31  Occ=0.000000D+00  E= 2.689928D-01
              MO Center=  3.1D-01, -1.3D-01,  2.5D-01, r^2= 5.7D+00
   Bfn.  Coefficient  Atom+Function         Bfn.  Coefficient  Atom+Function  
  ----- ------------  ---------------      ----- ------------  ---------------
    36      4.380733   2 C  s                 5     -2.202431   1 O  s         
    67      2.150617   3 C  s                43     -1.608108   2 C  px        
   105      1.573680   4 C  px               66     -1.175849   3 C  s         
    98     -1.135773   4 C  s               139     -0.943897   7 H  s         
   133     -0.914300   6 H  s               127     -0.836925   5 H  s         
 
 Vector   32  Occ=0.000000D+00  E= 2.781839D-01
              MO Center=  3.8D-01,  2.9D-01,  2.8D-01, r^2= 4.2D+00
   Bfn.  Coefficient  Atom+Function         Bfn.  Coefficient  Atom+Function  
  ----- ------------  ---------------      ----- ------------  ---------------
    36      2.590918   2 C  s                 5     -1.805050   1 O  s         
    67     -1.412078   3 C  s                43     -1.215466   2 C  px        
    98     -0.910488   4 C  s                45     -0.748853   2 C  pz        
    74     -0.702920   3 C  px              145      0.613980   8 H  s         
     4      0.500000   1 O  s               107     -0.412414   4 C  pz        
 
 Vector   33  Occ=0.000000D+00  E= 3.005753D-01
              MO Center=  4.5D-01,  3.8D-01, -3.8D-01, r^2= 4.9D+00
   Bfn.  Coefficient  Atom+Function         Bfn.  Coefficient  Atom+Function  
  ----- ------------  ---------------      ----- ------------  ---------------
    43      1.790114   2 C  px               98     -1.705464   4 C  s         
   106      1.707995   4 C  py              151      1.662737   9 H  s         
    76      1.307399   3 C  pz               36     -1.251421   2 C  s         
    44     -1.186331   2 C  py               66      1.037060   3 C  s         
   107     -0.975728   4 C  pz              139      0.929218   7 H  s         
 
 Vector   34  Occ=0.000000D+00  E= 3.376302D-01
              MO Center=  1.2D-01,  4.2D-01, -4.1D-01, r^2= 5.9D+00
   Bfn.  Coefficient  Atom+Function         Bfn.  Coefficient  Atom+Function  
  ----- ------------  ---------------      ----- ------------  ---------------
    67      4.434125   3 C  s                76     -4.007538   3 C  pz        
   139     -3.174001   7 H  s                36     -2.181626   2 C  s         
   133      2.046982   6 H  s               107     -1.774814   4 C  pz        
   157     -1.760087  10 H  s                98      1.536810   4 C  s         
    43      1.388377   2 C  px               44     -1.065397   2 C  py        
 
 Vector   35  Occ=0.000000D+00  E= 3.624538D-01
              MO Center=  7.1D-01,  5.7D-03, -3.5D-01, r^2= 6.7D+00
   Bfn.  Coefficient  Atom+Function         Bfn.  Coefficient  Atom+Function  
  ----- ------------  ---------------      ----- ------------  ---------------
    98      8.212348   4 C  s                76      3.184906   3 C  pz        
   145     -3.162255   8 H  s                97     -3.143427   4 C  s         
   133     -2.292785   6 H  s               151     -1.918420   9 H  s         
   139      1.592162   7 H  s                44      1.560759   2 C  py        
   157     -1.503050  10 H  s                45     -1.304234   2 C  pz        
 
 Vector   36  Occ=0.000000D+00  E= 3.718299D-01
              MO Center=  5.7D-01,  2.4D-01, -2.0D-02, r^2= 6.4D+00
   Bfn.  Coefficient  Atom+Function         Bfn.  Coefficient  Atom+Function  
  ----- ------------  ---------------      ----- ------------  ---------------
    36     13.265951   2 C  s                98     -8.720900   4 C  s         
    67     -8.614957   3 C  s               127     -3.256080   5 H  s         
    97      2.347079   4 C  s               157      2.292534  10 H  s         
    35     -1.960087   2 C  s                44      1.918671   2 C  py        
    74     -1.630077   3 C  px               75      1.597154   3 C  py        
 
 Vector   37  Occ=0.000000D+00  E= 3.845444D-01
              MO Center=  9.5D-01, -3.8D-01, -2.1D-01, r^2= 6.1D+00
   Bfn.  Coefficient  Atom+Function         Bfn.  Coefficient  Atom+Function  
  ----- ------------  ---------------      ----- ------------  ---------------
    36      5.902669   2 C  s                98      4.537886   4 C  s         
   127     -3.846372   5 H  s                45      2.547550   2 C  pz        
    67     -2.481068   3 C  s               151     -2.429878   9 H  s         
   145     -2.159666   8 H  s                35     -2.110172   2 C  s         
    97     -1.718350   4 C  s                76     -1.683920   3 C  pz        
 
 Vector   38  Occ=0.000000D+00  E= 3.961602D-01
              MO Center=  2.9D-01,  3.0D-01,  4.8D-02, r^2= 6.5D+00
   Bfn.  Coefficient  Atom+Function         Bfn.  Coefficient  Atom+Function  
  ----- ------------  ---------------      ----- ------------  ---------------
    98     10.967894   4 C  s                67     -7.841912   3 C  s         
    45      4.581948   2 C  pz              133      2.993664   6 H  s         
    76     -2.977880   3 C  pz               44      2.879109   2 C  py        
   157     -2.455593  10 H  s                43     -2.280131   2 C  px        
    75      1.977111   3 C  py               97     -1.739563   4 C  s         
 
 Vector   39  Occ=0.000000D+00  E= 4.029769D-01
              MO Center= -3.5D-01,  1.1D-01,  1.2D-01, r^2= 6.3D+00
   Bfn.  Coefficient  Atom+Function         Bfn.  Coefficient  Atom+Function  
  ----- ------------  ---------------      ----- ------------  ---------------
    36     11.236534   2 C  s                67    -10.994960   3 C  s         
    98     -6.295277   4 C  s                45     -6.036907   2 C  pz        
    44      3.585704   2 C  py              127      3.289506   5 H  s         
   139      2.752186   7 H  s                66      2.559324   3 C  s         
   105      2.495100   4 C  px               76      2.356405   3 C  pz        
 
 Vector   40  Occ=0.000000D+00  E= 4.150554D-01
              MO Center=  7.5D-01, -3.3D-01, -8.2D-01, r^2= 5.9D+00
   Bfn.  Coefficient  Atom+Function         Bfn.  Coefficient  Atom+Function  
  ----- ------------  ---------------      ----- ------------  ---------------
    98      7.270927   4 C  s                36     -3.600962   2 C  s         
    45      2.999281   2 C  pz              105     -2.630310   4 C  px        
   151     -2.288514   9 H  s               157     -2.126006  10 H  s         
   145      1.784375   8 H  s                97     -1.161671   4 C  s         
    35      0.973861   2 C  s               144     -0.977955   8 H  s         
 
 Vector   41  Occ=0.000000D+00  E= 4.267253D-01
              MO Center=  4.9D-01,  1.4D-01, -1.7D-01, r^2= 6.9D+00
   Bfn.  Coefficient  Atom+Function         Bfn.  Coefficient  Atom+Function  
  ----- ------------  ---------------      ----- ------------  ---------------
    36      9.234991   2 C  s                67     -4.635044   3 C  s         
    98     -4.213516   4 C  s                44      2.556644   2 C  py        
    75      2.474802   3 C  py              151      2.473767   9 H  s         
    43     -1.699475   2 C  px               45     -1.632198   2 C  pz        
    74     -1.418835   3 C  px              105      1.392659   4 C  px        
 
 Vector   42  Occ=0.000000D+00  E= 4.467452D-01
              MO Center=  1.1D-01, -7.9D-02, -1.8D-01, r^2= 6.1D+00
   Bfn.  Coefficient  Atom+Function         Bfn.  Coefficient  Atom+Function  
  ----- ------------  ---------------      ----- ------------  ---------------
    36     10.183540   2 C  s                98     -9.283643   4 C  s         
    45     -5.601215   2 C  pz               67     -3.297621   3 C  s         
   127      2.842275   5 H  s                76      2.604107   3 C  pz        
    44      2.374222   2 C  py              157      2.145495  10 H  s         
   106     -2.025462   4 C  py               35     -1.998036   2 C  s         
 
 Vector   43  Occ=0.000000D+00  E= 4.601502D-01
              MO Center=  7.2D-02,  7.4D-01, -5.7D-01, r^2= 5.2D+00
   Bfn.  Coefficient  Atom+Function         Bfn.  Coefficient  Atom+Function  
  ----- ------------  ---------------      ----- ------------  ---------------
   139      3.175967   7 H  s               157     -2.445516  10 H  s         
   107     -2.353074   4 C  pz               75     -2.199352   3 C  py        
    45     -1.791837   2 C  pz               44     -1.706860   2 C  py        
    43      1.697320   2 C  px              138     -1.411006   7 H  s         
    76      1.098104   3 C  pz               98     -1.046803   4 C  s         
 
 Vector   44  Occ=0.000000D+00  E= 4.690055D-01
              MO Center=  4.7D-01,  2.1D-01,  1.8D-02, r^2= 5.6D+00
   Bfn.  Coefficient  Atom+Function         Bfn.  Coefficient  Atom+Function  
  ----- ------------  ---------------      ----- ------------  ---------------
    98     -5.077629   4 C  s                36      4.912379   2 C  s         
    45     -2.155054   2 C  pz              145      1.658921   8 H  s         
    67     -1.643806   3 C  s               107     -1.562128   4 C  pz        
   133      1.542181   6 H  s                35     -1.222026   2 C  s         
   132     -1.129295   6 H  s               126      1.079178   5 H  s         
 
 Vector   45  Occ=0.000000D+00  E= 5.077376D-01
              MO Center=  9.6D-01, -4.1D-01, -9.8D-01, r^2= 4.6D+00
   Bfn.  Coefficient  Atom+Function         Bfn.  Coefficient  Atom+Function  
  ----- ------------  ---------------      ----- ------------  ---------------
    98     11.856081   4 C  s                36     -8.163138   2 C  s         
    45      4.806273   2 C  pz              107      3.124458   4 C  pz        
   106      1.318388   4 C  py              144     -1.321348   8 H  s         
   156     -1.282405  10 H  s               127     -1.203044   5 H  s         
   105     -1.156739   4 C  px              150     -1.158036   9 H  s         
 
 Vector   46  Occ=0.000000D+00  E= 5.366917D-01
              MO Center=  2.5D-02, -3.9D-01, -4.5D-01, r^2= 4.3D+00
   Bfn.  Coefficient  Atom+Function         Bfn.  Coefficient  Atom+Function  
  ----- ------------  ---------------      ----- ------------  ---------------
    36      6.200065   2 C  s                98     -6.135752   4 C  s         
    76      3.298332   3 C  pz               45     -3.267068   2 C  pz        
   133     -1.876914   6 H  s               105      1.460929   4 C  px        
   139      1.406590   7 H  s                14     -1.239114   1 O  pz        
   107     -1.175563   4 C  pz                5     -1.064185   1 O  s         
 
 Vector   47  Occ=0.000000D+00  E= 6.602054D-01
              MO Center= -3.3D-01,  2.2D-02, -3.0D-02, r^2= 4.3D+00
   Bfn.  Coefficient  Atom+Function         Bfn.  Coefficient  Atom+Function  
  ----- ------------  ---------------      ----- ------------  ---------------
    36     11.552136   2 C  s                67     -8.880518   3 C  s         
    98     -4.084882   4 C  s                43     -2.644822   2 C  px        
    75      2.406445   3 C  py               13      2.192636   1 O  py        
    76      2.085671   3 C  pz              105      1.668541   4 C  px        
   139      1.520366   7 H  s                44      1.484425   2 C  py        
 
 Vector   48  Occ=0.000000D+00  E= 6.733390D-01
              MO Center= -3.3D-01,  3.5D-01,  1.3D-01, r^2= 4.0D+00
   Bfn.  Coefficient  Atom+Function         Bfn.  Coefficient  Atom+Function  
  ----- ------------  ---------------      ----- ------------  ---------------
    36      8.599736   2 C  s                67     -8.339354   3 C  s         
     5      2.927442   1 O  s                75      2.707914   3 C  py        
    98     -2.230276   4 C  s                13      2.213043   1 O  py        
    43     -1.415211   2 C  px               45     -1.250458   2 C  pz        
     4     -1.085935   1 O  s                44      1.085702   2 C  py        
 
 Vector   49  Occ=0.000000D+00  E= 7.100700D-01
              MO Center=  1.9D-01, -3.1D-01, -2.8D-01, r^2= 4.4D+00
   Bfn.  Coefficient  Atom+Function         Bfn.  Coefficient  Atom+Function  
  ----- ------------  ---------------      ----- ------------  ---------------
    67      9.156154   3 C  s                36     -6.943484   2 C  s         
    43      3.622019   2 C  px               44     -3.433589   2 C  py        
    98     -2.736791   4 C  s                75     -2.632414   3 C  py        
     5      2.400252   1 O  s                12      1.682437   1 O  px        
   106      1.605777   4 C  py               13     -1.231072   1 O  py        
 
 Vector   50  Occ=0.000000D+00  E= 7.571578D-01
              MO Center=  6.2D-01,  4.9D-02, -3.1D-01, r^2= 4.1D+00
   Bfn.  Coefficient  Atom+Function         Bfn.  Coefficient  Atom+Function  
  ----- ------------  ---------------      ----- ------------  ---------------
    45      2.651805   2 C  pz              127     -1.791874   5 H  s         
   105     -1.682498   4 C  px               43      1.435355   2 C  px        
    36      1.353103   2 C  s               126     -1.310168   5 H  s         
     5     -1.270176   1 O  s                76     -1.264445   3 C  pz        
   144      1.235221   8 H  s                66      0.952038   3 C  s         
 
 Vector   51  Occ=0.000000D+00  E= 7.948626D-01
              MO Center=  3.0D-01,  1.1D-02, -2.1D-01, r^2= 4.4D+00
   Bfn.  Coefficient  Atom+Function         Bfn.  Coefficient  Atom+Function  
  ----- ------------  ---------------      ----- ------------  ---------------
     5      4.060144   1 O  s                36     -2.767918   2 C  s         
    76     -2.439854   3 C  pz                4     -1.606671   1 O  s         
    45      1.366692   2 C  pz               12      1.354125   1 O  px        
   133      1.290585   6 H  s                66     -1.113808   3 C  s         
    43      1.087140   2 C  px               35     -1.036283   2 C  s         
 
 Vector   52  Occ=0.000000D+00  E= 8.315100D-01
              MO Center=  3.1D-01,  1.6D-01, -1.5D-03, r^2= 4.4D+00
   Bfn.  Coefficient  Atom+Function         Bfn.  Coefficient  Atom+Function  
  ----- ------------  ---------------      ----- ------------  ---------------
    36      6.679490   2 C  s                 5     -4.054343   1 O  s         
    98     -4.071263   4 C  s                43     -2.572468   2 C  px        
   105      1.975419   4 C  px               35     -1.809269   2 C  s         
    45     -1.769569   2 C  pz               44      1.473883   2 C  py        
    66     -1.155347   3 C  s                97      1.053534   4 C  s         
 
 Vector   53  Occ=0.000000D+00  E= 8.564715D-01
              MO Center=  6.1D-01,  1.3D-01, -3.8D-01, r^2= 4.1D+00
   Bfn.  Coefficient  Atom+Function         Bfn.  Coefficient  Atom+Function  
  ----- ------------  ---------------      ----- ------------  ---------------
    98     -4.583599   4 C  s                45     -4.523549   2 C  pz        
    36      4.460429   2 C  s                76      2.140950   3 C  pz        
   127      1.803111   5 H  s                44      1.562645   2 C  py        
   106     -1.510765   4 C  py              105      1.261144   4 C  px        
   150     -1.236809   9 H  s               139      1.141218   7 H  s         
 
 Vector   54  Occ=0.000000D+00  E= 8.703272D-01
              MO Center=  1.6D-01, -1.9D-02, -1.1D-01, r^2= 4.3D+00
   Bfn.  Coefficient  Atom+Function         Bfn.  Coefficient  Atom+Function  
  ----- ------------  ---------------      ----- ------------  ---------------
     5      4.683561   1 O  s                36     -1.869705   2 C  s         
     4     -1.606191   1 O  s               138      1.475707   7 H  s         
    67     -1.239882   3 C  s                76      1.237698   3 C  pz        
    12      1.191474   1 O  px               66     -1.117931   3 C  s         
    97      0.907470   4 C  s                43      0.885565   2 C  px        
 
 Vector   55  Occ=0.000000D+00  E= 9.197020D-01
              MO Center=  5.1D-01,  3.0D-01, -4.8D-01, r^2= 4.6D+00
   Bfn.  Coefficient  Atom+Function         Bfn.  Coefficient  Atom+Function  
  ----- ------------  ---------------      ----- ------------  ---------------
    35      4.962501   2 C  s                36     -1.700222   2 C  s         
    67      1.434768   3 C  s               132     -1.344293   6 H  s         
    72      1.284010   3 C  py               66     -1.252659   3 C  s         
    84      1.165156   3 C  d  0             41      1.135769   2 C  py        
    98     -1.124201   4 C  s               156     -1.127418  10 H  s         
 
 Vector   56  Occ=0.000000D+00  E= 9.612381D-01
              MO Center=  4.7D-01,  2.8D-01, -5.6D-01, r^2= 4.7D+00
   Bfn.  Coefficient  Atom+Function         Bfn.  Coefficient  Atom+Function  
  ----- ------------  ---------------      ----- ------------  ---------------
    35      4.182673   2 C  s                67      2.735863   3 C  s         
   138     -2.324407   7 H  s                76     -1.842884   3 C  pz        
    42     -1.752899   2 C  pz               36     -1.705181   2 C  s         
    83     -1.626069   3 C  d -1            115     -1.486642   4 C  d  0      
    98     -1.377565   4 C  s               132      1.350783   6 H  s         
 
 Vector   57  Occ=0.000000D+00  E= 9.924816D-01
              MO Center=  3.5D-01,  4.6D-01, -1.2D-01, r^2= 4.1D+00
   Bfn.  Coefficient  Atom+Function         Bfn.  Coefficient  Atom+Function  
  ----- ------------  ---------------      ----- ------------  ---------------
    36      7.508779   2 C  s                98     -4.882388   4 C  s         
    67     -3.976835   3 C  s                45     -3.720911   2 C  pz        
    43     -2.246639   2 C  px               44      2.208201   2 C  py        
    66     -1.742990   3 C  s               127      1.559466   5 H  s         
    75      1.467437   3 C  py              126      1.356933   5 H  s         
 
 Vector   58  Occ=0.000000D+00  E= 1.011789D+00
              MO Center=  3.4D-01,  5.9D-01, -2.1D-02, r^2= 4.2D+00
   Bfn.  Coefficient  Atom+Function         Bfn.  Coefficient  Atom+Function  
  ----- ------------  ---------------      ----- ------------  ---------------
    36      5.498064   2 C  s                67     -4.499327   3 C  s         
    45     -2.094819   2 C  pz               44      1.892427   2 C  py        
    98     -1.697365   4 C  s               156     -1.456632  10 H  s         
    82      1.393334   3 C  d -2             74     -1.369741   3 C  px        
    41      1.323369   2 C  py               76      1.282438   3 C  pz        
 
 Vector   59  Occ=0.000000D+00  E= 1.041798D+00
              MO Center=  7.2D-01, -1.9D-01, -4.9D-01, r^2= 4.2D+00
   Bfn.  Coefficient  Atom+Function         Bfn.  Coefficient  Atom+Function  
  ----- ------------  ---------------      ----- ------------  ---------------
    35      2.790034   2 C  s                66     -2.168178   3 C  s         
    36      2.027577   2 C  s               144     -2.010623   8 H  s         
   150      1.918631   9 H  s                 5     -1.805500   1 O  s         
   117      1.745734   4 C  d  2             41      1.411794   2 C  py        
    44      1.166920   2 C  py               72      1.139344   3 C  py        
 
 Vector   60  Occ=0.000000D+00  E= 1.079100D+00
              MO Center=  6.6D-01,  3.0D-02, -6.4D-02, r^2= 4.1D+00
   Bfn.  Coefficient  Atom+Function         Bfn.  Coefficient  Atom+Function  
  ----- ------------  ---------------      ----- ------------  ---------------
    66     -4.111218   3 C  s                98      4.081757   4 C  s         
    45      3.777856   2 C  pz               97      3.746498   4 C  s         
    36     -3.237736   2 C  s                41      2.604505   2 C  py        
   104      2.533101   4 C  pz               42      2.380663   2 C  pz        
    72      2.363381   3 C  py               40     -2.228724   2 C  px        
 
 Vector   61  Occ=0.000000D+00  E= 1.104575D+00
              MO Center=  3.7D-01,  5.8D-02,  6.0D-02, r^2= 3.8D+00
   Bfn.  Coefficient  Atom+Function         Bfn.  Coefficient  Atom+Function  
  ----- ------------  ---------------      ----- ------------  ---------------
    36      7.509964   2 C  s                67     -5.187092   3 C  s         
    98     -2.968893   4 C  s                66      2.172688   3 C  s         
   126     -2.032270   5 H  s                45     -1.938459   2 C  pz        
   132      1.653486   6 H  s                72     -1.620138   3 C  py        
    41     -1.497436   2 C  py               53      1.470413   2 C  d  0      
 
 Vector   62  Occ=0.000000D+00  E= 1.148964D+00
              MO Center=  6.3D-01,  5.2D-03, -4.0D-02, r^2= 3.5D+00
   Bfn.  Coefficient  Atom+Function         Bfn.  Coefficient  Atom+Function  
  ----- ------------  ---------------      ----- ------------  ---------------
    67      5.084868   3 C  s                36     -3.865741   2 C  s         
    44     -2.369973   2 C  py              126      1.851641   5 H  s         
    97     -1.791476   4 C  s                54      1.583840   2 C  d  1      
    43      1.524873   2 C  px               55      1.501561   2 C  d  2      
    42     -1.468593   2 C  pz               75     -1.386496   3 C  py        
 
 Vector   63  Occ=0.000000D+00  E= 1.214512D+00
              MO Center=  5.6D-01,  2.0D-01, -1.4D-01, r^2= 3.8D+00
   Bfn.  Coefficient  Atom+Function         Bfn.  Coefficient  Atom+Function  
  ----- ------------  ---------------      ----- ------------  ---------------
    36      6.938840   2 C  s                66     -4.971153   3 C  s         
    97     -3.446902   4 C  s                67     -3.396779   3 C  s         
    35      3.144301   2 C  s                72      1.890321   3 C  py        
    51     -1.760427   2 C  d -2             52      1.680559   2 C  d -1      
   138      1.658260   7 H  s               104     -1.499467   4 C  pz        
 
 Vector   64  Occ=0.000000D+00  E= 1.349941D+00
              MO Center=  3.3D-01,  5.6D-01,  2.3D-01, r^2= 3.6D+00
   Bfn.  Coefficient  Atom+Function         Bfn.  Coefficient  Atom+Function  
  ----- ------------  ---------------      ----- ------------  ---------------
    66      4.714035   3 C  s                35      3.934105   2 C  s         
    67     -3.152742   3 C  s                36     -2.733310   2 C  s         
    65     -2.423008   3 C  s               132     -2.087478   6 H  s         
    34     -1.433360   2 C  s               133      1.430401   6 H  s         
    72      1.379848   3 C  py              139      1.090909   7 H  s         
 
 Vector   65  Occ=0.000000D+00  E= 1.417181D+00
              MO Center=  1.6D-01,  5.3D-01, -5.4D-02, r^2= 3.4D+00
   Bfn.  Coefficient  Atom+Function         Bfn.  Coefficient  Atom+Function  
  ----- ------------  ---------------      ----- ------------  ---------------
    36      4.246021   2 C  s                66      3.928189   3 C  s         
    67     -3.875540   3 C  s                35     -3.823486   2 C  s         
    73     -2.329743   3 C  pz              138     -2.271454   7 H  s         
   139      2.218014   7 H  s               126      1.771342   5 H  s         
    76      1.671093   3 C  pz               65     -1.579212   3 C  s         
 
 Vector   66  Occ=0.000000D+00  E= 1.432534D+00
              MO Center=  1.0D+00, -4.7D-01, -1.1D+00, r^2= 3.5D+00
   Bfn.  Coefficient  Atom+Function         Bfn.  Coefficient  Atom+Function  
  ----- ------------  ---------------      ----- ------------  ---------------
    98      9.950417   4 C  s                97     -7.520208   4 C  s         
    96      3.039900   4 C  s                36     -2.397951   2 C  s         
   145     -2.350084   8 H  s               151     -2.325554   9 H  s         
   157     -2.090887  10 H  s               144      1.677528   8 H  s         
   150      1.668835   9 H  s               104      1.492380   4 C  pz        
 
 Vector   67  Occ=0.000000D+00  E= 1.442469D+00
              MO Center=  4.1D-01, -9.0D-03, -2.0D-01, r^2= 4.2D+00
   Bfn.  Coefficient  Atom+Function         Bfn.  Coefficient  Atom+Function  
  ----- ------------  ---------------      ----- ------------  ---------------
    66      4.148917   3 C  s                35     -3.082350   2 C  s         
    67     -2.762108   3 C  s                98      2.526962   4 C  s         
    36      2.067529   2 C  s               133      1.894144   6 H  s         
    45      1.797995   2 C  pz               76     -1.773493   3 C  pz        
   127     -1.544504   5 H  s                65     -1.475655   3 C  s         
 
 Vector   68  Occ=0.000000D+00  E= 1.447756D+00
              MO Center=  2.8D-01, -9.8D-03, -8.1D-02, r^2= 3.1D+00
   Bfn.  Coefficient  Atom+Function         Bfn.  Coefficient  Atom+Function  
  ----- ------------  ---------------      ----- ------------  ---------------
    98      5.559531   4 C  s                97     -3.081612   4 C  s         
    36     -2.744883   2 C  s                45      2.146491   2 C  pz        
     5      2.002629   1 O  s                35     -1.577076   2 C  s         
   127     -1.366032   5 H  s                96      1.290814   4 C  s         
    44     -1.058409   2 C  py               42     -1.028456   2 C  pz        
 
 Vector   69  Occ=0.000000D+00  E= 1.474321D+00
              MO Center=  8.8D-01, -3.0D-01, -9.4D-01, r^2= 3.7D+00
   Bfn.  Coefficient  Atom+Function         Bfn.  Coefficient  Atom+Function  
  ----- ------------  ---------------      ----- ------------  ---------------
    66      2.834627   3 C  s                67     -1.254344   3 C  s         
   133      1.198010   6 H  s                65     -1.169125   3 C  s         
   102      1.121481   4 C  px              144     -1.110349   8 H  s         
     5     -1.076225   1 O  s               132     -0.958970   6 H  s         
    71     -0.887943   3 C  px              145      0.846037   8 H  s         
 
 Vector   70  Occ=0.000000D+00  E= 1.477876D+00
              MO Center=  1.1D+00, -3.5D-01, -1.0D+00, r^2= 3.2D+00
   Bfn.  Coefficient  Atom+Function         Bfn.  Coefficient  Atom+Function  
  ----- ------------  ---------------      ----- ------------  ---------------
    36      3.025686   2 C  s               156     -2.663944  10 H  s         
   157      2.012258  10 H  s               103      1.857678   4 C  py        
   102     -1.825727   4 C  px              126      1.819733   5 H  s         
   104     -1.648143   4 C  pz              127     -1.455125   5 H  s         
    35     -1.384357   2 C  s               150      1.227832   9 H  s         
 
 Vector   71  Occ=0.000000D+00  E= 1.513631D+00
              MO Center=  3.1D-01,  1.6D-01, -3.2D-01, r^2= 3.9D+00
   Bfn.  Coefficient  Atom+Function         Bfn.  Coefficient  Atom+Function  
  ----- ------------  ---------------      ----- ------------  ---------------
    98      2.877953   4 C  s               144      1.824677   8 H  s         
   102     -1.544811   4 C  px              145     -1.415033   8 H  s         
    45      1.359067   2 C  pz               97     -1.318146   4 C  s         
   103     -1.275257   4 C  py               36     -1.131873   2 C  s         
    66      0.909351   3 C  s               150     -0.866052   9 H  s         
 
 Vector   72  Occ=0.000000D+00  E= 1.542514D+00
              MO Center=  3.6D-01,  4.5D-01, -2.1D-01, r^2= 4.6D+00
   Bfn.  Coefficient  Atom+Function         Bfn.  Coefficient  Atom+Function  
  ----- ------------  ---------------      ----- ------------  ---------------
    36      4.319744   2 C  s                35     -3.573366   2 C  s         
    98     -3.491085   4 C  s                97      3.009385   4 C  s         
    67     -2.547774   3 C  s                73      2.118531   3 C  pz        
   132     -1.751540   6 H  s               102     -1.460175   4 C  px        
   133      1.466445   6 H  s               150     -1.324304   9 H  s         
 
 Vector   73  Occ=0.000000D+00  E= 1.576987D+00
              MO Center=  4.8D-01, -1.8D-02, -9.0D-02, r^2= 3.2D+00
   Bfn.  Coefficient  Atom+Function         Bfn.  Coefficient  Atom+Function  
  ----- ------------  ---------------      ----- ------------  ---------------
    35      3.576901   2 C  s                36     -2.749595   2 C  s         
    40     -2.095797   2 C  px               97     -2.077708   4 C  s         
   126      1.762019   5 H  s                67      1.727590   3 C  s         
    72      1.660706   3 C  py               34     -1.477180   2 C  s         
    42     -1.465575   2 C  pz               98      1.379044   4 C  s         
 
 Vector   74  Occ=0.000000D+00  E= 1.597504D+00
              MO Center=  3.7D-01,  3.4D-01, -1.9D-01, r^2= 3.4D+00
   Bfn.  Coefficient  Atom+Function         Bfn.  Coefficient  Atom+Function  
  ----- ------------  ---------------      ----- ------------  ---------------
    66     -5.414889   3 C  s                36     -5.245377   2 C  s         
    35      5.010993   2 C  s                67      4.027307   3 C  s         
    41      3.760844   2 C  py               71     -2.535786   3 C  px        
    72      2.415808   3 C  py               40     -2.083304   2 C  px        
    98      1.684819   4 C  s                82      1.658460   3 C  d -2      
 
 Vector   75  Occ=0.000000D+00  E= 1.641590D+00
              MO Center=  4.2D-01,  2.1D-01,  1.6D-02, r^2= 3.7D+00
   Bfn.  Coefficient  Atom+Function         Bfn.  Coefficient  Atom+Function  
  ----- ------------  ---------------      ----- ------------  ---------------
    35      2.658810   2 C  s                66      2.415723   3 C  s         
    98      2.212925   4 C  s                 5     -1.894239   1 O  s         
    97     -1.833381   4 C  s                67     -1.166916   3 C  s         
   144      1.101651   8 H  s               104     -1.091824   4 C  pz        
   103     -1.027961   4 C  py              150     -0.980696   9 H  s         
 
 Vector   76  Occ=0.000000D+00  E= 1.696536D+00
              MO Center=  5.2D-01,  2.0D-01, -4.2D-01, r^2= 3.8D+00
   Bfn.  Coefficient  Atom+Function         Bfn.  Coefficient  Atom+Function  
  ----- ------------  ---------------      ----- ------------  ---------------
    97     -5.710232   4 C  s                35      5.271132   2 C  s         
   104     -2.998356   4 C  pz               42     -2.977391   2 C  pz        
   102      1.873711   4 C  px               40      1.634733   2 C  px        
    34     -1.550214   2 C  s                96      1.526970   4 C  s         
    72     -1.477741   3 C  py               66     -1.383060   3 C  s         
 
 Vector   77  Occ=0.000000D+00  E= 1.701894D+00
              MO Center= -1.4D-02,  2.0D-01, -8.1D-02, r^2= 3.6D+00
   Bfn.  Coefficient  Atom+Function         Bfn.  Coefficient  Atom+Function  
  ----- ------------  ---------------      ----- ------------  ---------------
     5      3.848825   1 O  s                72      3.121714   3 C  py        
    36     -2.567703   2 C  s                66     -2.124346   3 C  s         
   138     -1.803398   7 H  s                12      1.492346   1 O  px        
    41      1.405313   2 C  py               97      1.337561   4 C  s         
    42      1.251413   2 C  pz               43      1.223733   2 C  px        
 
 Vector   78  Occ=0.000000D+00  E= 1.788311D+00
              MO Center=  3.9D-01,  2.7D-01,  1.1D-02, r^2= 3.5D+00
   Bfn.  Coefficient  Atom+Function         Bfn.  Coefficient  Atom+Function  
  ----- ------------  ---------------      ----- ------------  ---------------
    35      3.218606   2 C  s                97     -2.849188   4 C  s         
    36      1.827824   2 C  s                45     -1.350819   2 C  pz        
   104     -1.229500   4 C  pz               67     -1.160833   3 C  s         
    42     -1.072397   2 C  pz               72      1.044735   3 C  py        
   102      1.001035   4 C  px               96      0.923203   4 C  s         
 
 Vector   79  Occ=0.000000D+00  E= 1.815623D+00
              MO Center= -6.2D-01,  2.0D-01,  1.9D-01, r^2= 2.6D+00
   Bfn.  Coefficient  Atom+Function         Bfn.  Coefficient  Atom+Function  
  ----- ------------  ---------------      ----- ------------  ---------------
    35      4.106801   2 C  s                 5     -3.258412   1 O  s         
    40     -2.458418   2 C  px               41      2.184396   2 C  py        
    72      2.038351   3 C  py               66     -1.862757   3 C  s         
    71     -1.711792   3 C  px               12     -1.357784   1 O  px        
   132     -1.072826   6 H  s               138     -1.036596   7 H  s         
 
 Vector   80  Occ=0.000000D+00  E= 1.842978D+00
              MO Center=  1.2D-01,  2.2D-01, -1.2D-01, r^2= 3.8D+00
   Bfn.  Coefficient  Atom+Function         Bfn.  Coefficient  Atom+Function  
  ----- ------------  ---------------      ----- ------------  ---------------
    35      1.966478   2 C  s                36     -0.978080   2 C  s         
   156     -0.976233  10 H  s               104     -0.922472   4 C  pz        
    97     -0.844689   4 C  s                41     -0.733345   2 C  py        
    71     -0.702041   3 C  px              150      0.703615   9 H  s         
   157      0.677831  10 H  s               126     -0.668314   5 H  s         
 
 Vector   81  Occ=0.000000D+00  E= 1.866528D+00
              MO Center=  4.9D-01,  1.9D-01, -4.0D-01, r^2= 4.0D+00
   Bfn.  Coefficient  Atom+Function         Bfn.  Coefficient  Atom+Function  
  ----- ------------  ---------------      ----- ------------  ---------------
    35      6.450190   2 C  s                66     -4.295109   3 C  s         
    72      3.448675   3 C  py               97     -3.237065   4 C  s         
    36      2.145495   2 C  s               104     -1.850705   4 C  pz        
    67     -1.634144   3 C  s                34     -1.611084   2 C  s         
    41      1.499887   2 C  py               45     -1.305535   2 C  pz        
 
 Vector   82  Occ=0.000000D+00  E= 1.920130D+00
              MO Center=  3.0D-01, -1.3D-01, -3.0D-01, r^2= 3.2D+00
   Bfn.  Coefficient  Atom+Function         Bfn.  Coefficient  Atom+Function  
  ----- ------------  ---------------      ----- ------------  ---------------
    36      1.684027   2 C  s                98     -1.478440   4 C  s         
    45     -1.389470   2 C  pz               97     -1.282181   4 C  s         
    35      1.274410   2 C  s               103     -1.194635   4 C  py        
    66     -1.024064   3 C  s                41      0.850953   2 C  py        
    42     -0.805863   2 C  pz              150     -0.716170   9 H  s         
 
 Vector   83  Occ=0.000000D+00  E= 1.991109D+00
              MO Center=  1.0D+00, -3.4D-01, -7.2D-01, r^2= 3.3D+00
   Bfn.  Coefficient  Atom+Function         Bfn.  Coefficient  Atom+Function  
  ----- ------------  ---------------      ----- ------------  ---------------
    98      4.854188   4 C  s                35      3.886212   2 C  s         
    36     -3.341342   2 C  s                66     -2.663224   3 C  s         
    40     -1.851486   2 C  px               72      1.829454   3 C  py        
    41      1.706061   2 C  py              107      1.484889   4 C  pz        
    34     -1.242612   2 C  s                43     -1.233063   2 C  px        
 
 Vector   84  Occ=0.000000D+00  E= 1.994965D+00
              MO Center=  4.5D-01,  9.4D-03, -4.0D-01, r^2= 3.3D+00
   Bfn.  Coefficient  Atom+Function         Bfn.  Coefficient  Atom+Function  
  ----- ------------  ---------------      ----- ------------  ---------------
    36      3.228091   2 C  s                98     -2.055185   4 C  s         
    67     -1.870823   3 C  s                45     -1.754986   2 C  pz        
    40     -1.344592   2 C  px                5     -1.131179   1 O  s         
    44      0.921713   2 C  py               71     -0.858465   3 C  px        
    43     -0.817425   2 C  px              126      0.813915   5 H  s         
 
 Vector   85  Occ=0.000000D+00  E= 2.090468D+00
              MO Center= -8.6D-02,  1.8D-01,  2.1D-02, r^2= 3.5D+00
   Bfn.  Coefficient  Atom+Function         Bfn.  Coefficient  Atom+Function  
  ----- ------------  ---------------      ----- ------------  ---------------
    36      3.015470   2 C  s                98     -2.194121   4 C  s         
    67     -1.199316   3 C  s                35     -0.794496   2 C  s         
   138     -0.763399   7 H  s               156      0.706590  10 H  s         
    40     -0.628082   2 C  px               14     -0.577952   1 O  pz        
   144      0.565758   8 H  s                13      0.562561   1 O  py        
 
 Vector   86  Occ=0.000000D+00  E= 2.097282D+00
              MO Center= -3.5D-01,  5.8D-02,  3.8D-02, r^2= 3.0D+00
   Bfn.  Coefficient  Atom+Function         Bfn.  Coefficient  Atom+Function  
  ----- ------------  ---------------      ----- ------------  ---------------
    67     -5.482819   3 C  s                36      5.374277   2 C  s         
    66      3.193714   3 C  s                35     -3.153391   2 C  s         
    41     -2.991294   2 C  py               71      2.670242   3 C  px        
    13      1.809626   1 O  py               82     -1.422046   3 C  d -2      
    43     -1.335923   2 C  px               75      1.326030   3 C  py        
 
 Vector   87  Occ=0.000000D+00  E= 2.167168D+00
              MO Center=  5.5D-01, -3.9D-02, -4.9D-01, r^2= 3.2D+00
   Bfn.  Coefficient  Atom+Function         Bfn.  Coefficient  Atom+Function  
  ----- ------------  ---------------      ----- ------------  ---------------
    98     -2.162475   4 C  s                67      2.109097   3 C  s         
    35      1.324851   2 C  s                36     -1.144961   2 C  s         
    73     -1.039011   3 C  pz               43      0.926126   2 C  px        
   156      0.896872  10 H  s                44     -0.891017   2 C  py        
    42      0.846931   2 C  pz               40     -0.810447   2 C  px        
 
 Vector   88  Occ=0.000000D+00  E= 2.204134D+00
              MO Center=  4.3D-01,  2.1D-01, -3.0D-01, r^2= 3.7D+00
   Bfn.  Coefficient  Atom+Function         Bfn.  Coefficient  Atom+Function  
  ----- ------------  ---------------      ----- ------------  ---------------
    98      2.183076   4 C  s                36     -1.548268   2 C  s         
    45      1.124025   2 C  pz               76     -1.016035   3 C  pz        
   132      0.792712   6 H  s                71      0.632305   3 C  px        
    42     -0.615332   2 C  pz              103     -0.597190   4 C  py        
   138     -0.584706   7 H  s               117     -0.581112   4 C  d  2      
 
 Vector   89  Occ=0.000000D+00  E= 2.229484D+00
              MO Center=  7.0D-01,  4.6D-03, -1.6D-01, r^2= 3.6D+00
   Bfn.  Coefficient  Atom+Function         Bfn.  Coefficient  Atom+Function  
  ----- ------------  ---------------      ----- ------------  ---------------
    36      2.781317   2 C  s                67     -1.588023   3 C  s         
    42     -1.134818   2 C  pz                5     -1.110468   1 O  s         
    72     -0.912724   3 C  py               98     -0.829025   4 C  s         
    66      0.742316   3 C  s               102      0.740476   4 C  px        
    97     -0.703198   4 C  s                43     -0.681619   2 C  px        
 
 Vector   90  Occ=0.000000D+00  E= 2.245642D+00
              MO Center=  6.7D-01, -2.3D-01, -6.7D-01, r^2= 3.7D+00
   Bfn.  Coefficient  Atom+Function         Bfn.  Coefficient  Atom+Function  
  ----- ------------  ---------------      ----- ------------  ---------------
   150      1.360555   9 H  s                36      1.113933   2 C  s         
    98     -1.083220   4 C  s                66     -1.002740   3 C  s         
    72      0.880122   3 C  py              117      0.840395   4 C  d  2      
   144     -0.820177   8 H  s                67     -0.630152   3 C  s         
    83      0.561585   3 C  d -1             45     -0.538623   2 C  pz        
 
 Vector   91  Occ=0.000000D+00  E= 2.268112D+00
              MO Center=  9.5D-01, -2.9D-01, -1.1D+00, r^2= 3.0D+00
   Bfn.  Coefficient  Atom+Function         Bfn.  Coefficient  Atom+Function  
  ----- ------------  ---------------      ----- ------------  ---------------
    66      2.534148   3 C  s                36      1.942160   2 C  s         
    41     -1.669533   2 C  py               67     -1.467628   3 C  s         
    35     -1.297912   2 C  s                72     -1.187330   3 C  py        
   126     -0.985462   5 H  s                71      0.979726   3 C  px        
    98     -0.972556   4 C  s               156      0.954272  10 H  s         
 
 Vector   92  Occ=0.000000D+00  E= 2.283045D+00
              MO Center=  4.9D-01,  7.6D-02, -2.5D-01, r^2= 3.6D+00
   Bfn.  Coefficient  Atom+Function         Bfn.  Coefficient  Atom+Function  
  ----- ------------  ---------------      ----- ------------  ---------------
    98      3.664844   4 C  s                36     -2.742843   2 C  s         
[...]
    21     -0.876015   1 O  d -1             42     -0.846885   2 C  pz        
    97     -0.756961   4 C  s                45     -0.710113   2 C  pz        
    67     -0.544038   3 C  s                98     -0.538428   4 C  s         
   102      0.505078   4 C  px               72     -0.485066   3 C  py        
 
 Vector  154  Occ=0.000000D+00  E= 6.678374D+00
              MO Center= -8.7D-01, -1.8D-01,  2.0D-01, r^2= 5.7D-01
   Bfn.  Coefficient  Atom+Function         Bfn.  Coefficient  Atom+Function  
  ----- ------------  ---------------      ----- ------------  ---------------
    18      1.064090   1 O  d  1             23     -1.041668   1 O  d  1      
    97     -0.854168   4 C  s                42     -0.793925   2 C  pz        
    35      0.772026   2 C  s               102      0.652133   4 C  px        
    54     -0.546391   2 C  d  1             14      0.404872   1 O  pz        
    11      0.393835   1 O  pz               16     -0.386907   1 O  d -1      
 
 Vector  155  Occ=0.000000D+00  E= 6.842377D+00
              MO Center= -8.8D-01, -1.9D-01,  2.0D-01, r^2= 5.9D-01
   Bfn.  Coefficient  Atom+Function         Bfn.  Coefficient  Atom+Function  
  ----- ------------  ---------------      ----- ------------  ---------------
     5      2.107195   1 O  s                40      1.780214   2 C  px        
     9      1.362586   1 O  px               97     -1.294602   4 C  s         
     4      1.204278   1 O  s                20      1.049495   1 O  d -2      
    42     -0.982309   2 C  pz               12      0.844573   1 O  px        
    35     -0.843016   2 C  s                15     -0.834497   1 O  d -2      
 
 Vector  156  Occ=0.000000D+00  E= 7.055815D+00
              MO Center= -8.9D-01, -1.9D-01,  2.0D-01, r^2= 6.4D-01
   Bfn.  Coefficient  Atom+Function         Bfn.  Coefficient  Atom+Function  
  ----- ------------  ---------------      ----- ------------  ---------------
    66     -3.149377   3 C  s                35      2.982564   2 C  s         
    40     -2.711315   2 C  px               72      2.673175   3 C  py        
    24     -1.577449   1 O  d  2             36      1.475362   2 C  s         
    67     -1.314005   3 C  s                10      1.285051   1 O  py        
    19      1.016265   1 O  d  2             13      0.872496   1 O  py        
 
 Vector  157  Occ=0.000000D+00  E= 2.194229D+01
              MO Center=  4.5D-02,  8.2D-01,  8.8D-02, r^2= 1.1D+00
   Bfn.  Coefficient  Atom+Function         Bfn.  Coefficient  Atom+Function  
  ----- ------------  ---------------      ----- ------------  ---------------
    64      1.606059   3 C  s                65     -1.370805   3 C  s         
    63     -1.265666   3 C  s                67     -1.268339   3 C  s         
    98      1.015125   4 C  s                95     -0.707044   4 C  s         
    96      0.573025   4 C  s                94      0.559385   4 C  s         
    40     -0.470001   2 C  px               35      0.453611   2 C  s         
 
 Vector  158  Occ=0.000000D+00  E= 2.198245D+01
              MO Center=  9.2D-01, -2.8D-01, -7.6D-01, r^2= 1.1D+00
   Bfn.  Coefficient  Atom+Function         Bfn.  Coefficient  Atom+Function  
  ----- ------------  ---------------      ----- ------------  ---------------
    95      1.456782   4 C  s                96     -1.343853   4 C  s         
    98     -1.182131   4 C  s                94     -1.146163   4 C  s         
    34     -0.936251   2 C  s                36     -0.893496   2 C  s         
    33      0.852420   2 C  s                32     -0.665911   2 C  s         
    65     -0.602886   3 C  s                67      0.599610   3 C  s         
 
 Vector  159  Occ=0.000000D+00  E= 2.210558D+01
              MO Center=  6.1D-01, -1.2D-01, -7.3D-02, r^2= 6.8D-01
   Bfn.  Coefficient  Atom+Function         Bfn.  Coefficient  Atom+Function  
  ----- ------------  ---------------      ----- ------------  ---------------
    36      2.203523   2 C  s                33     -1.553027   2 C  s         
    34      1.538700   2 C  s                35     -1.338405   2 C  s         
    98     -1.301449   4 C  s                32      1.215921   2 C  s         
    67     -1.141472   3 C  s                95      0.711760   4 C  s         
    97      0.674218   4 C  s                96     -0.637219   4 C  s         
 
 Vector  160  Occ=0.000000D+00  E= 4.341577D+01
              MO Center= -8.8D-01, -1.8D-01,  2.0D-01, r^2= 1.2D-01
   Bfn.  Coefficient  Atom+Function         Bfn.  Coefficient  Atom+Function  
  ----- ------------  ---------------      ----- ------------  ---------------
     4      2.511057   1 O  s                 3     -1.875621   1 O  s         
     2      1.731615   1 O  s                 1     -1.395855   1 O  s         
     5     -0.873193   1 O  s                36      0.813792   2 C  s         
     9      0.564322   1 O  px               66     -0.511371   3 C  s         
    40      0.470992   2 C  px               72      0.455139   3 C  py        
 

 center of mass
 --------------
 x =   0.30619321 y =   0.09486543 z =  -0.27792475

 moments of inertia (a.u.)
 ------------------
         199.714649517230          45.723024318917          83.764418719346
          45.723024318917         247.642095433897         -52.453644294292
          83.764418719346         -52.453644294292         238.791702377096
 
     Multipole analysis of the density
     ---------------------------------
 
     L   x y z        total         alpha         beta         nuclear
     -   - - -        -----         -----         ----         -------
     0   0 0 0     -0.000000    -16.000000    -16.000000     32.000000
 
     1   1 0 0      0.685331     -6.212788     -6.212788     13.110908
     1   0 1 0      0.321927     -1.610327     -1.610327      3.542580
     1   0 0 1     -0.058323      5.324515      5.324515    -10.707354
 
     2   2 0 0    -20.018835    -54.297337    -54.297337     88.575840
     2   1 1 0     -1.116263     13.927326     13.927326    -28.970915
     2   1 0 1      0.152339     26.467963     26.467963    -52.783586
     2   0 2 0    -17.837328    -40.480694    -40.480694     63.124061
     2   0 1 1      0.236399    -15.351886    -15.351886     30.940170
     2   0 0 2    -18.209203    -45.665007    -45.665007     73.120812
 
 *** CALLING NEW AORESP DRIVER FOR CLOSED AND OPEN SHELLS ***
 Entering AOResponse driver routine


--------------------------------------------------------------------------------

          ****************
          *** RESPONSE ***
          ****************

 Response module for NWChem and dynamic CPKS solver
 developed by J. Autschbach and coworkers, SUNY Buffalo
 The methodology used in this program is described in 
 ChemPhysChem 12 (2011), 3224-3235 (main reference)
 J. Chem. Phys. 123 (2005), 114103
 J. Chem. Phys. 122 (2005), 224115
 J. Chem. Phys. 122 (2005), 074105
 Comp. Lett. 3 (2007), 131-150 (contact JA for a copy)
 Please cite this work in publications based on results
 obtained with this code. Thank you!

 For extension of response module to open shell
 calculations please acknowledge:
 F. Aquino, Northwestern University, Schatz Rsrch Group
 The update to the methodology is described in
 J. Phys. Chem. A 118 (2014) 517-525



          -----------------------------------------------
          Solving response equations for perturbing field
          -----------------------------------------------

 number of frequencies:     1
 frequency in a.u.:  0.9319600E-01
 Perturbing field: electric
 Using GIAO formalism for OptRot
 Adding quadrupole terms to OptRot
 to create an origin in dependent tensor.
 Using El. Dipole Length Gauge
 
 Applying DAMPING constant of  0.003700 a.u.
 
 Setting up CPKS
 with frequency omega =      0.09319600 a.u.
 and a damping of            0.00370000 a.u.

 
                            NWChem Dynamic CPHF Module
                            --------------------------
 
 
    scftype = RHF 
    nclosed =   16
      nopen =    0
  variables =     9216
  num. vecs =        3
  tolerance =   1.0D-07
  max. iter =  100

 SCF residual:   2.429614944160478E-006


Iterative solution of linear equations
  No. of variables     4608
  No. of equations        3
  Maximum subspace       99
       Convergence  1.0D-07
        Start time     94.9


   iter   nsub   residual    time 
   ----  ------  --------  --------- 
 dft_CPHF2_read: failed to open
 ./methyloxirane_blyp-def2-tzvp_488.9_32.inp.aoresp_fiao_f1
     1      3    3.73D+00     144.5
     2      6    2.75D+00     194.4
     3      9    2.42D-01     244.3
     4     12    5.30D-02     294.1
     5     15    1.04D-02     343.9
     6     18    1.26D-03     393.8
     7     21    1.39D-04     443.6
     8     24    1.37D-05     493.5
     9     27    1.15D-06     543.5
    10     30    4.74D-07     593.3
    11     33    1.06D-08     643.1

 Calculating some arrays needed for GIAO optical rotation

    0 giaofock schwarz done =      96.25%
    0 giaofock schwarz done =      92.86%
 aor_r1_tensor_giao: roadata output requested
 dip-quad polarizability Re:

              1        2        3        4        5        6      
    1   77.1492  -6.2652 -28.1188  -4.5588   1.4825   9.3224
    2  -11.6868  25.4145   3.3254  23.2306 -21.1529   4.3168
    3   -7.2110   1.2660  39.1653   0.4047  14.0870 -40.8823
 traceless dip-quad polarizability:

              1        2        3      
    1   74.7674  -9.3978 -42.1781
    2   -9.3978 -47.7946   2.2237
    3  -42.1781   2.2237 -26.9728

              1        2        3      
    1  -25.4606  38.1218   4.9880
    2   38.1218  26.9156 -31.7294
    3    4.9880 -31.7294  -1.4550

              1        2        3      
    1   13.0278   1.8990  58.7480
    2    1.8990  24.4514  21.1306
    3   58.7480  21.1306 -37.4792

 roa begin

 alpha real:
 XX       0.4094201660485E+02
 XY      -0.5222479843074E+01
 XZ      -0.3028095164735E+01
 YX      -0.5222479851003E+01
 YY       0.4406414746699E+02
 YZ       0.3163658804152E+01
 ZX      -0.3028095167019E+01
 ZY       0.3163658805607E+01
 ZZ       0.4144983327716E+02

 alpha im:
 XX       0.1104569037970E+00
 XY      -0.3010021654971E-01
 XZ      -0.1122858345018E-01
 YX      -0.3010020991966E-01
 YY       0.1294916000780E+00
 YZ       0.1858333297956E-01
 ZX      -0.1122857808445E-01
 ZY       0.1858333154866E-01
 ZZ       0.1227387377895E+00

 beta real:
 XX      -0.1554095445705E+00
 XY       0.9369187011603E+00
 XZ       0.2037585421585E+00
 YX      -0.8912660635251E+00
 YY       0.1362296316932E+00
 YZ      -0.1551611546972E+01
 ZX      -0.4834649598202E+00
 ZY       0.1860187540282E+01
 ZZ       0.1478598070738E-01

 G-prime = -omega beta(real):
 XX      -0.1554095445705E+00
 XY       0.9369187011603E+00
 XZ       0.2037585421585E+00
 YX      -0.8912660635251E+00
 YY       0.1362296316932E+00
 YZ      -0.1551611546972E+01
 ZX      -0.4834649598202E+00
 ZY       0.1860187540282E+01
 ZZ       0.1478598070738E-01

 beta im:
 XX      -0.6448361789688E-02
 XY       0.1327444481674E-01
 XZ       0.2927536017032E-02
 YX      -0.7726313858188E-02
 YY       0.4493490389825E-02
 YZ      -0.2374775153248E-01
 ZX      -0.1364704736530E-01
 ZY       0.3993000672696E-01
 ZZ       0.1050165636959E-02

 G-prime = -omega beta(imag):
 XX      -0.6448361789688E-02
 XY       0.1327444481674E-01
 XZ       0.2927536017032E-02
 YX      -0.7726313858188E-02
 YY       0.4493490389825E-02
 YZ      -0.2374775153248E-01
 ZX      -0.1364704736530E-01
 ZY       0.3993000672696E-01
 ZZ       0.1050165636959E-02

 dipole-quadrupole real (Cartesian):
 XXX      0.7714917713491E+02
 XXY     -0.6265191088548E+01
 XXZ     -0.2811876278256E+02
 XYY     -0.4558769968671E+01
 XYZ      0.1482495021311E+01
 XZZ      0.9322389816004E+01
 YXX     -0.1168684801422E+02
 YXY      0.2541450506637E+02
 YXZ      0.3325357509208E+01
 YYY      0.2323060322150E+02
 YYZ     -0.2115290034714E+02
 YZZ      0.4316841077426E+01
 ZXX     -0.7211019339934E+01
 ZXY      0.1265972104624E+01
 ZXZ      0.3916530315692E+02
 ZYY      0.4047292321057E+00
 ZYZ      0.1408704382608E+02
 ZZZ     -0.4088233725431E+02

 dipole-quadrupole imag (Cartesian):
 XXX      0.2681310588917E+00
 XXY     -0.3507149467698E-01
 XXZ     -0.7855646174748E-01
 XYY     -0.2859872324661E-01
 XYZ      0.3331934867988E-02
 XZZ      0.6125591510176E-01
 YXX     -0.5658531142847E-01
 YXY      0.6180993454769E-01
 YXZ      0.1919911155602E-01
 YYY      0.9129220392822E-01
 YYZ     -0.5940078745585E-01
 YZZ      0.1074882671800E-01
 ZXX     -0.3650317535500E-01
 ZXY      0.7335128403717E-03
 ZXZ      0.1447681055838E+00
 ZYY      0.7847423549668E-02
 ZYZ      0.6703316265257E-01
 ZZZ     -0.9442810702789E-01

 dipole-quadrupole (traceless):
 XXX      0.7476736721124E+02
 XXY     -0.9397786632822E+01
 XXZ     -0.4217814417383E+02
 XYY     -0.4779455344413E+02
 XYZ      0.2223742531967E+01
 XZZ     -0.2697281376711E+02
 YXX     -0.2546057016368E+02
 YXY      0.3812175759955E+02
 YXZ      0.4988036263811E+01
 YYY      0.2691560668989E+02
 YYZ     -0.3172935052071E+02
 YZZ     -0.1455036526210E+01
 ZXX      0.1302778467117E+02
 ZXY      0.1898958156935E+01
 ZXZ      0.5874795473539E+02
 ZYY      0.2445140752923E+02
 ZYZ      0.2113056573913E+02
 ZZZ     -0.3747919220040E+02

 roa end


 Electric Dipole Response Matrix (nonzero elements):

              1        2        3      
    1   40.9420  -5.2225  -3.0281
    2   -5.2225  44.0641   3.1637
    3   -3.0281   3.1637  41.4498
 
 Imaginary part:

              1        2        3      
    1    0.1105  -0.0301  -0.0112
    2   -0.0301   0.1295   0.0186
    3   -0.0112   0.0186   0.1227

 ------------------------------------------
 average:        42.15200 + I       0.12090


 DFT Linear Response polarizability / au 
 Frequency  =       0.0931960 / au
 Wavelength =     488.8981609 / nm
              X              Y              Z
 -----------------------------------------------
 X      40.9420166     -5.2224798     -3.0280952
 Y      -5.2224799     44.0641475      3.1636588
 Z      -3.0280952      3.1636588     41.4498333
 -----------------------------------------------
 Eigenvalues =      36.9480779     50.1343407     39.3735788
 Isotropic   =      42.1519991
 Anisotropic =       9.9256331
 -----------------------------------------------
 *************************

 DFT Linear Response IMAG polarizability / au 
 Frequency  =       0.0931960 / au
 Wavelength =     488.8981609 / nm
              X              Y              Z
 -----------------------------------------------
 X       0.1104569     -0.0301002     -0.0112286
 Y      -0.0301002      0.1294916      0.0185833
 Z      -0.0112286      0.0185833      0.1227387
 -----------------------------------------------
 Eigenvalues =       0.0882685      0.1631356      0.1112832
 Isotropic   =       0.1208957
 Anisotropic =       0.0542323
 -----------------------------------------------
 *************************

 Magnetic Dipole Response Matrix (nonzero elements):
 Optical rotation tensor Beta
 (Buckingham-Dunn version including dipole-quadrupole terms)

              1        2        3      
    1    2.6972  -0.4074   0.4135
    2   -0.4074  -1.5700  -1.6881
    3    0.4135  -1.6881  -1.0801
 
 Imaginary part:

              1        2        3      
    1    0.0692  -0.1424  -0.0314
    2    0.0829  -0.0482   0.2548
    3    0.1464  -0.4285  -0.0113

 ------------------------------------------
 average:         0.01572 + I       0.00324

 Principal components and PAS (Real part)
                 -3.03109
                  2.83425
                  0.24399
 ------------------------
 average:         0.01572

              1        2        3      
    1    0.0067   0.9732  -0.2298
    2    0.7569  -0.1551  -0.6349
    3    0.6535   0.1697   0.7377

 Chiral response tensor (Real part):

              1        2        3      
    1   -1.3251   0.2037  -0.2067
    2    0.2037   0.8086   0.8441
    3   -0.2067   0.8441   0.5636
 
 Principal components and PAS (Real part)
                  1.53912
                 -1.39355
                 -0.09842
 ------------------------
 average:         0.01572

              1        2        3      
    1    0.0067   0.9732  -0.2298
    2    0.7569  -0.1551  -0.6349
    3    0.6535   0.1697   0.7377
 Exiting AOResponse driver routine

 Task  times  cpu:      619.6s     wall:      635.2s
 
 
                                NWChem Input Module
                                -------------------
 
 
 Summary of allocated global arrays
-----------------------------------
  No active global arrays



                         GA Statistics for process    0
                         ------------------------------

       create   destroy   get      put      acc     scatter   gather  read&inc
calls: 3294     3294     7.96e+06 3.14e+06 6.77e+05 2694        0     1118     
number of processes/call 1.01e+00 1.03e+00 1.41e+00 0.00e+00 0.00e+00
bytes total:             1.63e+09 1.26e+08 1.63e+09 1.84e+02 0.00e+00 8.94e+03
bytes remote:            6.69e+08 3.29e+07 8.94e+08 0.00e+00 0.00e+00 0.00e+00
Max memory consumed for GA by this process: 11242192 bytes
 
MA_summarize_allocated_blocks: starting scan ...
MA_summarize_allocated_blocks: scan completed: 0 heap blocks, 0 stack blocks
MA usage statistics:

	allocation statistics:
					      heap	     stack
					      ----	     -----
	current number of blocks	         0	         0
	maximum number of blocks	        24	        52
	current total bytes		         0	         0
	maximum total bytes		   7519856	  48882792
	maximum total K-bytes		      7520	     48883
	maximum total M-bytes		         8	        49
 
 
                                     CITATION
                                     --------
                Please cite the following reference when publishing
                           results obtained with NWChem:
 
                 M. Valiev, E.J. Bylaska, N. Govind, K. Kowalski,
              T.P. Straatsma, H.J.J. van Dam, D. Wang, J. Nieplocha,
                        E. Apra, T.L. Windus, W.A. de Jong
                 "NWChem: a comprehensive and scalable open-source
                  solution for large scale molecular simulations"
                      Comput. Phys. Commun. 181, 1477 (2010)
                           doi:10.1016/j.cpc.2010.04.018
 
                                      AUTHORS
                                      -------
          E. Apra, E. J. Bylaska, W. A. de Jong, N. Govind, K. Kowalski,
       T. P. Straatsma, M. Valiev, H. J. J. van Dam, D. Wang, T. L. Windus,
        J. Hammond, J. Autschbach, K. Bhaskaran-Nair, J. Brabec, K. Lopata,
    S. A. Fischer, S. Krishnamoorthy, M. Jacquelin, W. Ma, M. Klemm, O. Villa,
      Y. Chen, V. Anisimov, F. Aquino, S. Hirata, M. T. Hackler, V. Konjkov,
            D. Mejia-Rodriguez, T. Risthaus, M. Malagoli, A. Marenich,
   A. Otero-de-la-Roza, J. Mullin, P. Nichols, R. Peverati, J. Pittner, Y. Zhao,
        P.-D. Fan, A. Fonari, M. J. Williamson, R. J. Harrison, J. R. Rehr,
      M. Dupuis, D. Silverstein, D. M. A. Smith, J. Nieplocha, V. Tipparaju,
    M. Krishnan, B. E. Van Kuiken, A. Vazquez-Mayagoitia, L. Jensen, M. Swart,
      Q. Wu, T. Van Voorhis, A. A. Auer, M. Nooijen, L. D. Crosby, E. Brown,
      G. Cisneros, G. I. Fann, H. Fruchtl, J. Garza, K. Hirao, R. A. Kendall,
      J. A. Nichols, K. Tsemekhman, K. Wolinski, J. Anchell, D. E. Bernholdt,
      P. Borowski, T. Clark, D. Clerc, H. Dachsel, M. J. O. Deegan, K. Dyall,
    D. Elwood, E. Glendening, M. Gutowski, A. C. Hess, J. Jaffe, B. G. Johnson,
     J. Ju, R. Kobayashi, R. Kutteh, Z. Lin, R. Littlefield, X. Long, B. Meng,
      T. Nakajima, S. Niu, L. Pollack, M. Rosing, K. Glaesemann, G. Sandrone,
      M. Stave, H. Taylor, G. Thomas, J. H. van Lenthe, A. T. Wong, Z. Zhang.

 Total times  cpu:      694.2s     wall:      710.9s
