 argument  1 = methyloxirane_blyp-def2-tzvp_488.9_09.inp
 


============================== echo of input deck ==============================
echo
start methyloxirane_blyp-def2-tzvp_488.9_09.inp
title "methyloxirane roa calculations at 488.9 nm, input generated in va  with delta_type=2"
charge 0



geometry units angstrom nocenter noautoz noautosym nucleus point;symmetry c1
 O -0.880412 -0.181347  0.203077
 C  0.577056 -0.154984  0.123279
 C -0.184731  1.089080  0.343896
 C  1.183179 -0.523192 -1.212078
 H  1.056617 -0.609993  0.997026
 H -0.220834  1.557561  1.331521
 H -0.336004  1.768215 -0.499622
 H  2.237457 -0.209371 -1.235349
 H  1.151288 -1.607748 -1.383553
 H  0.656529 -0.022010 -2.033596
end

basis spherical
* library def2-TZVP
end

 set prop:newaoresp 1
 set aor:roadata T
 set cphf:maxsub 100
 set cphf:acc 1.0d-10
 set cphf:maxiter 100

property
    response 1   0.093196
    bdtensor
    convergence 1e-7
    damping 0.0037
    giao
end

dft
 direct
 mult 1
 xc becke88 lyp
 iterations 250
 tolerances tight
 grid xfine
 convergence nolevelshifting
 convergence energy 1e-8
 convergence gradient 1e-7


end

task dft gradient
task dft property
================================================================================


                                         
                                         
 
 
              Northwest Computational Chemistry Package (NWChem) 6.8
              ------------------------------------------------------
 
 
                    Environmental Molecular Sciences Laboratory
                       Pacific Northwest National Laboratory
                                Richland, WA 99352
 
                              Copyright (c) 1994-2017
                       Pacific Northwest National Laboratory
                            Battelle Memorial Institute
 
             NWChem is an open-source computational chemistry package
                        distributed under the terms of the
                      Educational Community License (ECL) 2.0
             A copy of the license is included with this distribution
                              in the LICENSE.TXT file
 
                                  ACKNOWLEDGMENT
                                  --------------

            This software and its documentation were developed at the
            EMSL at Pacific Northwest National Laboratory, a multiprogram
            national laboratory, operated for the U.S. Department of Energy
            by Battelle under Contract Number DE-AC05-76RL01830. Support
            for this work was provided by the Department of Energy Office
            of Biological and Environmental Research, Office of Basic
            Energy Sciences, and the Office of Advanced Scientific Computing.


           Job information
           ---------------

    hostname        = cpn-f15-35.cbls.ccr.buffalo.edu
    program         = /util/academic/nwchem/nwchem-6.8/bin/LINUX64/nwchem
    date            = Fri Mar  1 10:01:53 2019

    compiled        = Tue_Nov_06_14:59:08_2018
    source          = /util/academic/nwchem/nwchem-6.8
    nwchem branch   = 6.8
    nwchem revision = v6.8-47-gdf6c956
    ga revision     = ga-5.6.3
    use scalapack   = F
    input           = methyloxirane_blyp-def2-tzvp_488.9_09.inp
    prefix          = methyloxirane_blyp-def2-tzvp_488.9_09.inp.
    data base       = ./methyloxirane_blyp-def2-tzvp_488.9_09.inp.db
    status          = startup
    nproc           =        7
    time left       =     -1s



           Memory information
           ------------------

    heap     =   13107196 doubles =    100.0 Mbytes
    stack    =   13107201 doubles =    100.0 Mbytes
    global   =   26214400 doubles =    200.0 Mbytes (distinct from heap & stack)
    total    =   52428797 doubles =    400.0 Mbytes
    verify   = yes
    hardfail = no 


           Directory information
           ---------------------
 
  0 permanent = .
  0 scratch   = .
 
 
 
 
                                NWChem Input Module
                                -------------------
 
 
                    methyloxirane roa calculations at 488.9 nm, input generated in va  with delta_type=2
                    ------------------------------------------

 Scaling coordinates for geometry "geometry" by  1.889725989
 (inverse scale =  0.529177249)

 
 
                             Geometry "geometry" -> ""
                             -------------------------
 
 Output coordinates in angstroms (scale by  1.889725989 to convert to a.u.)
 
  No.       Tag          Charge          X              Y              Z
 ---- ---------------- ---------- -------------- -------------- --------------
    1 O                    8.0000    -0.88041200    -0.18134700     0.20307700
    2 C                    6.0000     0.57705600    -0.15498400     0.12327900
    3 C                    6.0000    -0.18473100     1.08908000     0.34389600
    4 C                    6.0000     1.18317900    -0.52319200    -1.21207800
    5 H                    1.0000     1.05661700    -0.60999300     0.99702600
    6 H                    1.0000    -0.22083400     1.55756100     1.33152100
    7 H                    1.0000    -0.33600400     1.76821500    -0.49962200
    8 H                    1.0000     2.23745700    -0.20937100    -1.23534900
    9 H                    1.0000     1.15128800    -1.60774800    -1.38355300
   10 H                    1.0000     0.65652900    -0.02201000    -2.03359600
 
      Atomic Mass 
      ----------- 
 
      O                 15.994910
      C                 12.000000
      H                  1.007825
 

 Effective nuclear repulsion energy (a.u.)     123.4275447968

            Nuclear Dipole moment (a.u.) 
            ----------------------------
        X                 Y               Z
 ---------------- ---------------- ----------------
    13.1426304006     3.5740425417   -10.7116755505
 
 
            XYZ format geometry
            -------------------
    10
 geometry
 O                    -0.88041200    -0.18134700     0.20307700
 C                     0.57705600    -0.15498400     0.12327900
 C                    -0.18473100     1.08908000     0.34389600
 C                     1.18317900    -0.52319200    -1.21207800
 H                     1.05661700    -0.60999300     0.99702600
 H                    -0.22083400     1.55756100     1.33152100
 H                    -0.33600400     1.76821500    -0.49962200
 H                     2.23745700    -0.20937100    -1.23534900
 H                     1.15128800    -1.60774800    -1.38355300
 H                     0.65652900    -0.02201000    -2.03359600
 
 ==============================================================================
                                internuclear distances
 ------------------------------------------------------------------------------
       center one      |      center two      | atomic units |  angstroms
 ------------------------------------------------------------------------------
    2 C                |   1 O                |     2.75879  |     1.45989
    3 C                |   1 O                |     2.75005  |     1.45526
    3 C                |   2 C                |     2.78803  |     1.47536
    4 C                |   2 C                |     2.85726  |     1.51200
    5 H                |   2 C                |     2.07048  |     1.09565
    6 H                |   3 C                |     2.06679  |     1.09370
    7 H                |   3 C                |     2.06632  |     1.09345
    8 H                |   4 C                |     2.07915  |     1.10024
    9 H                |   4 C                |     2.07585  |     1.09849
   10 H                |   4 C                |     2.07305  |     1.09701
 ------------------------------------------------------------------------------
                         number of included internuclear distances:         10
 ==============================================================================



 ==============================================================================
                                 internuclear angles
 ------------------------------------------------------------------------------
        center 1       |       center 2       |       center 3       |  degrees
 ------------------------------------------------------------------------------
    2 C                |   1 O                |   3 C                |    60.81
    2 C                |   1 O                |   3 C                |    60.81
    1 O                |   2 C                |   4 C                |   116.36
    1 O                |   2 C                |   5 H                |   112.70
    3 C                |   2 C                |   4 C                |   122.98
    3 C                |   2 C                |   5 H                |   117.19
    4 C                |   2 C                |   5 H                |   115.32
    3 C                |   1 O                |   2 C                |    60.81
    1 O                |   3 C                |   6 H                |   116.46
    1 O                |   3 C                |   7 H                |   113.67
    2 C                |   3 C                |   6 H                |   120.88
    2 C                |   3 C                |   7 H                |   118.67
    6 H                |   3 C                |   7 H                |   115.21
    2 C                |   4 C                |   8 H                |   109.47
    2 C                |   4 C                |   9 H                |   111.51
    2 C                |   4 C                |  10 H                |   110.96
    8 H                |   4 C                |   9 H                |   107.83
    8 H                |   4 C                |  10 H                |   108.29
    9 H                |   4 C                |  10 H                |   108.68
 ------------------------------------------------------------------------------
                            number of included internuclear angles:         19
 ==============================================================================



  warning:::::::::::::: from_environment
  NWCHEM_BASIS_LIBRARY set to: <
 /util/academic/nwchem/nwchem-6.8/src/basis/libraries>
  but file does not exist !
  using .nwchemrc or compiled library


 Summary of "ao basis" -> "" (spherical)
 ------------------------------------------------------------------------------
       Tag                 Description            Shells   Functions and Types
 ---------------- ------------------------------  ------  ---------------------
 *                         def2-TZVP                  on all atoms 


 
                                 NWChem DFT Module
                                 -----------------
 
 
                    methyloxirane roa calculations at 488.9 nm, input generated in va  with delta_type=2
 
 
                      Basis "ao basis" -> "ao basis" (spherical)
                      -----
  O (Oxygen)
  ----------
            Exponent  Coefficients 
       -------------- ---------------------------------------------------------
  1 S  2.70323826E+04  0.000217
  1 S  4.05238714E+03  0.001684
  1 S  9.22327227E+02  0.008740
  1 S  2.61240710E+02  0.035240
  1 S  8.53546414E+01  0.111535
  1 S  3.10350352E+01  0.255890
 
  2 S  1.22608607E+01  0.397687
  2 S  4.99870760E+00  0.246278
 
  3 S  1.17031082E+00  1.000000
 
  4 S  4.64747410E-01  1.000000
 
  5 S  1.85045364E-01  1.000000
 
  6 P  6.32749548E+01  0.006069
  6 P  1.46270494E+01  0.041913
  6 P  4.45012235E+00  0.161538
  6 P  1.52757996E+00  0.357070
 
  7 P  5.29351179E-01  1.000000
 
  8 P  1.74784213E-01  1.000000
 
  9 D  2.31400000E+00  1.000000
 
 10 D  6.45000000E-01  1.000000
 
 11 F  1.42800000E+00  1.000000
 
  C (Carbon)
  ----------
            Exponent  Coefficients 
       -------------- ---------------------------------------------------------
  1 S  1.35753497E+04  0.000222
  1 S  2.03523337E+03  0.001723
  1 S  4.63225624E+02  0.008926
  1 S  1.31200196E+02  0.035728
  1 S  4.28530159E+01  0.110763
  1 S  1.55841858E+01  0.242956
 
  2 S  6.20671385E+00  0.414403
  2 S  2.57648965E+00  0.237450
 
  3 S  5.76963394E-01  1.000000
 
  4 S  2.29728314E-01  1.000000
 
  5 S  9.51644400E-02  1.000000
 
  6 P  3.46972322E+01  0.005333
  6 P  7.95826228E+00  0.035864
  6 P  2.37808269E+00  0.142159
  6 P  8.14332082E-01  0.342705
 
  7 P  2.88875473E-01  1.000000
 
  8 P  1.00568237E-01  1.000000
 
  9 D  1.09700000E+00  1.000000
 
 10 D  3.18000000E-01  1.000000
 
 11 F  7.61000000E-01  1.000000
 
  H (Hydrogen)
  ------------
            Exponent  Coefficients 
       -------------- ---------------------------------------------------------
  1 S  3.40613410E+01  0.006025
  1 S  5.12357460E+00  0.045021
  1 S  1.16466260E+00  0.201897
 
  2 S  3.27230410E-01  1.000000
 
  3 S  1.03072410E-01  1.000000
 
  4 P  8.00000000E-01  1.000000
 


 Summary of "ao basis" -> "ao basis" (spherical)
 ------------------------------------------------------------------------------
       Tag                 Description            Shells   Functions and Types
 ---------------- ------------------------------  ------  ---------------------
 O                         def2-TZVP                11       31   5s3p2d1f
 C                         def2-TZVP                11       31   5s3p2d1f
 H                         def2-TZVP                 4        6   3s1p




 Summary of "ao basis" -> "ao basis" (spherical)
 ------------------------------------------------------------------------------
       Tag                 Description            Shells   Functions and Types
 ---------------- ------------------------------  ------  ---------------------
 O                         def2-TZVP                11       31   5s3p2d1f
 C                         def2-TZVP                11       31   5s3p2d1f
 H                         def2-TZVP                 4        6   3s1p


  Caching 1-el integrals 
  itol2e modified to match energy
  convergence criterion.
  tol_rho modified to match energy
  convergence criterion.
 
            General Information
            -------------------
          SCF calculation type: DFT
          Wavefunction type:  closed shell.
          No. of atoms     :    10
          No. of electrons :    32
           Alpha electrons :    16
            Beta electrons :    16
          Charge           :     0
          Spin multiplicity:     1
          Use of symmetry is: off; symmetry adaption is: off
          Maximum number of iterations: 250
          This is a Direct SCF calculation.
          AO basis - number of functions:   160
                     number of shells:    68
          Convergence on energy requested:  1.00D-08
          Convergence on density requested:  1.00D-05
          Convergence on gradient requested:  1.00D-07
 
              XC Information
              --------------
                    Becke 1988 Exchange Functional  1.000          
              Lee-Yang-Parr Correlation Functional  1.000          
 
             Grid Information
             ----------------
          Grid used for XC integration:  xfine     
          Radial quadrature: Mura-Knowles        
          Angular quadrature: Lebedev. 
          Tag              B.-S. Rad. Rad. Pts. Rad. Cut. Ang. Pts.
          ---              ---------- --------- --------- ---------
          O                   0.60      100          11.0      1454
          C                   0.70      100          11.0      1454
          H                   0.35      100          12.0      1202
          Grid pruning is: on 
          Number of quadrature shells:  1000
          Spatial weights used:  Erf1
 
          Convergence Information
          -----------------------
          Convergence aids based upon iterative change in 
          total energy or number of iterations. 
          Levelshifting, if invoked, occurs when the 
          HOMO/LUMO gap drops below (HL_TOL):  1.00D-02
          DIIS, if invoked, will attempt to extrapolate 
          using up to (NFOCK): 10 stored Fock matrices.

                    Damping( 0%)  Levelshifting(0.0)       DIIS
                  --------------- ------------------- ---------------
          dE  on:    start             N/A                start   
          dE off:    2 iters           N/A              250 iters 

 
      Screening Tolerance Information
      -------------------------------
          Density screening/tol_rho:  1.00D-11
          AO Gaussian exp screening on grid/accAOfunc:  18
          CD Gaussian exp screening on grid/accCDfunc:  20
          XC Gaussian exp screening on grid/accXCfunc:  20
          Schwarz screening/accCoul:  1.00D-09

 
      Superposition of Atomic Density Guess
      -------------------------------------
 
 Sum of atomic energies:        -190.79714706
 
      Non-variational initial energy
      ------------------------------

 Total energy =    -193.149080
 1-e energy   =    -501.825414
 2-e energy   =     185.248789
 HOMO         =      -0.352820
 LUMO         =       0.089352
 
   Time after variat. SCF:      0.5
   Time prior to 1st pass:      0.5

 Grid_pts file          = ./methyloxirane_blyp-def2-tzvp_488.9_09.inp.gridpts.0
 Record size in doubles =  12289        No. of grid_pts per rec  =   3070
 Max. records in memory =     76        Max. recs in file   =   1219782


           Memory utilization after 1st SCF pass: 
           Heap Space remaining (MW):       12.17            12167540
          Stack Space remaining (MW):       13.11            13106124

   convergence    iter        energy       DeltaE   RMS-Dens  Diis-err    time
 ---------------- ----- ----------------- --------- --------- ---------  ------
 d= 0,ls=0.0,diis     1   -193.0190665550 -3.16D+02  9.35D-03  1.07D+00     4.9
 d= 0,ls=0.0,diis     2   -192.8464813320  1.73D-01  7.74D-03  2.67D+00     9.1
 d= 0,ls=0.0,diis     3   -193.0774044243 -2.31D-01  1.82D-03  3.82D-01    13.2
 d= 0,ls=0.0,diis     4   -193.1071013973 -2.97D-02  6.96D-04  1.86D-02    17.4
 d= 0,ls=0.0,diis     5   -193.1088156993 -1.71D-03  2.96D-04  2.76D-03    21.6
 d= 0,ls=0.0,diis     6   -193.1091597525 -3.44D-04  3.09D-05  3.73D-05    25.8
 d= 0,ls=0.0,diis     7   -193.1091641973 -4.44D-06  9.09D-06  4.25D-06    29.9
 d= 0,ls=0.0,diis     8   -193.1091646792 -4.82D-07  1.94D-06  2.82D-07    34.1
 d= 0,ls=0.0,diis     9   -193.1091647111 -3.18D-08  5.71D-07  1.20D-08    38.3
 d= 0,ls=0.0,diis    10   -193.1091647126 -1.53D-09  6.29D-08  1.17D-10    42.5


         Total DFT energy =     -193.109164712587
      One electron energy =     -505.481397299121
           Coulomb energy =      215.962494706102
    Exchange-Corr. energy =      -27.017806916344
 Nuclear repulsion energy =      123.427544796776

 Numeric. integr. density =       32.000000031684

     Total iterative time =     42.0s


 
                       DFT Final Molecular Orbital Analysis
                       ------------------------------------
 
 Vector    1  Occ=2.000000D+00  E=-1.877907D+01
              MO Center= -8.8D-01, -1.8D-01,  2.0D-01, r^2= 1.5D-02
   Bfn.  Coefficient  Atom+Function         Bfn.  Coefficient  Atom+Function  
  ----- ------------  ---------------      ----- ------------  ---------------
     2      0.638482   1 O  s                 1      0.435422   1 O  s         
     3      0.039836   1 O  s                 4     -0.033054   1 O  s         
 
 Vector    2  Occ=2.000000D+00  E=-9.963465D+00
              MO Center=  5.8D-01, -1.5D-01,  1.2D-01, r^2= 2.8D-02
   Bfn.  Coefficient  Atom+Function         Bfn.  Coefficient  Atom+Function  
  ----- ------------  ---------------      ----- ------------  ---------------
    33      0.606916   2 C  s                32      0.467260   2 C  s         
    34      0.042552   2 C  s                36      0.037633   2 C  s         
    35     -0.027572   2 C  s         
 
 Vector    3  Occ=2.000000D+00  E=-9.956156D+00
              MO Center= -1.8D-01,  1.1D+00,  3.4D-01, r^2= 2.8D-02
   Bfn.  Coefficient  Atom+Function         Bfn.  Coefficient  Atom+Function  
  ----- ------------  ---------------      ----- ------------  ---------------
    64      0.607028   3 C  s                63      0.467222   3 C  s         
    65      0.039741   3 C  s         
 
 Vector    4  Occ=2.000000D+00  E=-9.908118D+00
              MO Center=  1.2D+00, -5.2D-01, -1.2D+00, r^2= 2.8D-02
   Bfn.  Coefficient  Atom+Function         Bfn.  Coefficient  Atom+Function  
  ----- ------------  ---------------      ----- ------------  ---------------
    95      0.606961   4 C  s                94      0.467215   4 C  s         
    96      0.040606   4 C  s                98      0.035679   4 C  s         
 
 Vector    5  Occ=2.000000D+00  E=-9.602193D-01
              MO Center= -4.7D-01,  5.6D-02,  2.1D-01, r^2= 6.5D-01
   Bfn.  Coefficient  Atom+Function         Bfn.  Coefficient  Atom+Function  
  ----- ------------  ---------------      ----- ------------  ---------------
     4      0.375210   1 O  s                 3      0.277437   1 O  s         
     2     -0.192748   1 O  s                34      0.139728   2 C  s         
    65      0.139255   3 C  s                 5      0.122993   1 O  s         
    35      0.105460   2 C  s                66      0.094047   3 C  s         
     6      0.092703   1 O  px               69     -0.091032   3 C  py        
 
 Vector    6  Occ=2.000000D+00  E=-6.697621D-01
              MO Center=  9.4D-01, -3.9D-01, -7.7D-01, r^2= 1.5D+00
   Bfn.  Coefficient  Atom+Function         Bfn.  Coefficient  Atom+Function  
  ----- ------------  ---------------      ----- ------------  ---------------
    97      0.284844   4 C  s                96      0.276180   4 C  s         
    35      0.185091   2 C  s                34      0.174565   2 C  s         
    95     -0.173872   4 C  s                 4     -0.148173   1 O  s         
    33     -0.109027   2 C  s                 3     -0.103821   1 O  s         
    94     -0.083309   4 C  s                 5     -0.073524   1 O  s         
 
 Vector    7  Occ=2.000000D+00  E=-5.900789D-01
              MO Center= -1.2D-01,  7.2D-01,  2.2D-01, r^2= 2.0D+00
   Bfn.  Coefficient  Atom+Function         Bfn.  Coefficient  Atom+Function  
  ----- ------------  ---------------      ----- ------------  ---------------
    66      0.326092   3 C  s                65      0.278256   3 C  s         
     4     -0.238318   1 O  s                64     -0.171915   3 C  s         
     3     -0.168591   1 O  s                 5     -0.147656   1 O  s         
     2      0.111289   1 O  s                38      0.104709   2 C  py        
   132      0.102998   6 H  s                97     -0.100612   4 C  s         
 
 Vector    8  Occ=2.000000D+00  E=-5.299199D-01
              MO Center=  4.2D-01,  1.6D-02, -9.6D-02, r^2= 2.7D+00
   Bfn.  Coefficient  Atom+Function         Bfn.  Coefficient  Atom+Function  
  ----- ------------  ---------------      ----- ------------  ---------------
    35      0.303226   2 C  s                34      0.225039   2 C  s         
    97     -0.154613   4 C  s                66     -0.152854   3 C  s         
    33     -0.138397   2 C  s               126      0.133359   5 H  s         
    96     -0.128554   4 C  s               125      0.106489   5 H  s         
     6      0.105606   1 O  px               65     -0.099339   3 C  s         
 
 Vector    9  Occ=2.000000D+00  E=-4.473830D-01
              MO Center=  1.1D-01,  2.9D-01,  2.5D-01, r^2= 2.5D+00
   Bfn.  Coefficient  Atom+Function         Bfn.  Coefficient  Atom+Function  
  ----- ------------  ---------------      ----- ------------  ---------------
    70      0.209825   3 C  pz               39      0.154074   2 C  pz        
   132      0.146306   6 H  s                73      0.131754   3 C  pz        
     8      0.124217   1 O  pz              126      0.115622   5 H  s         
     6     -0.110771   1 O  px               38     -0.108509   2 C  py        
   131      0.108437   6 H  s                37      0.104200   2 C  px        
 
 Vector   10  Occ=2.000000D+00  E=-4.127966D-01
              MO Center=  5.4D-02,  2.8D-01, -2.4D-01, r^2= 2.6D+00
   Bfn.  Coefficient  Atom+Function         Bfn.  Coefficient  Atom+Function  
  ----- ------------  ---------------      ----- ------------  ---------------
    69      0.213507   3 C  py              101      0.157539   4 C  pz        
   138      0.152919   7 H  s                 6     -0.142436   1 O  px        
    38     -0.139082   2 C  py               37      0.129865   2 C  px        
    72      0.120987   3 C  py                7     -0.119085   1 O  py        
    70     -0.118476   3 C  pz                9     -0.113971   1 O  px        
 
 Vector   11  Occ=2.000000D+00  E=-3.767115D-01
              MO Center=  9.2D-01, -3.3D-01, -7.5D-01, r^2= 2.6D+00
   Bfn.  Coefficient  Atom+Function         Bfn.  Coefficient  Atom+Function  
  ----- ------------  ---------------      ----- ------------  ---------------
    99      0.209444   4 C  px              144      0.187040   8 H  s         
   100      0.168981   4 C  py              150     -0.142448   9 H  s         
   102      0.134880   4 C  px              143      0.130994   8 H  s         
    37      0.126931   2 C  px                6     -0.117428   1 O  px        
     7      0.114809   1 O  py              103      0.111342   4 C  py        
 
 Vector   12  Occ=2.000000D+00  E=-3.567755D-01
              MO Center=  5.9D-01, -3.2D-01, -8.6D-01, r^2= 2.9D+00
   Bfn.  Coefficient  Atom+Function         Bfn.  Coefficient  Atom+Function  
  ----- ------------  ---------------      ----- ------------  ---------------
   100      0.253912   4 C  py              150     -0.184583   9 H  s         
   156      0.175053  10 H  s                 7     -0.166166   1 O  py        
   103      0.164371   4 C  py               10     -0.133092   1 O  py        
   149     -0.128763   9 H  s                70      0.123391   3 C  pz        
   155      0.123917  10 H  s               106      0.102622   4 C  py        
 
 Vector   13  Occ=2.000000D+00  E=-3.276270D-01
              MO Center=  3.9D-01,  2.7D-01, -2.0D-01, r^2= 2.8D+00
   Bfn.  Coefficient  Atom+Function         Bfn.  Coefficient  Atom+Function  
  ----- ------------  ---------------      ----- ------------  ---------------
    39      0.237010   2 C  pz              101     -0.214399   4 C  pz        
    70     -0.182361   3 C  pz              138      0.163075   7 H  s         
    42      0.160887   2 C  pz              104     -0.149060   4 C  pz        
     7     -0.132988   1 O  py              126      0.126773   5 H  s         
   132     -0.120794   6 H  s                73     -0.112926   3 C  pz        
 
 Vector   14  Occ=2.000000D+00  E=-3.207592D-01
              MO Center=  3.4D-01, -8.0D-02, -2.7D-01, r^2= 3.0D+00
   Bfn.  Coefficient  Atom+Function         Bfn.  Coefficient  Atom+Function  
  ----- ------------  ---------------      ----- ------------  ---------------
     7      0.232100   1 O  py               10      0.189727   1 O  py        
    99     -0.180200   4 C  px                6     -0.161508   1 O  px        
    37      0.147139   2 C  px              144     -0.146764   8 H  s         
   156      0.142007  10 H  s               126      0.140403   5 H  s         
     9     -0.132396   1 O  px              102     -0.117709   4 C  px        
 
 Vector   15  Occ=2.000000D+00  E=-2.644609D-01
              MO Center=  1.1D-02,  1.5D-01,  3.7D-02, r^2= 2.3D+00
   Bfn.  Coefficient  Atom+Function         Bfn.  Coefficient  Atom+Function  
  ----- ------------  ---------------      ----- ------------  ---------------
    68     -0.262403   3 C  px               38     -0.255408   2 C  py        
     6      0.240213   1 O  px               41     -0.199565   2 C  py        
    71     -0.194583   3 C  px                9      0.188022   1 O  px        
    12      0.157911   1 O  px              150     -0.113906   9 H  s         
   100      0.109587   4 C  py               67     -0.108293   3 C  s         
 
 Vector   16  Occ=2.000000D+00  E=-2.189467D-01
              MO Center= -5.8D-01, -2.8D-02,  2.0D-01, r^2= 1.6D+00
   Bfn.  Coefficient  Atom+Function         Bfn.  Coefficient  Atom+Function  
  ----- ------------  ---------------      ----- ------------  ---------------
     8      0.448725   1 O  pz               11      0.357230   1 O  pz        
    14      0.296558   1 O  pz              133     -0.134290   6 H  s         
   139      0.115014   7 H  s               138      0.104126   7 H  s         
   132     -0.102726   6 H  s               145     -0.101956   8 H  s         
   126     -0.096882   5 H  s                98      0.084064   4 C  s         
 
 Vector   17  Occ=0.000000D+00  E= 2.550135D-02
              MO Center=  1.2D+00, -7.2D-02, -6.0D-01, r^2= 7.2D+00
   Bfn.  Coefficient  Atom+Function         Bfn.  Coefficient  Atom+Function  
  ----- ------------  ---------------      ----- ------------  ---------------
    98      4.457796   4 C  s               145     -1.539009   8 H  s         
   151     -1.475505   9 H  s               157     -1.337465  10 H  s         
   127     -1.229561   5 H  s                45      1.123308   2 C  pz        
   139     -0.870115   7 H  s                67      0.702692   3 C  s         
   133     -0.606183   6 H  s                74     -0.331061   3 C  px        
 
 Vector   18  Occ=0.000000D+00  E= 4.221478D-02
              MO Center= -1.3D-01,  6.5D-01,  9.4D-02, r^2= 4.5D+00
   Bfn.  Coefficient  Atom+Function         Bfn.  Coefficient  Atom+Function  
  ----- ------------  ---------------      ----- ------------  ---------------
    98     -2.232401   4 C  s                36      2.047406   2 C  s         
     5     -1.235972   1 O  s                74     -0.940760   3 C  px        
   151      0.826699   9 H  s                67     -0.539025   3 C  s         
    45     -0.506175   2 C  pz              157      0.490736  10 H  s         
    13     -0.429990   1 O  py               44      0.422793   2 C  py        
 
 Vector   19  Occ=0.000000D+00  E= 4.980911D-02
              MO Center=  3.6D-01,  5.4D-01, -1.1D-01, r^2= 6.5D+00
   Bfn.  Coefficient  Atom+Function         Bfn.  Coefficient  Atom+Function  
  ----- ------------  ---------------      ----- ------------  ---------------
    67      3.008680   3 C  s                36     -2.508210   2 C  s         
   127      1.644941   5 H  s               139     -1.613620   7 H  s         
   157     -0.674307  10 H  s                45     -0.619011   2 C  pz        
   145      0.618822   8 H  s                 5     -0.570698   1 O  s         
    44     -0.547334   2 C  py              133     -0.459032   6 H  s         
 
 Vector   20  Occ=0.000000D+00  E= 5.107354D-02
              MO Center=  6.1D-01,  4.8D-01,  4.5D-01, r^2= 7.6D+00
   Bfn.  Coefficient  Atom+Function         Bfn.  Coefficient  Atom+Function  
  ----- ------------  ---------------      ----- ------------  ---------------
    98      3.372881   4 C  s                67     -2.313172   3 C  s         
   133      1.823674   6 H  s               127      1.387337   5 H  s         
   157     -1.190170  10 H  s                36     -1.183816   2 C  s         
   145     -1.097055   8 H  s                44      1.031756   2 C  py        
    43     -0.678905   2 C  px              151     -0.669108   9 H  s         
 
 Vector   21  Occ=0.000000D+00  E= 6.354947D-02
              MO Center=  2.6D-01,  1.4D-01, -2.0D-01, r^2= 4.8D+00
   Bfn.  Coefficient  Atom+Function         Bfn.  Coefficient  Atom+Function  
  ----- ------------  ---------------      ----- ------------  ---------------
   139      1.295414   7 H  s                98      1.249414   4 C  s         
    67     -1.026734   3 C  s               151     -0.956820   9 H  s         
     5     -0.848522   1 O  s                43     -0.839285   2 C  px        
    75     -0.558208   3 C  py              133      0.555414   6 H  s         
    12     -0.476359   1 O  px               45      0.390584   2 C  pz        
 
 Vector   22  Occ=0.000000D+00  E= 8.582207D-02
              MO Center=  1.2D+00,  2.3D-01, -4.3D-01, r^2= 7.2D+00
   Bfn.  Coefficient  Atom+Function         Bfn.  Coefficient  Atom+Function  
  ----- ------------  ---------------      ----- ------------  ---------------
    36      2.972280   2 C  s               145      1.932783   8 H  s         
   127     -1.383745   5 H  s                67     -1.360079   3 C  s         
   157     -1.298741  10 H  s               133      1.243127   6 H  s         
   107     -1.143013   4 C  pz               98     -1.038266   4 C  s         
   105     -0.938677   4 C  px               75      0.735919   3 C  py        
 
 Vector   23  Occ=0.000000D+00  E= 9.052053D-02
              MO Center=  1.2D+00, -6.2D-01, -5.8D-01, r^2= 6.5D+00
   Bfn.  Coefficient  Atom+Function         Bfn.  Coefficient  Atom+Function  
  ----- ------------  ---------------      ----- ------------  ---------------
    36      2.410433   2 C  s               151      2.023316   9 H  s         
   145     -1.659584   8 H  s                98     -1.339919   4 C  s         
   105      1.198619   4 C  px              106      1.090176   4 C  py        
   133      0.910450   6 H  s                67     -0.824331   3 C  s         
   127     -0.734102   5 H  s                44     -0.634660   2 C  py        
 
 Vector   24  Occ=0.000000D+00  E= 1.029520D-01
              MO Center=  4.5D-01,  3.6D-01, -1.1D+00, r^2= 6.7D+00
   Bfn.  Coefficient  Atom+Function         Bfn.  Coefficient  Atom+Function  
  ----- ------------  ---------------      ----- ------------  ---------------
   157      2.066862  10 H  s               106     -1.556155   4 C  py        
   133      1.532437   6 H  s               151     -1.525128   9 H  s         
    98     -1.460394   4 C  s               139     -1.459616   7 H  s         
    36      1.189373   2 C  s                76     -1.121522   3 C  pz        
   105      0.960660   4 C  px               45     -0.574051   2 C  pz        
 
 Vector   25  Occ=0.000000D+00  E= 1.389921D-01
              MO Center=  7.7D-01,  2.0D-01, -4.3D-01, r^2= 7.9D+00
   Bfn.  Coefficient  Atom+Function         Bfn.  Coefficient  Atom+Function  
  ----- ------------  ---------------      ----- ------------  ---------------
    36      4.737558   2 C  s                98     -3.508819   4 C  s         
    45     -3.393481   2 C  pz               67     -2.893485   3 C  s         
   127      2.723854   5 H  s                76      2.207333   3 C  pz        
   105      2.039472   4 C  px              133     -1.827452   6 H  s         
   139      1.718260   7 H  s               107     -1.556655   4 C  pz        
 
 Vector   26  Occ=0.000000D+00  E= 1.701401D-01
              MO Center=  4.5D-01,  5.2D-01, -1.1D-01, r^2= 7.3D+00
   Bfn.  Coefficient  Atom+Function         Bfn.  Coefficient  Atom+Function  
  ----- ------------  ---------------      ----- ------------  ---------------
    75      2.281244   3 C  py              107      1.621501   4 C  pz        
    67     -1.511803   3 C  s                36      1.435001   2 C  s         
   139     -1.171336   7 H  s               157      1.061255  10 H  s         
    74     -0.978391   3 C  px               44      0.696155   2 C  py        
    43     -0.581081   2 C  px              106     -0.553793   4 C  py        
 
 Vector   27  Occ=0.000000D+00  E= 1.979014D-01
              MO Center=  7.8D-01, -8.2D-02, -1.0D+00, r^2= 5.0D+00
   Bfn.  Coefficient  Atom+Function         Bfn.  Coefficient  Atom+Function  
  ----- ------------  ---------------      ----- ------------  ---------------
    67      3.056953   3 C  s                44     -2.566351   2 C  py        
   106      1.988951   4 C  py               36     -1.975320   2 C  s         
    43      0.897016   2 C  px               74      0.796429   3 C  px        
   105      0.798964   4 C  px              157     -0.675936  10 H  s         
    45     -0.670431   2 C  pz              150      0.632841   9 H  s         
 
 Vector   28  Occ=0.000000D+00  E= 2.017524D-01
              MO Center=  9.9D-01, -4.3D-01, -7.0D-01, r^2= 6.7D+00
   Bfn.  Coefficient  Atom+Function         Bfn.  Coefficient  Atom+Function  
  ----- ------------  ---------------      ----- ------------  ---------------
    36      2.453511   2 C  s                75      1.642564   3 C  py        
   105     -1.365635   4 C  px              133     -1.253206   6 H  s         
   106      0.984771   4 C  py              107     -0.953940   4 C  pz        
   139     -0.739521   7 H  s               156     -0.719976  10 H  s         
    45      0.685834   2 C  pz               76      0.679669   3 C  pz        
 
 Vector   29  Occ=0.000000D+00  E= 2.358623D-01
              MO Center= -2.7D-01,  3.8D-01, -6.5D-02, r^2= 5.5D+00
   Bfn.  Coefficient  Atom+Function         Bfn.  Coefficient  Atom+Function  
  ----- ------------  ---------------      ----- ------------  ---------------
    67      4.173102   3 C  s                36     -2.930427   2 C  s         
   139     -1.576355   7 H  s                66     -1.425410   3 C  s         
    98      1.343297   4 C  s               133     -1.218902   6 H  s         
   107      1.127573   4 C  pz               74     -0.843984   3 C  px        
    44      0.785127   2 C  py                5     -0.780608   1 O  s         
 
 Vector   30  Occ=0.000000D+00  E= 2.471058D-01
              MO Center=  5.0D-01,  4.9D-02, -5.6D-02, r^2= 5.9D+00
   Bfn.  Coefficient  Atom+Function         Bfn.  Coefficient  Atom+Function  
  ----- ------------  ---------------      ----- ------------  ---------------
    67      6.269024   3 C  s                43      4.161015   2 C  px        
    75     -3.012303   3 C  py               44     -2.699953   2 C  py        
    36     -2.220234   2 C  s               107     -2.044237   4 C  pz        
   157     -1.824037  10 H  s                45     -1.493344   2 C  pz        
    98     -1.353621   4 C  s               105     -1.100436   4 C  px        
 
 Vector   31  Occ=0.000000D+00  E= 2.679407D-01
              MO Center=  3.1D-01, -9.6D-02,  2.6D-01, r^2= 5.6D+00
   Bfn.  Coefficient  Atom+Function         Bfn.  Coefficient  Atom+Function  
  ----- ------------  ---------------      ----- ------------  ---------------
    36      4.245517   2 C  s                67      2.133752   3 C  s         
     5     -2.117312   1 O  s                43     -1.572867   2 C  px        
   105      1.517350   4 C  px               66     -1.188995   3 C  s         
    98     -1.108539   4 C  s               139     -0.952630   7 H  s         
   133     -0.912122   6 H  s               127     -0.814121   5 H  s         
 
 Vector   32  Occ=0.000000D+00  E= 2.758329D-01
              MO Center=  4.0D-01,  2.4D-01,  2.9D-01, r^2= 4.2D+00
   Bfn.  Coefficient  Atom+Function         Bfn.  Coefficient  Atom+Function  
  ----- ------------  ---------------      ----- ------------  ---------------
    36      2.767106   2 C  s                 5     -1.847694   1 O  s         
    67     -1.695785   3 C  s                43     -1.475152   2 C  px        
    74     -0.680269   3 C  px               45     -0.636242   2 C  pz        
    98     -0.634721   4 C  s               145      0.565862   8 H  s         
     4      0.491986   1 O  s               151     -0.396826   9 H  s         
 
 Vector   33  Occ=0.000000D+00  E= 3.010913D-01
              MO Center=  4.5D-01,  3.8D-01, -3.9D-01, r^2= 5.1D+00
   Bfn.  Coefficient  Atom+Function         Bfn.  Coefficient  Atom+Function  
  ----- ------------  ---------------      ----- ------------  ---------------
   106      1.863532   4 C  py               43      1.805030   2 C  px        
   151      1.728960   9 H  s                98     -1.590514   4 C  s         
    76      1.370132   3 C  pz               36     -1.271795   2 C  s         
    44     -1.270627   2 C  py               66      1.038583   3 C  s         
   107     -1.026023   4 C  pz              139      0.975410   7 H  s         
 
 Vector   34  Occ=0.000000D+00  E= 3.376846D-01
              MO Center=  1.2D-01,  4.3D-01, -4.3D-01, r^2= 5.8D+00
   Bfn.  Coefficient  Atom+Function         Bfn.  Coefficient  Atom+Function  
  ----- ------------  ---------------      ----- ------------  ---------------
    67      4.713535   3 C  s                76     -3.997217   3 C  pz        
   139     -3.205577   7 H  s                36     -2.463442   2 C  s         
   133      2.006386   6 H  s                98      1.807216   4 C  s         
   157     -1.772476  10 H  s               107     -1.745643   4 C  pz        
    43      1.337896   2 C  px               44     -1.105789   2 C  py        
 
 Vector   35  Occ=0.000000D+00  E= 3.620049D-01
              MO Center=  7.8D-01, -9.5D-03, -3.5D-01, r^2= 6.8D+00
   Bfn.  Coefficient  Atom+Function         Bfn.  Coefficient  Atom+Function  
  ----- ------------  ---------------      ----- ------------  ---------------
    98      8.097829   4 C  s                76      3.323640   3 C  pz        
   145     -3.315230   8 H  s                97     -3.199244   4 C  s         
   133     -2.421778   6 H  s               151     -1.921774   9 H  s         
   139      1.574743   7 H  s                45     -1.540040   2 C  pz        
    44      1.460849   2 C  py              157     -1.388069  10 H  s         
 
 Vector   36  Occ=0.000000D+00  E= 3.720660D-01
              MO Center=  5.8D-01,  2.3D-01,  1.3D-02, r^2= 6.3D+00
   Bfn.  Coefficient  Atom+Function         Bfn.  Coefficient  Atom+Function  
  ----- ------------  ---------------      ----- ------------  ---------------
    36     13.463973   2 C  s                67     -8.613021   3 C  s         
    98     -8.622140   4 C  s               127     -3.225724   5 H  s         
   157      2.251807  10 H  s                97      2.224374   4 C  s         
    35     -1.988973   2 C  s                44      1.951293   2 C  py        
    74     -1.628026   3 C  px               75      1.580967   3 C  py        
 
 Vector   37  Occ=0.000000D+00  E= 3.848324D-01
              MO Center=  9.2D-01, -3.3D-01, -1.8D-01, r^2= 6.0D+00
   Bfn.  Coefficient  Atom+Function         Bfn.  Coefficient  Atom+Function  
  ----- ------------  ---------------      ----- ------------  ---------------
    36      5.564674   2 C  s                98      4.376158   4 C  s         
   127     -3.902489   5 H  s                45      2.703854   2 C  pz        
   145     -2.203834   8 H  s               151     -2.207295   9 H  s         
    35     -2.149089   2 C  s                67     -2.102335   3 C  s         
    76     -1.853141   3 C  pz               97     -1.573834   4 C  s         
 
 Vector   38  Occ=0.000000D+00  E= 3.954931D-01
              MO Center=  2.8D-01,  2.7D-01, -1.7D-02, r^2= 6.6D+00
   Bfn.  Coefficient  Atom+Function         Bfn.  Coefficient  Atom+Function  
  ----- ------------  ---------------      ----- ------------  ---------------
    98     11.597752   4 C  s                67     -7.524992   3 C  s         
    45      4.829798   2 C  pz               76     -2.891505   3 C  pz        
   133      2.871032   6 H  s                44      2.847492   2 C  py        
   157     -2.549753  10 H  s                43     -2.176854   2 C  px        
    75      1.887657   3 C  py               97     -1.835382   4 C  s         
 
 Vector   39  Occ=0.000000D+00  E= 4.032115D-01
              MO Center= -2.9D-01,  1.3D-01,  1.3D-01, r^2= 6.4D+00
   Bfn.  Coefficient  Atom+Function         Bfn.  Coefficient  Atom+Function  
  ----- ------------  ---------------      ----- ------------  ---------------
    36     11.748835   2 C  s                67    -11.290759   3 C  s         
    98     -6.216327   4 C  s                45     -5.975893   2 C  pz        
    44      3.608688   2 C  py              127      3.224909   5 H  s         
   139      2.643447   7 H  s                66      2.568117   3 C  s         
   105      2.509575   4 C  px               43     -2.283499   2 C  px        
 
 Vector   40  Occ=0.000000D+00  E= 4.151627D-01
              MO Center=  7.0D-01, -3.7D-01, -8.1D-01, r^2= 5.9D+00
   Bfn.  Coefficient  Atom+Function         Bfn.  Coefficient  Atom+Function  
  ----- ------------  ---------------      ----- ------------  ---------------
    98      6.859457   4 C  s                36     -2.874882   2 C  s         
    45      2.666317   2 C  pz              151     -2.409026   9 H  s         
   105     -2.321416   4 C  px              157     -2.042681  10 H  s         
   145      1.585360   8 H  s                97     -1.262225   4 C  s         
   144     -0.920051   8 H  s               127     -0.895565   5 H  s         
 
 Vector   41  Occ=0.000000D+00  E= 4.260974D-01
              MO Center=  5.0D-01,  1.7D-01, -1.5D-01, r^2= 6.9D+00
   Bfn.  Coefficient  Atom+Function         Bfn.  Coefficient  Atom+Function  
  ----- ------------  ---------------      ----- ------------  ---------------
    36      9.187307   2 C  s                67     -4.710928   3 C  s         
    98     -3.978377   4 C  s                44      2.634819   2 C  py        
    75      2.527656   3 C  py              151      2.369326   9 H  s         
    43     -1.799859   2 C  px               45     -1.583479   2 C  pz        
    74     -1.439802   3 C  px              133     -1.373656   6 H  s         
 
 Vector   42  Occ=0.000000D+00  E= 4.465955D-01
              MO Center=  1.0D-01, -7.4D-02, -2.5D-01, r^2= 6.2D+00
   Bfn.  Coefficient  Atom+Function         Bfn.  Coefficient  Atom+Function  
  ----- ------------  ---------------      ----- ------------  ---------------
    36     10.040829   2 C  s                98     -9.146175   4 C  s         
    45     -5.481239   2 C  pz               67     -3.175514   3 C  s         
   127      2.720047   5 H  s                76      2.507970   3 C  pz        
    44      2.315359   2 C  py              157      2.200505  10 H  s         
   106     -2.162089   4 C  py               35     -1.968841   2 C  s         
 
 Vector   43  Occ=0.000000D+00  E= 4.597774D-01
              MO Center=  4.4D-02,  8.0D-01, -5.2D-01, r^2= 5.1D+00
   Bfn.  Coefficient  Atom+Function         Bfn.  Coefficient  Atom+Function  
  ----- ------------  ---------------      ----- ------------  ---------------
   139      3.184495   7 H  s               157     -2.338910  10 H  s         
   107     -2.223261   4 C  pz               75     -2.107041   3 C  py        
    45     -1.732182   2 C  pz               43      1.559527   2 C  px        
    44     -1.555428   2 C  py              138     -1.463220   7 H  s         
    76      1.150278   3 C  pz               74      0.825184   3 C  px        
 
 Vector   44  Occ=0.000000D+00  E= 4.690692D-01
              MO Center=  5.0D-01,  1.6D-01, -2.9D-02, r^2= 5.6D+00
   Bfn.  Coefficient  Atom+Function         Bfn.  Coefficient  Atom+Function  
  ----- ------------  ---------------      ----- ------------  ---------------
    98     -4.847136   4 C  s                36      4.710191   2 C  s         
    45     -2.115149   2 C  pz              107     -1.665588   4 C  pz        
   145      1.623532   8 H  s                67     -1.581810   3 C  s         
   133      1.551185   6 H  s                35     -1.192973   2 C  s         
   157     -1.145261  10 H  s               132     -1.100110   6 H  s         
 
 Vector   45  Occ=0.000000D+00  E= 5.073916D-01
              MO Center=  8.6D-01, -3.6D-01, -9.0D-01, r^2= 4.9D+00
   Bfn.  Coefficient  Atom+Function         Bfn.  Coefficient  Atom+Function  
  ----- ------------  ---------------      ----- ------------  ---------------
    98     10.967282   4 C  s                36     -6.880160   2 C  s         
    45      4.429770   2 C  pz              107      3.007554   4 C  pz        
   144     -1.358193   8 H  s               106      1.343604   4 C  py        
   156     -1.189538  10 H  s               127     -1.143653   5 H  s         
    14     -1.078711   1 O  pz              150     -1.020021   9 H  s         
 
 Vector   46  Occ=0.000000D+00  E= 5.389310D-01
              MO Center=  1.5D-01, -4.2D-01, -5.1D-01, r^2= 4.4D+00
   Bfn.  Coefficient  Atom+Function         Bfn.  Coefficient  Atom+Function  
  ----- ------------  ---------------      ----- ------------  ---------------
    98      7.972503   4 C  s                36     -7.223576   2 C  s         
    45      3.979082   2 C  pz               76     -3.307022   3 C  pz        
   133      1.811376   6 H  s               107      1.630810   4 C  pz        
   105     -1.522391   4 C  px              139     -1.454465   7 H  s         
     5      1.167009   1 O  s                14      1.105389   1 O  pz        
 
 Vector   47  Occ=0.000000D+00  E= 6.588676D-01
              MO Center= -3.3D-01,  1.6D-02, -2.8D-02, r^2= 4.3D+00
   Bfn.  Coefficient  Atom+Function         Bfn.  Coefficient  Atom+Function  
  ----- ------------  ---------------      ----- ------------  ---------------
    36     11.336252   2 C  s                67     -8.597274   3 C  s         
    98     -4.036065   4 C  s                43     -2.535490   2 C  px        
    75      2.347487   3 C  py               76      2.185158   3 C  pz        
    13      2.122258   1 O  py              105      1.562965   4 C  px        
   139      1.551820   7 H  s                44      1.399000   2 C  py        
 
 Vector   48  Occ=0.000000D+00  E= 6.740672D-01
              MO Center= -3.1D-01,  3.5D-01,  1.1D-01, r^2= 4.0D+00
   Bfn.  Coefficient  Atom+Function         Bfn.  Coefficient  Atom+Function  
  ----- ------------  ---------------      ----- ------------  ---------------
    36      8.501343   2 C  s                67     -8.231364   3 C  s         
     5      2.968565   1 O  s                75      2.666279   3 C  py        
    98     -2.247558   4 C  s                13      2.193461   1 O  py        
    43     -1.355061   2 C  px               45     -1.297720   2 C  pz        
     4     -1.107992   1 O  s                76      1.012789   3 C  pz        
 
 Vector   49  Occ=0.000000D+00  E= 7.042350D-01
              MO Center=  1.6D-01, -3.0D-01, -2.5D-01, r^2= 4.5D+00
   Bfn.  Coefficient  Atom+Function         Bfn.  Coefficient  Atom+Function  
  ----- ------------  ---------------      ----- ------------  ---------------
    67      9.554139   3 C  s                36     -7.443793   2 C  s         
    43      3.676477   2 C  px               44     -3.532261   2 C  py        
    75     -2.704569   3 C  py               98     -2.320385   4 C  s         
     5      2.238491   1 O  s               106      1.706590   4 C  py        
    12      1.685168   1 O  px               13     -1.319325   1 O  py        
 
 Vector   50  Occ=0.000000D+00  E= 7.620472D-01
              MO Center=  6.1D-01,  2.1D-02, -3.3D-01, r^2= 4.1D+00
   Bfn.  Coefficient  Atom+Function         Bfn.  Coefficient  Atom+Function  
  ----- ------------  ---------------      ----- ------------  ---------------
    45      2.439487   2 C  pz              127     -1.695198   5 H  s         
   105     -1.558833   4 C  px                5     -1.513451   1 O  s         
    36      1.436274   2 C  s                43      1.417824   2 C  px        
   126     -1.329801   5 H  s               144      1.255817   8 H  s         
    76     -1.218779   3 C  pz               67      0.953833   3 C  s         
 
 Vector   51  Occ=0.000000D+00  E= 7.933507D-01
              MO Center=  2.6D-01,  3.4D-02, -1.8D-01, r^2= 4.4D+00
   Bfn.  Coefficient  Atom+Function         Bfn.  Coefficient  Atom+Function  
  ----- ------------  ---------------      ----- ------------  ---------------
     5      4.182704   1 O  s                36     -3.092442   2 C  s         
    76     -2.469686   3 C  pz                4     -1.639541   1 O  s         
    45      1.501859   2 C  pz               12      1.389642   1 O  px        
   133      1.300640   6 H  s                43      1.279542   2 C  px        
    66     -1.056385   3 C  s                35     -1.005232   2 C  s         
 
 Vector   52  Occ=0.000000D+00  E= 8.323455D-01
              MO Center=  3.3D-01,  1.7D-01, -1.7D-02, r^2= 4.4D+00
   Bfn.  Coefficient  Atom+Function         Bfn.  Coefficient  Atom+Function  
  ----- ------------  ---------------      ----- ------------  ---------------
    36      6.704091   2 C  s                98     -4.116632   4 C  s         
     5     -3.821714   1 O  s                43     -2.606718   2 C  px        
    35     -1.944954   2 C  s               105      1.929413   4 C  px        
    45     -1.842611   2 C  pz               44      1.556970   2 C  py        
    66     -1.206143   3 C  s                97      1.044441   4 C  s         
 
 Vector   53  Occ=0.000000D+00  E= 8.533441D-01
              MO Center=  6.0D-01,  1.3D-01, -3.8D-01, r^2= 4.2D+00
   Bfn.  Coefficient  Atom+Function         Bfn.  Coefficient  Atom+Function  
  ----- ------------  ---------------      ----- ------------  ---------------
    98     -4.632194   4 C  s                45     -4.498091   2 C  pz        
    36      4.406674   2 C  s                76      2.039917   3 C  pz        
   127      1.822176   5 H  s               106     -1.607237   4 C  py        
    44      1.521660   2 C  py              105      1.285166   4 C  px        
   150     -1.237180   9 H  s               132     -1.086176   6 H  s         
 
 Vector   54  Occ=0.000000D+00  E= 8.706499D-01
              MO Center=  1.9D-01, -5.6D-02, -1.3D-01, r^2= 4.3D+00
   Bfn.  Coefficient  Atom+Function         Bfn.  Coefficient  Atom+Function  
  ----- ------------  ---------------      ----- ------------  ---------------
     5      4.663887   1 O  s                36     -1.869494   2 C  s         
     4     -1.581684   1 O  s               138      1.446904   7 H  s         
    76      1.313836   3 C  pz               67     -1.276895   3 C  s         
    12      1.181167   1 O  px               66     -1.121927   3 C  s         
   156     -0.899400  10 H  s                43      0.865074   2 C  px        
 
 Vector   55  Occ=0.000000D+00  E= 9.192942D-01
              MO Center=  5.0D-01,  3.1D-01, -4.6D-01, r^2= 4.6D+00
   Bfn.  Coefficient  Atom+Function         Bfn.  Coefficient  Atom+Function  
  ----- ------------  ---------------      ----- ------------  ---------------
    35      4.927082   2 C  s                36     -1.809187   2 C  s         
    67      1.520556   3 C  s               132     -1.281855   6 H  s         
    72      1.257042   3 C  py               66     -1.235904   3 C  s         
    84      1.137681   3 C  d  0            156     -1.124597  10 H  s         
    41      1.114798   2 C  py              116     -1.063704   4 C  d  1      
 
 Vector   56  Occ=0.000000D+00  E= 9.608666D-01
              MO Center=  4.7D-01,  2.7D-01, -5.7D-01, r^2= 4.7D+00
   Bfn.  Coefficient  Atom+Function         Bfn.  Coefficient  Atom+Function  
  ----- ------------  ---------------      ----- ------------  ---------------
    35      4.215810   2 C  s                67      2.812714   3 C  s         
   138     -2.296049   7 H  s                76     -1.870954   3 C  pz        
    36     -1.814535   2 C  s                42     -1.734986   2 C  pz        
    83     -1.613760   3 C  d -1            115     -1.491927   4 C  d  0      
   132      1.347283   6 H  s                43      1.340539   2 C  px        
 
 Vector   57  Occ=0.000000D+00  E= 9.922365D-01
              MO Center=  3.2D-01,  5.2D-01, -8.2D-02, r^2= 4.0D+00
   Bfn.  Coefficient  Atom+Function         Bfn.  Coefficient  Atom+Function  
  ----- ------------  ---------------      ----- ------------  ---------------
    36      7.235670   2 C  s                98     -4.864326   4 C  s         
    67     -3.700832   3 C  s                45     -3.667064   2 C  pz        
    43     -2.199417   2 C  px               44      2.078665   2 C  py        
    66     -1.639398   3 C  s               127      1.533531   5 H  s         
    75      1.390633   3 C  py              126      1.323426   5 H  s         
 
 Vector   58  Occ=0.000000D+00  E= 1.010716D+00
              MO Center=  4.0D-01,  5.1D-01, -7.4D-02, r^2= 4.3D+00
   Bfn.  Coefficient  Atom+Function         Bfn.  Coefficient  Atom+Function  
  ----- ------------  ---------------      ----- ------------  ---------------
    36      5.669453   2 C  s                67     -4.593220   3 C  s         
    45     -2.252379   2 C  pz               44      1.893682   2 C  py        
    98     -1.833559   4 C  s               156     -1.545353  10 H  s         
   144      1.393191   8 H  s                43     -1.364452   2 C  px        
    74     -1.326075   3 C  px               76      1.332281   3 C  pz        
 
 Vector   59  Occ=0.000000D+00  E= 1.041693D+00
              MO Center=  6.9D-01, -1.5D-01, -4.6D-01, r^2= 4.2D+00
   Bfn.  Coefficient  Atom+Function         Bfn.  Coefficient  Atom+Function  
  ----- ------------  ---------------      ----- ------------  ---------------
    35      2.651969   2 C  s                36      2.551561   2 C  s         
    66     -2.424795   3 C  s               150      1.971654   9 H  s         
   144     -1.874185   8 H  s                 5     -1.810807   1 O  s         
   117      1.718966   4 C  d  2             41      1.604250   2 C  py        
    44      1.345976   2 C  py               72      1.283075   3 C  py        
 
 Vector   60  Occ=0.000000D+00  E= 1.079311D+00
              MO Center=  6.8D-01, -1.8D-04, -7.6D-02, r^2= 4.1D+00
   Bfn.  Coefficient  Atom+Function         Bfn.  Coefficient  Atom+Function  
  ----- ------------  ---------------      ----- ------------  ---------------
    98     -4.156477   4 C  s                66      4.085720   3 C  s         
    45     -3.802509   2 C  pz               97     -3.697232   4 C  s         
    36      3.483148   2 C  s                41     -2.593833   2 C  py        
   104     -2.502604   4 C  pz               72     -2.380833   3 C  py        
    42     -2.331766   2 C  pz               53      2.288478   2 C  d  0      
 
 Vector   61  Occ=0.000000D+00  E= 1.105957D+00
              MO Center=  3.7D-01,  5.0D-02,  5.3D-02, r^2= 3.7D+00
   Bfn.  Coefficient  Atom+Function         Bfn.  Coefficient  Atom+Function  
  ----- ------------  ---------------      ----- ------------  ---------------
    36      7.384243   2 C  s                67     -5.167336   3 C  s         
    98     -2.840719   4 C  s                66      1.955771   3 C  s         
   126     -1.950874   5 H  s                45     -1.839321   2 C  pz        
   132      1.623585   6 H  s                72     -1.496371   3 C  py        
    41     -1.385150   2 C  py               53      1.333559   2 C  d  0      
 
 Vector   62  Occ=0.000000D+00  E= 1.146752D+00
              MO Center=  6.1D-01,  2.9D-02, -2.4D-02, r^2= 3.6D+00
   Bfn.  Coefficient  Atom+Function         Bfn.  Coefficient  Atom+Function  
  ----- ------------  ---------------      ----- ------------  ---------------
    67      5.156034   3 C  s                36     -3.851781   2 C  s         
    44     -2.379162   2 C  py              126      1.923101   5 H  s         
    97     -1.882661   4 C  s                54      1.603020   2 C  d  1      
    43      1.547741   2 C  px               42     -1.462298   2 C  pz        
    55      1.430637   2 C  d  2            132     -1.430864   6 H  s         
 
 Vector   63  Occ=0.000000D+00  E= 1.214774D+00
              MO Center=  5.6D-01,  2.0D-01, -1.4D-01, r^2= 3.8D+00
   Bfn.  Coefficient  Atom+Function         Bfn.  Coefficient  Atom+Function  
  ----- ------------  ---------------      ----- ------------  ---------------
    36      6.822395   2 C  s                66     -4.995856   3 C  s         
    67     -3.389869   3 C  s                97     -3.332074   4 C  s         
    35      3.211751   2 C  s                72      1.931784   3 C  py        
    51     -1.775257   2 C  d -2             52      1.687023   2 C  d -1      
   138      1.635791   7 H  s                41      1.494704   2 C  py        
 
 Vector   64  Occ=0.000000D+00  E= 1.348855D+00
              MO Center=  3.4D-01,  5.5D-01,  2.4D-01, r^2= 3.6D+00
   Bfn.  Coefficient  Atom+Function         Bfn.  Coefficient  Atom+Function  
  ----- ------------  ---------------      ----- ------------  ---------------
    66      4.755012   3 C  s                35      3.897313   2 C  s         
    67     -3.090655   3 C  s                36     -2.729149   2 C  s         
    65     -2.416998   3 C  s               132     -2.110393   6 H  s         
    34     -1.441457   2 C  s               133      1.444147   6 H  s         
    72      1.327511   3 C  py              139      1.068071   7 H  s         
 
 Vector   65  Occ=0.000000D+00  E= 1.417676D+00
              MO Center=  1.4D-01,  5.3D-01, -3.9D-02, r^2= 3.4D+00
   Bfn.  Coefficient  Atom+Function         Bfn.  Coefficient  Atom+Function  
  ----- ------------  ---------------      ----- ------------  ---------------
    36      4.461490   2 C  s                67     -3.871623   3 C  s         
    66      3.720028   3 C  s                35     -3.627745   2 C  s         
    73     -2.368525   3 C  pz              138     -2.271734   7 H  s         
   139      2.259419   7 H  s               126      1.823711   5 H  s         
    76      1.748651   3 C  pz               65     -1.530961   3 C  s         
 
 Vector   66  Occ=0.000000D+00  E= 1.433003D+00
              MO Center=  1.1D+00, -4.4D-01, -1.1D+00, r^2= 3.5D+00
   Bfn.  Coefficient  Atom+Function         Bfn.  Coefficient  Atom+Function  
  ----- ------------  ---------------      ----- ------------  ---------------
    98     10.105867   4 C  s                97     -7.674758   4 C  s         
    96      3.097646   4 C  s               145     -2.476083   8 H  s         
    36     -2.279135   2 C  s               151     -2.255093   9 H  s         
   157     -2.125271  10 H  s               144      1.764115   8 H  s         
   150      1.587144   9 H  s               104      1.452379   4 C  pz        
 
 Vector   67  Occ=0.000000D+00  E= 1.443598D+00
              MO Center=  3.3D-01, -5.3D-02,  7.1D-02, r^2= 4.1D+00
   Bfn.  Coefficient  Atom+Function         Bfn.  Coefficient  Atom+Function  
  ----- ------------  ---------------      ----- ------------  ---------------
    98      4.832619   4 C  s                66      3.999750   3 C  s         
    35     -3.479058   2 C  s                45      2.516830   2 C  pz        
    67     -2.450683   3 C  s                97     -2.399685   4 C  s         
   133      2.062837   6 H  s                76     -2.005741   3 C  pz        
   127     -1.984230   5 H  s               132     -1.569499   6 H  s         
 
 Vector   68  Occ=0.000000D+00  E= 1.444792D+00
              MO Center=  4.1D-01,  2.4D-02, -3.5D-01, r^2= 3.2D+00
   Bfn.  Coefficient  Atom+Function         Bfn.  Coefficient  Atom+Function  
  ----- ------------  ---------------      ----- ------------  ---------------
    98     -3.116864   4 C  s                36      2.879960   2 C  s         
     5     -2.116149   1 O  s                66      1.955960   3 C  s         
    67     -1.756887   3 C  s                97      1.750502   4 C  s         
    45     -1.159655   2 C  pz               44      1.057095   2 C  py        
    41     -0.878682   2 C  py               40     -0.849854   2 C  px        
 
 Vector   69  Occ=0.000000D+00  E= 1.473072D+00
              MO Center=  9.4D-01, -2.3D-01, -9.5D-01, r^2= 3.4D+00
   Bfn.  Coefficient  Atom+Function         Bfn.  Coefficient  Atom+Function  
  ----- ------------  ---------------      ----- ------------  ---------------
    36      2.157770   2 C  s                66      1.709611   3 C  s         
    67     -1.398123   3 C  s               103      1.390920   4 C  py        
    98     -1.270616   4 C  s                 5     -1.248649   1 O  s         
   156     -1.151088  10 H  s               150      1.002742   9 H  s         
    97      0.996555   4 C  s               106     -0.909153   4 C  py        
 
 Vector   70  Occ=0.000000D+00  E= 1.479152D+00
              MO Center=  9.3D-01, -4.0D-01, -1.0D+00, r^2= 3.4D+00
   Bfn.  Coefficient  Atom+Function         Bfn.  Coefficient  Atom+Function  
  ----- ------------  ---------------      ----- ------------  ---------------
   156     -2.516453  10 H  s                36      2.346999   2 C  s         
    66     -2.079842   3 C  s               102     -1.975268   4 C  px        
   157      1.942018  10 H  s               104     -1.717614   4 C  pz        
   126      1.573701   5 H  s               103      1.458920   4 C  py        
   144      1.295621   8 H  s               127     -1.207708   5 H  s         
 
 Vector   71  Occ=0.000000D+00  E= 1.511884D+00
              MO Center=  3.2D-01,  1.4D-01, -3.3D-01, r^2= 3.9D+00
   Bfn.  Coefficient  Atom+Function         Bfn.  Coefficient  Atom+Function  
  ----- ------------  ---------------      ----- ------------  ---------------
    98      2.618670   4 C  s               144      1.840836   8 H  s         
   102     -1.613336   4 C  px              145     -1.405956   8 H  s         
    45      1.339218   2 C  pz              103     -1.277241   4 C  py        
    36     -1.025534   2 C  s                97     -1.030501   4 C  s         
    66      0.919471   3 C  s               150     -0.891778   9 H  s         
 
 Vector   72  Occ=0.000000D+00  E= 1.542053D+00
              MO Center=  3.5D-01,  4.6D-01, -1.9D-01, r^2= 4.6D+00
   Bfn.  Coefficient  Atom+Function         Bfn.  Coefficient  Atom+Function  
  ----- ------------  ---------------      ----- ------------  ---------------
    36      4.289301   2 C  s                98     -3.668673   4 C  s         
    35     -3.514835   2 C  s                97      3.191905   4 C  s         
    67     -2.476209   3 C  s                73      2.126682   3 C  pz        
   132     -1.755411   6 H  s               133      1.442501   6 H  s         
   102     -1.402866   4 C  px              138      1.321387   7 H  s         
 
 Vector   73  Occ=0.000000D+00  E= 1.574279D+00
              MO Center=  5.1D-01, -5.3D-02, -1.2D-01, r^2= 3.2D+00
   Bfn.  Coefficient  Atom+Function         Bfn.  Coefficient  Atom+Function  
  ----- ------------  ---------------      ----- ------------  ---------------
    35      3.740265   2 C  s                36     -3.215662   2 C  s         
    40     -2.078579   2 C  px               97     -2.037504   4 C  s         
    67      1.994250   3 C  s               126      1.730877   5 H  s         
    72      1.697141   3 C  py               98      1.594289   4 C  s         
    34     -1.536400   2 C  s                45      1.439935   2 C  pz        
 
 Vector   74  Occ=0.000000D+00  E= 1.598061D+00
              MO Center=  3.3D-01,  4.1D-01, -1.4D-01, r^2= 3.4D+00
   Bfn.  Coefficient  Atom+Function         Bfn.  Coefficient  Atom+Function  
  ----- ------------  ---------------      ----- ------------  ---------------
    36     -5.283816   2 C  s                35      5.217266   2 C  s         
    66     -5.216502   3 C  s                67      3.955104   3 C  s         
    41      3.720327   2 C  py               71     -2.597027   3 C  px        
    72      2.371078   3 C  py               40     -2.026483   2 C  px        
    98      1.777771   4 C  s                82      1.696592   3 C  d -2      
 
 Vector   75  Occ=0.000000D+00  E= 1.643259D+00
              MO Center=  4.7D-01,  1.8D-01, -3.2D-02, r^2= 3.7D+00
   Bfn.  Coefficient  Atom+Function         Bfn.  Coefficient  Atom+Function  
  ----- ------------  ---------------      ----- ------------  ---------------
    66      2.795003   3 C  s                35      2.020975   2 C  s         
    98      1.997788   4 C  s                 5     -1.787182   1 O  s         
    97     -1.610463   4 C  s                67     -1.396785   3 C  s         
   104     -1.185393   4 C  pz              144      1.115980   8 H  s         
    41     -1.107522   2 C  py              150     -1.073617   9 H  s         
 
 Vector   76  Occ=0.000000D+00  E= 1.695629D+00
              MO Center=  5.9D-01,  2.9D-02, -4.2D-01, r^2= 3.5D+00
   Bfn.  Coefficient  Atom+Function         Bfn.  Coefficient  Atom+Function  
  ----- ------------  ---------------      ----- ------------  ---------------
    97     -5.097808   4 C  s                35      4.962549   2 C  s         
   104     -2.562851   4 C  pz               42     -2.529380   2 C  pz        
    66     -1.909088   3 C  s               102      1.797731   4 C  px        
    40      1.511730   2 C  px               34     -1.435921   2 C  s         
    96      1.412442   4 C  s                54      1.049117   2 C  d  1      
 
 Vector   77  Occ=0.000000D+00  E= 1.704091D+00
              MO Center= -7.7D-02,  3.9D-01, -8.0D-02, r^2= 3.7D+00
   Bfn.  Coefficient  Atom+Function         Bfn.  Coefficient  Atom+Function  
  ----- ------------  ---------------      ----- ------------  ---------------
     5      3.867793   1 O  s                72      3.395462   3 C  py        
    36     -2.656722   2 C  s                97      2.666354   4 C  s         
   138     -2.090655   7 H  s                42      1.955750   2 C  pz        
   104      1.719655   4 C  pz               66     -1.710012   3 C  s         
    35     -1.572559   2 C  s                41      1.505809   2 C  py        
 
 Vector   78  Occ=0.000000D+00  E= 1.786581D+00
              MO Center=  4.1D-01,  2.3D-01,  1.2D-02, r^2= 3.5D+00
   Bfn.  Coefficient  Atom+Function         Bfn.  Coefficient  Atom+Function  
  ----- ------------  ---------------      ----- ------------  ---------------
    35      3.049151   2 C  s                97     -2.945500   4 C  s         
    36      1.790463   2 C  s                45     -1.315513   2 C  pz        
   104     -1.279700   4 C  pz               67     -1.201416   3 C  s         
    42     -1.124988   2 C  pz              102      0.964034   4 C  px        
    96      0.951590   4 C  s               103     -0.873806   4 C  py        
 
 Vector   79  Occ=0.000000D+00  E= 1.815555D+00
              MO Center= -6.4D-01,  1.6D-01,  1.9D-01, r^2= 2.5D+00
   Bfn.  Coefficient  Atom+Function         Bfn.  Coefficient  Atom+Function  
  ----- ------------  ---------------      ----- ------------  ---------------
    35      4.150489   2 C  s                 5     -3.361334   1 O  s         
    40     -2.429568   2 C  px               41      2.066821   2 C  py        
    72      1.956138   3 C  py               66     -1.738356   3 C  s         
    71     -1.658970   3 C  px               12     -1.402811   1 O  px        
   132     -1.070610   6 H  s               138     -0.997526   7 H  s         
 
 Vector   80  Occ=0.000000D+00  E= 1.840736D+00
              MO Center=  1.0D-02,  3.6D-01, -2.4D-02, r^2= 3.5D+00
   Bfn.  Coefficient  Atom+Function         Bfn.  Coefficient  Atom+Function  
  ----- ------------  ---------------      ----- ------------  ---------------
    36      1.392879   2 C  s                35     -1.045955   2 C  s         
    66     -0.970019   3 C  s               156      0.912071  10 H  s         
    67     -0.870381   3 C  s                41      0.767028   2 C  py        
   104      0.628963   4 C  pz               71      0.615149   3 C  px        
   157     -0.612566  10 H  s                 5      0.596950   1 O  s         
 
 Vector   81  Occ=0.000000D+00  E= 1.867544D+00
              MO Center=  5.6D-01,  1.5D-01, -4.7D-01, r^2= 4.0D+00
   Bfn.  Coefficient  Atom+Function         Bfn.  Coefficient  Atom+Function  
  ----- ------------  ---------------      ----- ------------  ---------------
    35      6.800860   2 C  s                66     -4.337372   3 C  s         
    72      3.515393   3 C  py               97     -3.354606   4 C  s         
    36      1.954078   2 C  s               104     -1.949353   4 C  pz        
    34     -1.669663   2 C  s                41      1.518190   2 C  py        
    67     -1.441776   3 C  s                45     -1.377183   2 C  pz        
 
 Vector   82  Occ=0.000000D+00  E= 1.920629D+00
              MO Center=  3.4D-01, -1.6D-01, -3.2D-01, r^2= 3.2D+00
   Bfn.  Coefficient  Atom+Function         Bfn.  Coefficient  Atom+Function  
  ----- ------------  ---------------      ----- ------------  ---------------
    36      1.372958   2 C  s                98     -1.325829   4 C  s         
   103     -1.263774   4 C  py               45     -1.184052   2 C  pz        
    97     -1.039341   4 C  s               150     -0.833375   9 H  s         
    42     -0.748902   2 C  pz               41      0.696319   2 C  py        
    35      0.689264   2 C  s                66     -0.658057   3 C  s         
 
 Vector   83  Occ=0.000000D+00  E= 1.987963D+00
              MO Center=  4.8D-01,  8.6D-03, -1.7D-01, r^2= 3.2D+00
   Bfn.  Coefficient  Atom+Function         Bfn.  Coefficient  Atom+Function  
  ----- ------------  ---------------      ----- ------------  ---------------
    67      2.065390   3 C  s                40      2.011544   2 C  px        
    36     -1.737663   2 C  s                66      1.732467   3 C  s         
    35     -1.364330   2 C  s                43      1.357846   2 C  px        
    72     -1.356599   3 C  py               45      1.255455   2 C  pz        
     5      1.248954   1 O  s                71      1.250461   3 C  px        
 
 Vector   84  Occ=0.000000D+00  E= 1.991889D+00
              MO Center=  9.9D-01, -3.4D-01, -9.6D-01, r^2= 3.3D+00
   Bfn.  Coefficient  Atom+Function         Bfn.  Coefficient  Atom+Function  
  ----- ------------  ---------------      ----- ------------  ---------------
    98      5.206875   4 C  s                36     -4.220142   2 C  s         
    35      3.517889   2 C  s                66     -2.048092   3 C  s         
    45      1.668846   2 C  pz              107      1.529817   4 C  pz        
    72      1.368682   3 C  py               41      1.245344   2 C  py        
   156     -1.219983  10 H  s                34     -1.208068   2 C  s         
 
 Vector   85  Occ=0.000000D+00  E= 2.089964D+00
              MO Center= -1.7D-02,  1.9D-01, -4.7D-02, r^2= 3.6D+00
   Bfn.  Coefficient  Atom+Function         Bfn.  Coefficient  Atom+Function  
  ----- ------------  ---------------      ----- ------------  ---------------
    98      2.014457   4 C  s                41     -1.123325   2 C  py        
    66      1.047436   3 C  s                67     -0.904346   3 C  s         
    36     -0.890591   2 C  s               156     -0.806454  10 H  s         
   138      0.747347   7 H  s                14      0.689392   1 O  pz        
    71      0.627468   3 C  px               40      0.590862   2 C  px        
 
 Vector   86  Occ=0.000000D+00  E= 2.098464D+00
              MO Center= -3.9D-01,  6.9D-02,  1.1D-01, r^2= 2.9D+00
   Bfn.  Coefficient  Atom+Function         Bfn.  Coefficient  Atom+Function  
  ----- ------------  ---------------      ----- ------------  ---------------
    36      6.246086   2 C  s                67     -5.590252   3 C  s         
    35     -3.359204   2 C  s                66      3.234143   3 C  s         
    41     -2.937401   2 C  py               71      2.702229   3 C  px        
    13      1.886290   1 O  py               82     -1.454370   3 C  d -2      
    43     -1.325214   2 C  px               98     -1.319755   4 C  s         
 
 Vector   87  Occ=0.000000D+00  E= 2.166786D+00
              MO Center=  4.9D-01, -6.0D-02, -4.9D-01, r^2= 3.2D+00
   Bfn.  Coefficient  Atom+Function         Bfn.  Coefficient  Atom+Function  
  ----- ------------  ---------------      ----- ------------  ---------------
    98      2.286790   4 C  s                67     -1.722946   3 C  s         
    35     -1.242889   2 C  s                73      1.037861   3 C  pz        
   156     -0.877660  10 H  s                40      0.854950   2 C  px        
    44      0.798385   2 C  py               45      0.789149   2 C  pz        
    43     -0.778295   2 C  px               42     -0.763646   2 C  pz        
 
 Vector   88  Occ=0.000000D+00  E= 2.202634D+00
              MO Center=  4.4D-01,  1.2D-01, -3.1D-01, r^2= 3.6D+00
   Bfn.  Coefficient  Atom+Function         Bfn.  Coefficient  Atom+Function  
  ----- ------------  ---------------      ----- ------------  ---------------
    98      2.014656   4 C  s                45      0.967912   2 C  pz        
    36     -0.962580   2 C  s                42     -0.918383   2 C  pz        
    76     -0.875825   3 C  pz              132      0.801946   6 H  s         
   103     -0.778863   4 C  py               97     -0.730267   4 C  s         
   117     -0.675898   4 C  d  2            138     -0.627754   7 H  s         
 
 Vector   89  Occ=0.000000D+00  E= 2.224966D+00
              MO Center=  4.8D-01,  1.6D-01,  9.7D-02, r^2= 3.5D+00
   Bfn.  Coefficient  Atom+Function         Bfn.  Coefficient  Atom+Function  
  ----- ------------  ---------------      ----- ------------  ---------------
    36      3.289210   2 C  s                98     -1.669402   4 C  s         
    67     -1.656737   3 C  s                 5     -1.214548   1 O  s         
    72     -0.973650   3 C  py               42     -0.930920   2 C  pz        
    66      0.931172   3 C  s                45     -0.877752   2 C  pz        
    35     -0.790982   2 C  s                51      0.708461   2 C  d -2      
 
 Vector   90  Occ=0.000000D+00  E= 2.241136D+00
              MO Center=  8.8D-01, -3.1D-01, -9.2D-01, r^2= 3.3D+00
   Bfn.  Coefficient  Atom+Function         Bfn.  Coefficient  Atom+Function  
  ----- ------------  ---------------      ----- ------------  ---------------
    36      1.541052   2 C  s               150      1.379140   9 H  s         
    67     -1.032037   3 C  s               144     -0.918002   8 H  s         
    98     -0.810800   4 C  s               117      0.754204   4 C  d  2      
    66     -0.675193   3 C  s               149     -0.546531   9 H  s         
    72      0.539310   3 C  py              147      0.526789   8 H  py        
 
 Vector   91  Occ=0.000000D+00  E= 2.265665D+00
              MO Center=  1.0D+00, -3.3D-01, -1.1D+00, r^2= 2.9D+00
   Bfn.  Coefficient  Atom+Function         Bfn.  Coefficient  Atom+Function  
  ----- ------------  ---------------      ----- ------------  ---------------
    66      2.476530   3 C  s                41     -1.631528   2 C  py        
    36      1.552561   2 C  s                35     -1.383507   2 C  s         
    67     -1.328057   3 C  s                72     -1.117358   3 C  py        
    71      0.984540   3 C  px              156      0.967799  10 H  s         
   126     -0.953505   5 H  s                40      0.707668   2 C  px        
 
 Vector   92  Occ=0.000000D+00  E= 2.283582D+00
              MO Center=  4.6D-01,  1.5D-01, -1.8D-01, r^2= 3.6D+00
   Bfn.  Coefficient  Atom+Function         Bfn.  Coefficient  Atom+Function  
  ----- ------------  ---------------      ----- ------------  ---------------
    98      3.651109   4 C  s                36     -2.597591   2 C  s         
[...]
    21     -0.871369   1 O  d -1             42     -0.841363   2 C  pz        
    97     -0.776238   4 C  s                45     -0.718692   2 C  pz        
    67     -0.594463   3 C  s                72     -0.540107   3 C  py        
     5     -0.522222   1 O  s                98     -0.514712   4 C  s         
 
 Vector  154  Occ=0.000000D+00  E= 6.673909D+00
              MO Center= -8.7D-01, -1.8D-01,  2.0D-01, r^2= 5.7D-01
   Bfn.  Coefficient  Atom+Function         Bfn.  Coefficient  Atom+Function  
  ----- ------------  ---------------      ----- ------------  ---------------
    18      1.060940   1 O  d  1             23     -1.030177   1 O  d  1      
    97     -0.831308   4 C  s                35      0.765432   2 C  s         
    42     -0.751898   2 C  pz              102      0.623156   4 C  px        
    54     -0.542652   2 C  d  1             14      0.401505   1 O  pz        
    16     -0.397027   1 O  d -1             21      0.385805   1 O  d -1      
 
 Vector  155  Occ=0.000000D+00  E= 6.841943D+00
              MO Center= -8.8D-01, -1.9D-01,  2.0D-01, r^2= 5.9D-01
   Bfn.  Coefficient  Atom+Function         Bfn.  Coefficient  Atom+Function  
  ----- ------------  ---------------      ----- ------------  ---------------
     5      2.135709   1 O  s                40      1.773878   2 C  px        
     9      1.363778   1 O  px               97     -1.281736   4 C  s         
     4      1.199962   1 O  s                20      1.046680   1 O  d -2      
    42     -0.966916   2 C  pz               35     -0.869354   2 C  s         
    12      0.853143   1 O  px               15     -0.833371   1 O  d -2      
 
 Vector  156  Occ=0.000000D+00  E= 7.056808D+00
              MO Center= -8.9D-01, -1.9D-01,  2.0D-01, r^2= 6.4D-01
   Bfn.  Coefficient  Atom+Function         Bfn.  Coefficient  Atom+Function  
  ----- ------------  ---------------      ----- ------------  ---------------
    66     -3.196506   3 C  s                35      3.050207   2 C  s         
    40     -2.729757   2 C  px               72      2.695716   3 C  py        
    24     -1.579639   1 O  d  2             36      1.431535   2 C  s         
    10      1.277129   1 O  py               67     -1.273759   3 C  s         
    19      1.018369   1 O  d  2             13      0.862093   1 O  py        
 
 Vector  157  Occ=0.000000D+00  E= 2.193602D+01
              MO Center=  6.0D-02,  8.0D-01,  7.3D-02, r^2= 1.2D+00
   Bfn.  Coefficient  Atom+Function         Bfn.  Coefficient  Atom+Function  
  ----- ------------  ---------------      ----- ------------  ---------------
    64      1.594636   3 C  s                65     -1.363831   3 C  s         
    67     -1.272334   3 C  s                63     -1.256988   3 C  s         
    98      1.048291   4 C  s                95     -0.731379   4 C  s         
    96      0.596832   4 C  s                94      0.578728   4 C  s         
    40     -0.469863   2 C  px               35      0.461175   2 C  s         
 
 Vector  158  Occ=0.000000D+00  E= 2.198113D+01
              MO Center=  9.0D-01, -2.7D-01, -7.3D-01, r^2= 1.1D+00
   Bfn.  Coefficient  Atom+Function         Bfn.  Coefficient  Atom+Function  
  ----- ------------  ---------------      ----- ------------  ---------------
    95      1.432387   4 C  s                96     -1.321969   4 C  s         
    98     -1.141363   4 C  s                94     -1.126960   4 C  s         
    34     -0.969216   2 C  s                36     -0.948525   2 C  s         
    33      0.885696   2 C  s                32     -0.692154   2 C  s         
    67      0.624214   3 C  s                65     -0.617337   3 C  s         
 
 Vector  159  Occ=0.000000D+00  E= 2.209613D+01
              MO Center=  6.2D-01, -1.2D-01, -8.5D-02, r^2= 7.1D-01
   Bfn.  Coefficient  Atom+Function         Bfn.  Coefficient  Atom+Function  
  ----- ------------  ---------------      ----- ------------  ---------------
    36      2.192381   2 C  s                33     -1.533524   2 C  s         
    34      1.528038   2 C  s                35     -1.381622   2 C  s         
    98     -1.308881   4 C  s                32      1.201194   2 C  s         
    67     -1.150658   3 C  s                95      0.735655   4 C  s         
    97      0.699756   4 C  s                96     -0.664744   4 C  s         
 
 Vector  160  Occ=0.000000D+00  E= 4.340935D+01
              MO Center= -8.8D-01, -1.8D-01,  2.0D-01, r^2= 1.2D-01
   Bfn.  Coefficient  Atom+Function         Bfn.  Coefficient  Atom+Function  
  ----- ------------  ---------------      ----- ------------  ---------------
     4      2.489335   1 O  s                 3     -1.869949   1 O  s         
     2      1.731175   1 O  s                 1     -1.395784   1 O  s         
     5     -0.878732   1 O  s                36      0.820712   2 C  s         
     9      0.553604   1 O  px               66     -0.510625   3 C  s         
    72      0.453012   3 C  py               40      0.448160   2 C  px        
 

 center of mass
 --------------
 x =   0.30619337 y =   0.09486527 z =  -0.27792489

 moments of inertia (a.u.)
 ------------------
         200.398619935471          45.642963205122          83.550577853333
          45.642963205122         248.164020702755         -53.026063341075
          83.550577853333         -53.026063341075         239.222095891315
 
     Multipole analysis of the density
     ---------------------------------
 
     L   x y z        total         alpha         beta         nuclear
     -   - - -        -----         -----         ----         -------
     0   0 0 0     -0.000000    -16.000000    -16.000000     32.000000
 
     1   1 0 0      0.694966     -6.223832     -6.223832     13.142630
     1   0 1 0      0.328647     -1.622698     -1.622698      3.574043
     1   0 0 1     -0.054690      5.328493      5.328493    -10.711676
 
     2   2 0 0    -20.049554    -54.384550    -54.384550     88.719546
     2   1 1 0     -1.127387     13.894000     13.894000    -28.915387
     2   1 0 1      0.168149     26.427847     26.427847    -52.687545
     2   0 2 0    -17.812916    -40.546108    -40.546108     63.279299
     2   0 1 1      0.286976    -15.485166    -15.485166     31.257309
     2   0 0 2    -18.188004    -45.765161    -45.765161     73.342317
 
 *** CALLING NEW AORESP DRIVER FOR CLOSED AND OPEN SHELLS ***
 Entering AOResponse driver routine


--------------------------------------------------------------------------------

          ****************
          *** RESPONSE ***
          ****************

 Response module for NWChem and dynamic CPKS solver
 developed by J. Autschbach and coworkers, SUNY Buffalo
 The methodology used in this program is described in 
 ChemPhysChem 12 (2011), 3224-3235 (main reference)
 J. Chem. Phys. 123 (2005), 114103
 J. Chem. Phys. 122 (2005), 224115
 J. Chem. Phys. 122 (2005), 074105
 Comp. Lett. 3 (2007), 131-150 (contact JA for a copy)
 Please cite this work in publications based on results
 obtained with this code. Thank you!

 For extension of response module to open shell
 calculations please acknowledge:
 F. Aquino, Northwestern University, Schatz Rsrch Group
 The update to the methodology is described in
 J. Phys. Chem. A 118 (2014) 517-525



          -----------------------------------------------
          Solving response equations for perturbing field
          -----------------------------------------------

 number of frequencies:     1
 frequency in a.u.:  0.9319600E-01
 Perturbing field: electric
 Using GIAO formalism for OptRot
 Adding quadrupole terms to OptRot
 to create an origin in dependent tensor.
 Using El. Dipole Length Gauge
 
 Applying DAMPING constant of  0.003700 a.u.
 
 Setting up CPKS
 with frequency omega =      0.09319600 a.u.
 and a damping of            0.00370000 a.u.

 
                            NWChem Dynamic CPHF Module
                            --------------------------
 
 
    scftype = RHF 
    nclosed =   16
      nopen =    0
  variables =     9216
  num. vecs =        3
  tolerance =   1.0D-07
  max. iter =  100

 SCF residual:   1.453719679684635E-006


Iterative solution of linear equations
  No. of variables     4608
  No. of equations        3
  Maximum subspace       99
       Convergence  1.0D-07
        Start time     65.7


   iter   nsub   residual    time 
   ----  ------  --------  --------- 
 dft_CPHF2_read: failed to open
 ./methyloxirane_blyp-def2-tzvp_488.9_09.inp.aoresp_fiao_f1
     1      3    4.11D+00      97.5
     2      6    2.64D+00     129.5
     3      9    2.46D-01     161.5
     4     12    5.15D-02     193.5
     5     15    1.08D-02     225.4
     6     18    1.31D-03     257.4
     7     21    1.44D-04     289.4
     8     24    1.32D-05     321.4
     9     27    1.23D-06     353.4
    10     30    4.77D-07     385.4
    11     33    1.40D-08     417.4

 Calculating some arrays needed for GIAO optical rotation

    0 giaofock schwarz done =      93.69%
    0 giaofock schwarz done =      93.64%
 aor_r1_tensor_giao: roadata output requested
 dip-quad polarizability Re:

              1        2        3        4        5        6      
    1   77.2813  -6.1669 -27.5337  -4.3794   1.4133   9.0658
    2  -11.8303  25.7042   3.5373  23.6167 -21.2553   4.0953
    3   -6.5809   1.3434  39.2605   0.2721  14.1482 -41.1923
 traceless dip-quad polarizability:

              1        2        3      
    1   74.9381  -9.2504 -41.3005
    2   -9.2504 -47.5530   2.1200
    3  -41.3005   2.1200 -27.3851

              1        2        3      
    1  -25.6863  38.5563   5.3060
    2   38.5563  27.4842 -31.8829
    3    5.3060 -31.8829  -1.7979

              1        2        3      
    1   13.8793   2.0150  58.8907
    2    2.0150  24.1586  21.2223
    3   58.8907  21.2223 -38.0379

 roa begin

 alpha real:
 XX       0.4107333924237E+02
 XY      -0.5183218768428E+01
 XZ      -0.2970605285770E+01
 YX      -0.5183218774673E+01
 YY       0.4407486617050E+02
 YZ       0.3259902630093E+01
 ZX      -0.2970605288324E+01
 ZY       0.3259902636288E+01
 ZZ       0.4148710455558E+02

 alpha im:
 XX       0.1116405093017E+00
 XY      -0.2981437611752E-01
 XZ      -0.1106930455487E-01
 YX      -0.2981437285859E-01
 YY       0.1290052015089E+00
 YZ       0.1871098558963E-01
 ZX      -0.1106930291297E-01
 ZY       0.1871098650934E-01
 ZZ       0.1226411849484E+00

 beta real:
 XX      -0.1466014606412E+00
 XY       0.9366793292166E+00
 XZ       0.2066053983502E+00
 YX      -0.8869853274014E+00
 YY       0.1415324072390E+00
 YZ      -0.1546471845141E+01
 ZX      -0.4873426977818E+00
 ZY       0.1872747936185E+01
 ZZ      -0.1358605732397E-03

 G-prime = -omega beta(real):
 XX      -0.1466014606412E+00
 XY       0.9366793292166E+00
 XZ       0.2066053983502E+00
 YX      -0.8869853274014E+00
 YY       0.1415324072390E+00
 YZ      -0.1546471845141E+01
 ZX      -0.4873426977818E+00
 ZY       0.1872747936185E+01
 ZZ      -0.1358605732397E-03

 beta im:
 XX      -0.6285597392477E-02
 XY       0.1324176257717E-01
 XZ       0.2872815292339E-02
 YX      -0.7496879643402E-02
 YY       0.4648508499272E-02
 YZ      -0.2351659982500E-01
 ZX      -0.1369790747827E-01
 ZY       0.4022394570489E-01
 ZZ       0.6384967923361E-03

 G-prime = -omega beta(imag):
 XX      -0.6285597392477E-02
 XY       0.1324176257717E-01
 XZ       0.2872815292339E-02
 YX      -0.7496879643402E-02
 YY       0.4648508499272E-02
 YZ      -0.2351659982500E-01
 ZX      -0.1369790747827E-01
 ZY       0.4022394570489E-01
 ZZ       0.6384967923361E-03

 dipole-quadrupole real (Cartesian):
 XXX      0.7728128307106E+02
 XXY     -0.6166925623093E+01
 XXZ     -0.2753365976222E+02
 XYY     -0.4379443510409E+01
 XYZ      0.1413307665722E+01
 XZZ      0.9065832650947E+01
 YXX     -0.1183029730152E+02
 YXY      0.2570416784023E+02
 YXZ      0.3537315621255E+01
 YYY      0.2361670452113E+02
 YYZ     -0.2125528390107E+02
 YZZ      0.4095312469644E+01
 ZXX     -0.6580862182697E+01
 ZXY      0.1343351966504E+01
 ZXZ      0.3926047296183E+02
 ZYY      0.2720643437417E+00
 ZYZ      0.1414817170906E+02
 ZZZ     -0.4119229110937E+02

 dipole-quadrupole imag (Cartesian):
 XXX      0.2719002333500E+00
 XXY     -0.3471489043874E-01
 XXZ     -0.7688709319335E-01
 XYY     -0.2834500147101E-01
 XYZ      0.2864617298324E-02
 XZZ      0.6057751579707E-01
 YXX     -0.5706206375250E-01
 YXY      0.6223562342181E-01
 YXZ      0.2000800668143E-01
 YYY      0.9463767045344E-01
 YYZ     -0.5850407706709E-01
 YZZ      0.1020709442411E-01
 ZXX     -0.3392216658163E-01
 ZXY      0.9368980222680E-03
 ZXZ      0.1452293843768E+00
 ZYY      0.7989590971379E-02
 ZYZ      0.6789351860254E-01
 ZZZ     -0.9544788830108E-01

 dipole-quadrupole (traceless):
 XXX      0.7493808850079E+02
 XXY     -0.9250388434639E+01
 XXZ     -0.4130048964333E+02
 XYY     -0.4755300137141E+02
 XYZ      0.2119961498583E+01
 XZZ     -0.2738508712938E+02
 YXX     -0.2568630579691E+02
 YXY      0.3855625176034E+02
 YXZ      0.5305973431882E+01
 YYY      0.2748419693707E+02
 YYZ     -0.3188292585161E+02
 YZZ     -0.1797891140164E+01
 ZXX      0.1387925120012E+02
 ZXY      0.2015027949756E+01
 ZXZ      0.5889070944274E+02
 ZYY      0.2415864098977E+02
 ZYZ      0.2122225756358E+02
 ZZZ     -0.3803789218989E+02

 roa end


 Electric Dipole Response Matrix (nonzero elements):

              1        2        3      
    1   41.0733  -5.1832  -2.9706
    2   -5.1832  44.0749   3.2599
    3   -2.9706   3.2599  41.4871
 
 Imaginary part:

              1        2        3      
    1    0.1116  -0.0298  -0.0111
    2   -0.0298   0.1290   0.0187
    3   -0.0111   0.0187   0.1226

 ------------------------------------------
 average:        42.21177 + I       0.12110


 DFT Linear Response polarizability / au 
 Frequency  =       0.0931960 / au
 Wavelength =     488.8981609 / nm
              X              Y              Z
 -----------------------------------------------
 X      41.0733392     -5.1832188     -2.9706053
 Y      -5.1832188     44.0748662      3.2599026
 Z      -2.9706053      3.2599026     41.4871046
 -----------------------------------------------
 Eigenvalues =      37.1113610     50.1890119     39.3349372
 Isotropic   =      42.2117700
 Anisotropic =       9.8957934
 -----------------------------------------------
 *************************

 DFT Linear Response IMAG polarizability / au 
 Frequency  =       0.0931960 / au
 Wavelength =     488.8981609 / nm
              X              Y              Z
 -----------------------------------------------
 X       0.1116405     -0.0298144     -0.0110693
 Y      -0.0298144      0.1290052      0.0187110
 Z      -0.0110693      0.0187110      0.1226412
 -----------------------------------------------
 Eigenvalues =       0.0890537      0.1629756      0.1112576
 Isotropic   =       0.1210956
 Anisotropic =       0.0536414
 -----------------------------------------------
 *************************

 Magnetic Dipole Response Matrix (nonzero elements):
 Optical rotation tensor Beta
 (Buckingham-Dunn version including dipole-quadrupole terms)

              1        2        3      
    1    2.6700  -0.4102   0.4088
    2   -0.4102  -1.5536  -1.7227
    3    0.4088  -1.7227  -1.0605
 
 Imaginary part:

              1        2        3      
    1    0.0674  -0.1421  -0.0308
    2    0.0804  -0.0499   0.2523
    3    0.1470  -0.4316  -0.0069

 ------------------------------------------
 average:         0.01862 + I       0.00357

 Principal components and PAS (Real part)
                 -3.04768
                  2.81066
                  0.29287
 ------------------------
 average:         0.01862

              1        2        3      
    1    0.0075   0.9717  -0.2361
    2    0.7563  -0.1599  -0.6343
    3    0.6541   0.1738   0.7361

 Chiral response tensor (Real part):

              1        2        3      
    1   -1.3071   0.2051  -0.2044
    2    0.2051   0.8047   0.8614
    3   -0.2044   0.8614   0.5582
 
 Principal components and PAS (Real part)
                  1.55177
                 -1.37741
                 -0.11851
 ------------------------
 average:         0.01862

              1        2        3      
    1    0.0075   0.9717  -0.2361
    2    0.7563  -0.1599  -0.6343
    3    0.6541   0.1738   0.7361
 Exiting AOResponse driver routine

 Task  times  cpu:      411.6s     wall:      416.8s
 
 
                                NWChem Input Module
                                -------------------
 
 
 Summary of allocated global arrays
-----------------------------------
  No active global arrays



                         GA Statistics for process    0
                         ------------------------------

       create   destroy   get      put      acc     scatter   gather  read&inc
calls: 3294     3294     7.59e+06 3.14e+06 7.36e+05 2694        0     1116     
number of processes/call 1.01e+00 1.03e+00 1.43e+00 0.00e+00 0.00e+00
bytes total:             1.63e+09 1.26e+08 1.76e+09 1.84e+02 0.00e+00 8.93e+03
bytes remote:            6.73e+08 3.29e+07 9.96e+08 0.00e+00 0.00e+00 0.00e+00
Max memory consumed for GA by this process: 11242192 bytes
 
MA_summarize_allocated_blocks: starting scan ...
MA_summarize_allocated_blocks: scan completed: 0 heap blocks, 0 stack blocks
MA usage statistics:

	allocation statistics:
					      heap	     stack
					      ----	     -----
	current number of blocks	         0	         0
	maximum number of blocks	        24	        52
	current total bytes		         0	         0
	maximum total bytes		   7519856	  48680616
	maximum total K-bytes		      7520	     48681
	maximum total M-bytes		         8	        49
 
 
                                     CITATION
                                     --------
                Please cite the following reference when publishing
                           results obtained with NWChem:
 
                 M. Valiev, E.J. Bylaska, N. Govind, K. Kowalski,
              T.P. Straatsma, H.J.J. van Dam, D. Wang, J. Nieplocha,
                        E. Apra, T.L. Windus, W.A. de Jong
                 "NWChem: a comprehensive and scalable open-source
                  solution for large scale molecular simulations"
                      Comput. Phys. Commun. 181, 1477 (2010)
                           doi:10.1016/j.cpc.2010.04.018
 
                                      AUTHORS
                                      -------
          E. Apra, E. J. Bylaska, W. A. de Jong, N. Govind, K. Kowalski,
       T. P. Straatsma, M. Valiev, H. J. J. van Dam, D. Wang, T. L. Windus,
        J. Hammond, J. Autschbach, K. Bhaskaran-Nair, J. Brabec, K. Lopata,
    S. A. Fischer, S. Krishnamoorthy, M. Jacquelin, W. Ma, M. Klemm, O. Villa,
      Y. Chen, V. Anisimov, F. Aquino, S. Hirata, M. T. Hackler, V. Konjkov,
            D. Mejia-Rodriguez, T. Risthaus, M. Malagoli, A. Marenich,
   A. Otero-de-la-Roza, J. Mullin, P. Nichols, R. Peverati, J. Pittner, Y. Zhao,
        P.-D. Fan, A. Fonari, M. J. Williamson, R. J. Harrison, J. R. Rehr,
      M. Dupuis, D. Silverstein, D. M. A. Smith, J. Nieplocha, V. Tipparaju,
    M. Krishnan, B. E. Van Kuiken, A. Vazquez-Mayagoitia, L. Jensen, M. Swart,
      Q. Wu, T. Van Voorhis, A. A. Auer, M. Nooijen, L. D. Crosby, E. Brown,
      G. Cisneros, G. I. Fann, H. Fruchtl, J. Garza, K. Hirao, R. A. Kendall,
      J. A. Nichols, K. Tsemekhman, K. Wolinski, J. Anchell, D. E. Bernholdt,
      P. Borowski, T. Clark, D. Clerc, H. Dachsel, M. J. O. Deegan, K. Dyall,
    D. Elwood, E. Glendening, M. Gutowski, A. C. Hess, J. Jaffe, B. G. Johnson,
     J. Ju, R. Kobayashi, R. Kutteh, Z. Lin, R. Littlefield, X. Long, B. Meng,
      T. Nakajima, S. Niu, L. Pollack, M. Rosing, K. Glaesemann, G. Sandrone,
      M. Stave, H. Taylor, G. Thomas, J. H. van Lenthe, A. T. Wong, Z. Zhang.

 Total times  cpu:      463.2s     wall:      468.9s
