HOSTNAME=node08
PBS_VERSION=TORQUE-4.2.10
SHELL=/bin/bash
HISTSIZE=1000
PBS_JOBNAME=lu
PBS_ENVIRONMENT=PBS_BATCH
PBS_O_WORKDIR=/home/duignan/utkis/lu
PBS_TASKNUM=1
USER=duignan
PBS_O_HOME=/home/duignan
PBS_GPUFILE=/var/lib/torque/aux//80594.mesogpu
PBS_MOMPORT=15003
PBS_O_QUEUE=default
MAIL=/var/spool/mail/duignan
PBS_O_LOGNAME=duignan
PATH=/home/duignan/codes/nwchem-6.6/bin/LINUX64:/home/duignan/codes/nbo6/bin:/home/duignan/codes/nbo6:/home/duignan/bin:/bin:/usr/bin:/usr/local/sbin:/usr/sbin
PBS_O_LANG=en_US.UTF-8
PBS_JOBCOOKIE=EE8E1A495327155A8A5F6B2665FD3D7F
PWD=/home/duignan
PBS_NODENUM=0
LANG=C
MODULEPATH=/usr/share/Modules/modulefiles:/etc/modulefiles:/usr/share/modulefiles:/usr/local/share/modulefiles
LOADEDMODULES=
PBS_NUM_NODES=1
PBS_O_SHELL=/bin/bash
PBS_JOBID=80594.meso
HISTCONTROL=ignoredups
ENVIRONMENT=BATCH
SHLVL=2
HOME=/home/duignan
PBS_O_HOST=meso
PBS_VNODENUM=0
LOGNAME=duignan
PBS_QUEUE=default
MODULESHOME=/usr/share/Modules
LESSOPEN=||/usr/bin/lesspipe.sh %s
PBS_MICFILE=/var/lib/torque/aux//80594.mesomic
PBS_O_MAIL=/var/spool/mail/duignan
PBS_NP=16
PBS_NUM_PPN=16
PBS_O_SERVER=meso
PBS_NODEFILE=/var/lib/torque/aux//80594.meso
PBS_O_PATH=/home/duignan/codes/nwchem-6.6/bin/LINUX64:/home/duignan/codes/nbo6/bin:/home/duignan/codes/nbo6:/home/duignan/bin:/usr/local/bin:/usr/bin:/usr/local/sbin:/usr/sbin
BASH_FUNC_module()=() {  eval `/usr/bin/modulecmd bash $*`
}
_=/var/lib/torque/mom_priv/jobs/80594.meso.SC
HOSTTYPE=x86_64-linux
VENDOR=unknown
OSTYPE=linux
MACHTYPE=x86_64
GROUP=Mesa
HOST=node08
ADFHOME=/home/erb/bin/adf/adf2016.102
ADFBIN=/home/erb/bin/adf/adf2016.102/bin
ADFRESOURCES=/home/erb/bin/adf/adf2016.102/atomicdata
SCMLICENSE=/home/erb/bin/adf/adf2016.102/license.txt
SCM_TMPDIR=/scratch/duignan
WARNING: ZORA/DZ basis will be used for Lu instead of the requested DZ basis
WARNING: ZORA/DZ basis will be used for Lu instead of the requested DZ basis

Create Lu   file=/home/erb/bin/adf/adf2016.102/atomicdata/ZORA/DZ/Lu
XC
 GGA PBE
End
exactdensity
End Input

 *******************************************************************************
 *                                                                             *
 *  -------------------------------------                                      *
 *   Amsterdam Density Functional  (ADF)         2016                          *
 *  -------------------------------------                                      *
 *                                               r52212 2016-04-25             *
 *                                                                             *
 *                                                                             *
 *                              =================                              *
 *                              |               |                              *
 *                              |     A D F     |                              *
 *                              |               |                              *
 *                              =================                              *
 *                                                                             *
 *                                                                             *
 *   Online information and documentation:  http://www.scm.com                 *
 *   E-mail:  support@scm.com   info@scm.com                                   *
 *                                                                             *
 *   Scientific publications using ADF results must be properly referenced     *
 *   See the User Manuals (or the web site) for recommended citations          *
 *   The terms and conditions of the End User License Agreement apply to       *
 *   the use of ADF, http://www.scm.com/Sales/LicAgreement.html                *
 *                                                                             *
 **********************  x86_64_linux_intel / intelmpi  ************************
 
 Licensed to: Dr. Enrique Batista / Los Alamos National Lab (LANL) / Los Alamos / NM / USA
 SCM User ID: u11537
  
 ADF 2016  RunTime: Feb15-2017 13:47:18  Nodes: 1  Procs: 1

 Temporary files are created in /scratch/duignan/kid_0.gs3YgY

 Lutetium (DZ, all electron)



 ===========================
 A T T A C H E D   F I L E S
 ===========================
  
 CREATE - Data File:    /home/erb/bin/adf/adf2016.102/atomicdata/ZORA/DZ/Lu
                        Lutetium (DZ, all electron)



 ===============================
 M O D E L   P A R A M E T E R S
 ===============================
  
 DENSITY FUNCTIONAL POTENTIAL (scf)
    LDA:                               PW92                                    == Not Default ==
    Gradient Corrections:              PBEc PBEx                               == Not Default ==

 SPIN  (restricted / unrestr.)
    Molecule:                          Restricted                               

 OTHER ASPECTS
    Relativistic Corrections:          ---                                      

    Nuclear Charge Density Model:      Point Charge Nuclei                                                                                                                                                                                     
    Core Treatment:                    Frozen Orbital(s)                        

    Hyperfine or Zeeman Interaction:   ---                                      



 =====================================
 S Y M M E T R Y ,   E L E C T R O N S
 =====================================
  
 Symmetry: ATOM

 Irreducible Representations, including subspecies
 -------------------------------------------------
 S
 P:x  P:y  P:z
 D:z2  D:x2-y2  D:xy  D:xz  D:yz
 F:z3  F:z  F:xyz  F:z2x  F:z2y  F:x  F:y


 Configuration of Valence Electrons
 ==================================

          Occupation Numbers
          -------------------------------------------------
 S        6*2
 P        4*6
 D        2*10 1
 F        14
          -------------------------------------------------

 Total:   71

 Net Charge: 0 (Nuclei minus Electrons)

 Preset values for MO occupations will be applied through SCF cycle no. 1000000
 Thereafter, the program will assign electrons to MOs that are spatially
 similar to the occupied MOs in a "reference" cycle ("KeepOrbitals").
 The reference cycle is always the PREVIOUS cycle: it will evolve with
 the SCF procedure.



 ================================
 (Slater-type)  F U N C T I O N S  ***  (Basis and Fit)  ***
 ================================
  

 Atom Type    1  (Lu)
 ==============

 Valence Basis Sets:  32
 -----------------------
   1 S  626.000000
   1 S  154.000000
   1 S   76.400000
   2 S   84.800000
   2 S   33.300000
   3 S   28.200000
   3 S   18.000000
   4 S   12.050000
   4 S    8.500000
   5 S    5.600000
   5 S    3.550000
   6 S    2.200000
   6 S    1.250000
   2 P  154.000000
   2 P   55.200000
   2 P   32.050000
   3 P   18.300000
   3 P   13.700000
   4 P   11.250000
   4 P    7.550000
   5 P    4.600000
   5 P    2.750000
   3 D   24.450000
   3 D   15.450000
   4 D   10.250000
   4 D    6.250000
   5 D    2.700000
   5 D    1.050000
   4 F   11.600000
   4 F    5.550000
   4 F    2.400000
   6 P    1.550000


 BAS: List of all Elementary Cartesian Basis Functions
 =====================================================

 The numbering in the list below (to the right of the function characteristics) is referred
 to in print-outs of MO eigenvectors and Mulliken populations in the BAS representation
 (as contrasted to the SFO representation).

 Notes:
 1. The functions are characterized by a polynomial prefactor (powers of x,y,z and r) and
    an exponential decay factor alpha.
 2. Since the basis sets are specific for an atom TYPE, the individual functions occur on
    all atoms of that type.
 3. The word 'Core' in the left margin signals that it is a Core Function (CF) : not a
    degree of freedom in the valence set, but only used to ensure orthogonalization of
    the other valence basis functions on the frozen Core Orbitals.


 (power of) X  Y  Z  R     Alpha  on Atom
            ==========     =====     ==========

 Lu                                   1
                                  ---------------------------------------------------------------------------
            0  0  0  0   626.000      1
            0  0  0  0   154.000      2
            0  0  0  0    76.400      3
            0  0  0  1    84.800      4
            0  0  0  1    33.300      5
            0  0  0  2    28.200      6
            0  0  0  2    18.000      7
            0  0  0  3    12.050      8
            0  0  0  3     8.500      9
            0  0  0  4     5.600     10
            0  0  0  4     3.550     11
            0  0  0  5     2.200     12
            0  0  0  5     1.250     13
            1  0  0  0   154.000     14
            0  1  0  0   154.000     15
            0  0  1  0   154.000     16
            1  0  0  0    55.200     17
            0  1  0  0    55.200     18
            0  0  1  0    55.200     19
            1  0  0  0    32.050     20
            0  1  0  0    32.050     21
            0  0  1  0    32.050     22
            1  0  0  1    18.300     23
            0  1  0  1    18.300     24
            0  0  1  1    18.300     25
            1  0  0  1    13.700     26
            0  1  0  1    13.700     27
            0  0  1  1    13.700     28
            1  0  0  2    11.250     29
            0  1  0  2    11.250     30
            0  0  1  2    11.250     31
            1  0  0  2     7.550     32
            0  1  0  2     7.550     33
            0  0  1  2     7.550     34
            1  0  0  3     4.600     35
            0  1  0  3     4.600     36
            0  0  1  3     4.600     37
            1  0  0  3     2.750     38
            0  1  0  3     2.750     39
            0  0  1  3     2.750     40
            2  0  0  0    24.450     41
            1  1  0  0    24.450     42
            1  0  1  0    24.450     43
            0  2  0  0    24.450     44
            0  1  1  0    24.450     45
            0  0  2  0    24.450     46
            2  0  0  0    15.450     47
            1  1  0  0    15.450     48
            1  0  1  0    15.450     49
            0  2  0  0    15.450     50
            0  1  1  0    15.450     51
            0  0  2  0    15.450     52
            2  0  0  1    10.250     53
            1  1  0  1    10.250     54
            1  0  1  1    10.250     55
            0  2  0  1    10.250     56
            0  1  1  1    10.250     57
            0  0  2  1    10.250     58
            2  0  0  1     6.250     59
            1  1  0  1     6.250     60
            1  0  1  1     6.250     61
            0  2  0  1     6.250     62
            0  1  1  1     6.250     63
            0  0  2  1     6.250     64
            2  0  0  2     2.700     65
            1  1  0  2     2.700     66
            1  0  1  2     2.700     67
            0  2  0  2     2.700     68
            0  1  1  2     2.700     69
            0  0  2  2     2.700     70
            2  0  0  2     1.050     71
            1  1  0  2     1.050     72
            1  0  1  2     1.050     73
            0  2  0  2     1.050     74
            0  1  1  2     1.050     75
            0  0  2  2     1.050     76
            3  0  0  0    11.600     77
            2  1  0  0    11.600     78
            2  0  1  0    11.600     79
            1  2  0  0    11.600     80
            1  1  1  0    11.600     81
            1  0  2  0    11.600     82
            0  3  0  0    11.600     83
            0  2  1  0    11.600     84
            0  1  2  0    11.600     85
            0  0  3  0    11.600     86
            3  0  0  0     5.550     87
            2  1  0  0     5.550     88
            2  0  1  0     5.550     89
            1  2  0  0     5.550     90
            1  1  1  0     5.550     91
            1  0  2  0     5.550     92
            0  3  0  0     5.550     93
            0  2  1  0     5.550     94
            0  1  2  0     5.550     95
            0  0  3  0     5.550     96
            3  0  0  0     2.400     97
            2  1  0  0     2.400     98
            2  0  1  0     2.400     99
            1  2  0  0     2.400    100
            1  1  1  0     2.400    101
            1  0  2  0     2.400    102
            0  3  0  0     2.400    103
            0  2  1  0     2.400    104
            0  1  2  0     2.400    105
            0  0  3  0     2.400    106
            1  0  0  4     1.550    107
            0  1  0  4     1.550    108
            0  0  1  4     1.550    109

 Total number of charge fitting functions (nprimf)       334
 Total number of Cartesian basis functions (naos)        109
 Total number of Cartesian core functions  (ncos)          0



 BAS: List of all Elementary Cartesian Basis Functions
 =====================================================

 The numbering in the list below (to the right of the function characteristics) is referred
 to in print-outs of MO eigenvectors and Mulliken populations in the BAS representation
 (as contrasted to the SFO representation).

 Notes:
 1. The functions are characterized by a polynomial prefactor (powers of x,y,z and r) and
    an exponential decay factor alpha.
 2. Since the basis sets are specific for an atom TYPE, the individual functions occur on
    all atoms of that type.
 3. The word 'Core' in the left margin signals that it is a Core Function (CF) : not a
    degree of freedom in the valence set, but only used to ensure orthogonalization of
    the other valence basis functions on the frozen Core Orbitals.


 (power of) X  Y  Z  R     Alpha  on Atom
            ==========     =====     ==========

 Lu                                   1
                                  ---------------------------------------------------------------------------
            0  0  0  0   626.000      1
            0  0  0  0   154.000      2
            0  0  0  0    76.400      3
            0  0  0  1    84.800      4
            0  0  0  1    33.300      5
            0  0  0  2    28.200      6
            0  0  0  2    18.000      7
            0  0  0  3    12.050      8
            0  0  0  3     8.500      9
            0  0  0  4     5.600     10
            0  0  0  4     3.550     11
            0  0  0  5     2.200     12
            0  0  0  5     1.250     13
            1  0  0  0   154.000     14
            0  1  0  0   154.000     15
            0  0  1  0   154.000     16
            1  0  0  0    55.200     17
            0  1  0  0    55.200     18
            0  0  1  0    55.200     19
            1  0  0  0    32.050     20
            0  1  0  0    32.050     21
            0  0  1  0    32.050     22
            1  0  0  1    18.300     23
            0  1  0  1    18.300     24
            0  0  1  1    18.300     25
            1  0  0  1    13.700     26
            0  1  0  1    13.700     27
            0  0  1  1    13.700     28
            1  0  0  2    11.250     29
            0  1  0  2    11.250     30
            0  0  1  2    11.250     31
            1  0  0  2     7.550     32
            0  1  0  2     7.550     33
            0  0  1  2     7.550     34
            1  0  0  3     4.600     35
            0  1  0  3     4.600     36
            0  0  1  3     4.600     37
            1  0  0  3     2.750     38
            0  1  0  3     2.750     39
            0  0  1  3     2.750     40
            2  0  0  0    24.450     41
            1  1  0  0    24.450     42
            1  0  1  0    24.450     43
            0  2  0  0    24.450     44
            0  1  1  0    24.450     45
            0  0  2  0    24.450     46
            2  0  0  0    15.450     47
            1  1  0  0    15.450     48
            1  0  1  0    15.450     49
            0  2  0  0    15.450     50
            0  1  1  0    15.450     51
            0  0  2  0    15.450     52
            2  0  0  1    10.250     53
            1  1  0  1    10.250     54
            1  0  1  1    10.250     55
            0  2  0  1    10.250     56
            0  1  1  1    10.250     57
            0  0  2  1    10.250     58
            2  0  0  1     6.250     59
            1  1  0  1     6.250     60
            1  0  1  1     6.250     61
            0  2  0  1     6.250     62
            0  1  1  1     6.250     63
            0  0  2  1     6.250     64
            2  0  0  2     2.700     65
            1  1  0  2     2.700     66
            1  0  1  2     2.700     67
            0  2  0  2     2.700     68
            0  1  1  2     2.700     69
            0  0  2  2     2.700     70
            2  0  0  2     1.050     71
            1  1  0  2     1.050     72
            1  0  1  2     1.050     73
            0  2  0  2     1.050     74
            0  1  1  2     1.050     75
            0  0  2  2     1.050     76
            3  0  0  0    11.600     77
            2  1  0  0    11.600     78
            2  0  1  0    11.600     79
            1  2  0  0    11.600     80
            1  1  1  0    11.600     81
            1  0  2  0    11.600     82
            0  3  0  0    11.600     83
            0  2  1  0    11.600     84
            0  1  2  0    11.600     85
            0  0  3  0    11.600     86
            3  0  0  0     5.550     87
            2  1  0  0     5.550     88
            2  0  1  0     5.550     89
            1  2  0  0     5.550     90
            1  1  1  0     5.550     91
            1  0  2  0     5.550     92
            0  3  0  0     5.550     93
            0  2  1  0     5.550     94
            0  1  2  0     5.550     95
            0  0  3  0     5.550     96
            3  0  0  0     2.400     97
            2  1  0  0     2.400     98
            2  0  1  0     2.400     99
            1  2  0  0     2.400    100
            1  1  1  0     2.400    101
            1  0  2  0     2.400    102
            0  3  0  0     2.400    103
            0  2  1  0     2.400    104
            0  1  2  0     2.400    105
            0  0  3  0     2.400    106
            1  0  0  4     1.550    107
            0  1  0  4     1.550    108
            0  0  1  4     1.550    109
1
 ***************************************************************************************************



                                              ***********************
                                              *  T E C H N I C A L  *
                                              ***********************
  



 =============================================================
 P A R A L L E L I Z A T I O N  and  V E C T O R I Z A T I O N
 =============================================================
  
 Nr of parallel processes:                                1
 Maximum vector length in NumInt loops:                 128

 IO buffersize (Mb):                                     64.000000



 =====================
 S C F   U P D A T E S
 =====================
  
 Max. nr. of cycles:                               300
 Convergence criterion:                              0.0000000100
   secondary criterion:                              0.0000000100

 Mix parameter (when DIIS does not apply):           0.2000000000
 Special mix parameter for the first cycle:          1.0000000000
 Mixed ADIIS+DIIS will be used
    Max number of expansion vectors:                10
    Pure ADIIS when Max([F,P]) is above              0.1000000000
    Pure DIIS when Max([F,P]) is below               0.0010000000
 Automatic ElectronSmearing (in case of problematic SCF convergence) disabled



 =================
 P R E C I S I O N  ***  (General: NumInt, NeglectFunctionTails, ...)  ***
 =================
  

 NumInt:           Target precision:                12.0000000000
 -------           Initial precision:               10.0000000000
                   Min. precision (optimization):   10.0000000000

 Neglect Functions:          Basis functions:        0.1000000000E-13
 ------------------          Fit functions:          0.1000000000E-13



 ===========================
 L I N E A R   S C A L I N G
 ===========================
  

 Cut-off radii density fit:                        0.1000000000E-97
 Overlap cut-off criterion AO matrix elements:     0.1000000000E-97
 Cut-offs for Coulomb potential and fitted density:0.1000000000E-97
 Cut-off criterion for Coulomb multipole terms:    0.1000000000E-97
 Progressive Convergence parameter:                 0.000000000    
1
 ***************************************************************************************************



                                            ***************************
                                            *  C O M P U T A T I O N  *
                                            ***************************
  

 Number of elements of the density matrix on this node (used, total):      5995      5995



 ===========================================
 Numerical Integration : Fuzzy Cells (Becke)
 ===========================================
  
 Becke grid quality: VERYGOOD       
  
 Lebedev angular grid order:             min:  13 max:  41
 Nr. of radial points:                   min: 187 max: 187

 Total nr. of points:        187
 Nr. of blocks:                2
 Block length:                94
 Nr. of dummy points:          1


 Test of Precision of the Numerical Integration Grid
 ===================================================

 Integral of the Total Core Density:                   0.00000000000000



 ========================
 Density Fitting (zlmFit)
 ========================
  
 ZlmFit Fit Quality: VERYGOOD       
  
 Max L-expansion:                        min:   0 max:   0
 Nr. of radial interpolation points:     min: 510 max: 510



 =====
 S C F  ***  ScaSCF  ***
 =====
  

 CYCLE    1
 SCF Error: norm([F,P])=      0.000000000000, max([F,P])=      0.000000000000
 orbitals (Q,E):
 ---------------
 S :1...13           ( 2.00 -2520.4801)  ( 2.00  -629.8787)  ( 2.00  -279.1475)  ( 2.00  -155.2665)
                     ( 2.00   -96.4678)  ( 2.00   -61.5283)  ( 0.00   -38.5451)  ( 0.00   -22.7010)
                     ( 0.00   -12.6191)  ( 0.00    28.0163)  ( 0.00  2323.8425)  ( 0.00 19405.1364)
                     ( 0.00258827.1169)
 P :1...10           ( 6.00  -629.9757)  ( 6.00  -279.8829)  ( 6.00  -157.4914)  ( 6.00  -100.5984)
                     ( 0.00   -69.3935)  ( 0.00   -47.8998)  ( 0.00   -29.9576)  ( 0.00   -16.1248)
                     ( 0.00   544.4560)  ( 0.00 10505.0199)
 D :1...6            (10.00  -280.0145)  (10.00  -155.8117)  ( 1.00   -98.0635)  ( 0.00   -66.2750)
                     ( 0.00   -34.3320)  ( 0.00   -13.9651)
 F :1...3            (14.00  -141.2526)  ( 0.00   -74.2991)  ( 0.00   -35.1576)

 CYCLE    2
  SDIIS (wt  0.000):  1.0000 -0.0000
 A-DIIS (wt  1.000):  0.0000  1.0000
  DIIS coefficients:  0.0000  1.0000
 SCF Error: norm([F,P])=    414.283878115871, max([F,P])=    113.486536676363
 orbitals (Q,E):
 ---------------
 S :1...7            ( 2.00 -2040.1195)  ( 2.00  -264.0288)  ( 2.00   -26.8677)  ( 2.00    -0.1259)
                     ( 2.00     0.0914)  ( 2.00     0.6417)  ( 0.00     2.9739)
 P :1...5            ( 6.00  -244.4297)  ( 6.00   -18.5704)  ( 6.00     0.1035)  ( 6.00     0.5937)
                     ( 0.00     2.3279)
 D :1...4            (10.00    -2.4061)  (10.00     0.1737)  ( 1.00     1.1942)  ( 0.00     7.9153)
 F :1...2            (14.00     2.2475)  ( 0.00    12.0254)

 CYCLE    3
  SDIIS (wt  0.000):  0.1846  0.8154
 A-DIIS (wt  1.000):  0.4052  0.5948
  DIIS coefficients:  0.4052  0.5948
 SCF Error: norm([F,P])=    191.591335275760, max([F,P])=     44.680659014823
 orbitals (Q,E):
 ---------------
 S :1...7            ( 2.00 -2156.9953)  ( 2.00  -361.8992)  ( 2.00   -93.6722)  ( 2.00   -30.5093)
                     ( 2.00   -11.5865)  ( 2.00    -4.0741)  ( 0.00    -1.0652)
 P :1...5            ( 6.00  -346.1441)  ( 6.00   -86.6238)  ( 6.00   -27.5870)  ( 6.00   -10.2673)
                     ( 0.00    -3.3350)
 D :1...4            (10.00   -73.5297)  (10.00   -22.2718)  ( 1.00    -7.5886)  ( 0.00    -2.4624)
 F :1...2            (14.00   -15.2474)  ( 0.00    -4.6883)

 CYCLE    4
  SDIIS (wt  0.000):  0.0013  0.0289  0.9698
 A-DIIS (wt  1.000):  0.0000  0.0067  0.9933
  DIIS coefficients:  0.0000  0.0067  0.9933
 SCF Error: norm([F,P])=     37.895802931249, max([F,P])=      6.903126108424
 orbitals (Q,E):
 ---------------
 S :1...7            ( 2.00 -2134.9433)  ( 2.00  -336.1014)  ( 2.00   -66.4077)  ( 2.00    -7.7222)
                     ( 2.00    -0.1506)  ( 2.00     0.0951)  ( 0.00     0.8330)
 P :1...5            ( 6.00  -321.0308)  ( 6.00   -59.3802)  ( 6.00    -5.0652)  ( 6.00     0.0559)
                     ( 0.00     0.5012)
 D :1...4            (10.00   -46.1100)  (10.00    -0.4752)  ( 1.00     0.1575)  ( 0.00     1.2232)
 F :1...2            (14.00     1.8378)  ( 0.00     5.9608)

 CYCLE    5
  SDIIS (wt  0.000):  0.0025 -0.0027  0.6815  0.3187
 A-DIIS (wt  1.000):  0.0000  0.0000  0.7407  0.2593
  DIIS coefficients:  0.0000  0.0000  0.7407  0.2593
 SCF Error: norm([F,P])=     60.647771164795, max([F,P])=     10.249654407885
 orbitals (Q,E):
 ---------------
 S :1...7            ( 2.00 -2146.6481)  ( 2.00  -347.4671)  ( 2.00   -76.6551)  ( 2.00   -14.5585)
                     ( 2.00    -1.9918)  ( 2.00    -0.1321)  ( 0.00     0.1429)
 P :1...5            ( 6.00  -332.4762)  ( 6.00   -69.7145)  ( 6.00   -11.7372)  ( 6.00    -1.2267)
                     ( 0.00    -0.0020)
 D :1...4            (10.00   -56.6830)  (10.00    -6.6316)  ( 1.00    -0.1332)  ( 0.00     0.1423)
 F :1...2            (14.00    -0.2285)  ( 0.00     1.2182)

 CYCLE    6
  SDIIS (wt  0.000):  0.0026 -0.0003  0.2423 -0.0656  0.8209
 A-DIIS (wt  1.000):  0.0000  0.0000  0.0413  0.0000  0.9587
  DIIS coefficients:  0.0000  0.0000  0.0413  0.0000  0.9587
 SCF Error: norm([F,P])=     15.125014676796, max([F,P])=      3.501791379733
 orbitals (Q,E):
 ---------------
 S :1...7            ( 2.00 -2153.4033)  ( 2.00  -354.1391)  ( 2.00   -82.4754)  ( 2.00   -17.4553)
                     ( 2.00    -2.3802)  ( 2.00    -0.1645)  ( 0.00     0.1126)
 P :1...5            ( 6.00  -339.1724)  ( 6.00   -75.6151)  ( 6.00   -14.5793)  ( 6.00    -1.5119)
                     ( 0.00    -0.0374)
 D :1...4            (10.00   -62.8061)  (10.00    -9.3654)  ( 1.00    -0.1732)  ( 0.00     0.1048)
 F :1...2            (14.00    -2.5602)  ( 0.00     0.9819)

 CYCLE    7
  SDIIS (wt  0.000): -0.0016  0.0014 -0.0339 -0.0151  0.6005  0.4486
 A-DIIS (wt  1.000):  0.0000  0.0000  0.0000  0.0000  0.6275  0.3725
  DIIS coefficients:  0.0000  0.0000  0.0000  0.0000  0.6275  0.3725
 SCF Error: norm([F,P])=     21.528931754958, max([F,P])=      3.972953914332
 orbitals (Q,E):
 ---------------
 S :1...7            ( 2.00 -2149.1720)  ( 2.00  -350.1243)  ( 2.00   -79.0630)  ( 2.00   -15.4705)
                     ( 2.00    -1.8876)  ( 2.00    -0.1295)  ( 0.00     0.1572)
 P :1...5            ( 6.00  -335.1081)  ( 6.00   -72.1554)  ( 6.00   -12.6181)  ( 6.00    -1.1077)
                     ( 0.00    -0.0125)
 D :1...4            (10.00   -59.2211)  (10.00    -7.4493)  ( 1.00    -0.0502)  ( 0.00     0.1613)
 F :1...2            (14.00    -0.7928)  ( 0.00     1.1915)

 CYCLE    8
  SDIIS (wt  0.000):  0.0001  0.0000 -0.0097 -0.0002  0.1552 -0.0298  0.8843
 A-DIIS (wt  1.000):  0.0000  0.0000  0.0000  0.0000  0.0804  0.0000  0.9196
  DIIS coefficients:  0.0000  0.0000  0.0000  0.0000  0.0804  0.0000  0.9196
 SCF Error: norm([F,P])=      3.666938183005, max([F,P])=      0.821842960891
 orbitals (Q,E):
 ---------------
 S :1...7            ( 2.00 -2147.8959)  ( 2.00  -348.8549)  ( 2.00   -77.8950)  ( 2.00   -14.7379)
                     ( 2.00    -1.7921)  ( 2.00    -0.1546)  ( 0.00     0.1410)
 P :1...5            ( 6.00  -333.8353)  ( 6.00   -70.9783)  ( 6.00   -11.8984)  ( 6.00    -1.0515)
                     ( 0.00    -0.0373)
 D :1...4            (10.00   -58.0180)  (10.00    -6.7590)  ( 1.00    -0.0763)  ( 0.00     0.1470)
 F :1...2            (14.00    -0.2365)  ( 0.00     1.2460)

 CYCLE    9
  SDIIS (wt  0.000):  0.0001 -0.0002 -0.0044  0.0000 -0.0232 -0.0386  0.7069  0.3594
 A-DIIS (wt  1.000):  0.0000  0.0000  0.0000  0.0000  0.0000  0.0000  0.6605  0.3395
  DIIS coefficients:  0.0000  0.0000  0.0000  0.0000  0.0000  0.0000  0.6605  0.3395
 SCF Error: norm([F,P])=      5.647296660870, max([F,P])=      1.432376183106
 orbitals (Q,E):
 ---------------
 S :1...7            ( 2.00 -2148.5942)  ( 2.00  -349.5341)  ( 2.00   -78.5108)  ( 2.00   -15.1444)
                     ( 2.00    -1.9156)  ( 2.00    -0.1679)  ( 0.00     0.1239)
 P :1...5            ( 6.00  -334.5187)  ( 6.00   -71.5994)  ( 6.00   -12.2993)  ( 6.00    -1.1528)
                     ( 0.00    -0.0484)
 D :1...4            (10.00   -58.6535)  (10.00    -7.1468)  ( 1.00    -0.1081)  ( 0.00     0.1216)
 F :1...2            (14.00    -0.5565)  ( 0.00     1.1529)

 CYCLE   10
  SDIIS (wt  0.000):  0.0000 -0.0000 -0.0011  0.0001 -0.0353  0.0067  0.1208  0.0411  0.8676
 A-DIIS (wt  1.000):  0.0000  0.0000  0.0000  0.0000  0.0000  0.0000  0.0505  0.0000  0.9495
  DIIS coefficients:  0.0000  0.0000  0.0000  0.0000  0.0000  0.0000  0.0505  0.0000  0.9495
 SCF Error: norm([F,P])=      0.980275704940, max([F,P])=      0.213900127185
 orbitals (Q,E):
 ---------------
 S :1...7            ( 2.00 -2148.9868)  ( 2.00  -349.9109)  ( 2.00   -78.8297)  ( 2.00   -15.2988)
                     ( 2.00    -1.9116)  ( 2.00    -0.1552)  ( 0.00     0.1345)
 P :1...5            ( 6.00  -334.8993)  ( 6.00   -71.9231)  ( 6.00   -12.4502)  ( 6.00    -1.1424)
                     ( 0.00    -0.0365)
 D :1...4            (10.00   -58.9902)  (10.00    -7.2902)  ( 1.00    -0.0899)  ( 0.00     0.1335)
 F :1...2            (14.00    -0.6676)  ( 0.00     1.1571)

 CYCLE   11
  SDIIS (wt  0.000):  0.0000  0.0000  0.0001  0.0000 -0.0103 -0.0079  0.0159  0.0695  0.4292  0.5034
 A-DIIS (wt  1.000):  0.0000  0.0000  0.0000  0.0000  0.0000  0.0000  0.0000  0.0000  0.6698  0.3302
  DIIS coefficients:  0.0000  0.0000  0.0000  0.0000  0.0000  0.0000  0.0000  0.0000  0.6698  0.3302
 SCF Error: norm([F,P])=      1.504274920609, max([F,P])=      0.334628355768
 orbitals (Q,E):
 ---------------
 S :1...7            ( 2.00 -2148.7673)  ( 2.00  -349.7012)  ( 2.00   -78.6483)  ( 2.00   -15.1909)
                     ( 2.00    -1.8861)  ( 2.00    -0.1536)  ( 0.00     0.1370)
 P :1...5            ( 6.00  -334.6873)  ( 6.00   -71.7395)  ( 6.00   -12.3439)  ( 6.00    -1.1222)
                     ( 0.00    -0.0352)
 D :1...4            (10.00   -58.8006)  (10.00    -7.1876)  ( 1.00    -0.0849)  ( 0.00     0.1373)
 F :1...2            (14.00    -0.5812)  ( 0.00     1.1740)

 CYCLE   12
  SDIIS (wt  0.426):  0.0000 -0.0000  0.0000 -0.0024 -0.0002  0.0063  0.0005  0.2776  0.0202  0.6980
 A-DIIS (wt  0.574):  0.0000  0.0000  0.0000  0.0000  0.0000  0.0000  0.0000  0.0745  0.0000  0.9255
  DIIS coefficients:  0.0000 -0.0000  0.0000 -0.0010 -0.0001  0.0027  0.0002  0.1609  0.0086  0.8287
 SCF Error: norm([F,P])=      0.272516255025, max([F,P])=      0.057869735784
 orbitals (Q,E):
 ---------------
 S :1...7            ( 2.00 -2148.6952)  ( 2.00  -349.6327)  ( 2.00   -78.5923)  ( 2.00   -15.1678)
                     ( 2.00    -1.8933)  ( 2.00    -0.1579)  ( 0.00     0.1331)
 P :1...5            ( 6.00  -334.6179)  ( 6.00   -71.6824)  ( 6.00   -12.3215)  ( 6.00    -1.1302)
                     ( 0.00    -0.0392)
 D :1...4            (10.00   -58.7408)  (10.00    -7.1666)  ( 1.00    -0.0917)  ( 0.00     0.1326)
 F :1...2            (14.00    -0.5666)  ( 0.00     1.1686)

 CYCLE   13
  SDIIS (wt  0.529):  0.0000  0.0000 -0.0002 -0.0001 -0.0004 -0.0044  0.0308  0.0775  0.1628  0.7341
 A-DIIS (wt  0.471):  0.0000  0.0000  0.0000  0.0000  0.0000  0.0000  0.0000  0.0000  0.4172  0.5828
  DIIS coefficients:  0.0000  0.0000 -0.0001 -0.0001 -0.0002 -0.0023  0.0163  0.0410  0.2825  0.6629
 SCF Error: norm([F,P])=      0.209391230691, max([F,P])=      0.047583125626
 orbitals (Q,E):
 ---------------
 S :1...7            ( 2.00 -2148.7334)  ( 2.00  -349.6692)  ( 2.00   -78.6237)  ( 2.00   -15.1858)
                     ( 2.00    -1.8965)  ( 2.00    -0.1578)  ( 0.00     0.1331)
 P :1...5            ( 6.00  -334.6548)  ( 6.00   -71.7143)  ( 6.00   -12.3392)  ( 6.00    -1.1325)
                     ( 0.00    -0.0390)
 D :1...4            (10.00   -58.7738)  (10.00    -7.1837)  ( 1.00    -0.0919)  ( 0.00     0.1324)
 F :1...2            (14.00    -0.5806)  ( 0.00     1.1665)

 CYCLE   14
  SDIIS (wt  0.961): -0.0000 -0.0000  0.0000 -0.0009  0.0007  0.0085 -0.0143  0.1469  0.0873  0.7718
 A-DIIS (wt  0.039):  0.0000  0.0000  0.0000  0.0000  0.0000  0.0000  0.0000  0.0000  0.0000  1.0000
  DIIS coefficients: -0.0000 -0.0000  0.0000 -0.0009  0.0007  0.0082 -0.0137  0.1411  0.0839  0.7808
 SCF Error: norm([F,P])=      0.019222639921, max([F,P])=      0.004901218690
 orbitals (Q,E):
 ---------------
 S :1...7            ( 2.00 -2148.7291)  ( 2.00  -349.6650)  ( 2.00   -78.6196)  ( 2.00   -15.1823)
                     ( 2.00    -1.8945)  ( 2.00    -0.1573)  ( 0.00     0.1335)
 P :1...5            ( 6.00  -334.6505)  ( 6.00   -71.7102)  ( 6.00   -12.3357)  ( 6.00    -1.1307)
                     ( 0.00    -0.0386)
 D :1...4            (10.00   -58.7696)  (10.00    -7.1802)  ( 1.00    -0.0910)  ( 0.00     0.1330)
 F :1...2            (14.00    -0.5774)  ( 0.00     1.1679)

 CYCLE   15
  SDIIS (wt  1.000):  0.0000 -0.0000  0.0001 -0.0000 -0.0007  0.0008 -0.0091 -0.0104  1.0193
  DIIS coefficients:  0.0000 -0.0000  0.0001 -0.0000 -0.0007  0.0008 -0.0091 -0.0104  1.0193
 SCF Error: norm([F,P])=      0.002008832357, max([F,P])=      0.000484480442
 orbitals (Q,E):
 ---------------
 S :1...7            ( 2.00 -2148.7294)  ( 2.00  -349.6653)  ( 2.00   -78.6200)  ( 2.00   -15.1825)
                     ( 2.00    -1.8946)  ( 2.00    -0.1573)  ( 0.00     0.1335)
 P :1...5            ( 6.00  -334.6509)  ( 6.00   -71.7105)  ( 6.00   -12.3359)  ( 6.00    -1.1308)
                     ( 0.00    -0.0386)
 D :1...4            (10.00   -58.7700)  (10.00    -7.1805)  ( 1.00    -0.0910)  ( 0.00     0.1330)
 F :1...2            (14.00    -0.5776)  ( 0.00     1.1678)

 CYCLE   16
  SDIIS (wt  1.000): -0.0000 -0.0000 -0.0000  0.0000  0.0002 -0.0002  0.0075  0.1309  0.8616
  DIIS coefficients: -0.0000 -0.0000 -0.0000  0.0000  0.0002 -0.0002  0.0075  0.1309  0.8616
 SCF Error: norm([F,P])=      0.000001254706, max([F,P])=      0.000000274561
 orbitals (Q,E):
 ---------------
 S :1...7            ( 2.00 -2148.7295)  ( 2.00  -349.6653)  ( 2.00   -78.6200)  ( 2.00   -15.1825)
                     ( 2.00    -1.8946)  ( 2.00    -0.1573)  ( 0.00     0.1335)
 P :1...5            ( 6.00  -334.6509)  ( 6.00   -71.7105)  ( 6.00   -12.3359)  ( 6.00    -1.1308)
                     ( 0.00    -0.0386)
 D :1...4            (10.00   -58.7700)  (10.00    -7.1805)  ( 1.00    -0.0910)  ( 0.00     0.1330)
 F :1...2            (14.00    -0.5776)  ( 0.00     1.1678)

 CYCLE   17
  SDIIS (wt  1.000): -0.0000  0.0000 -0.0001 -0.0024  0.0070  0.9955
  DIIS coefficients: -0.0000  0.0000 -0.0001 -0.0024  0.0070  0.9955
 SCF Error: norm([F,P])=      0.000000032530, max([F,P])=      0.000000007198
 orbitals (Q,E):
 ---------------
 S :1...7            ( 2.00 -2148.7295)  ( 2.00  -349.6653)  ( 2.00   -78.6200)  ( 2.00   -15.1825)
                     ( 2.00    -1.8946)  ( 2.00    -0.1573)  ( 0.00     0.1335)
 P :1...5            ( 6.00  -334.6509)  ( 6.00   -71.7105)  ( 6.00   -12.3359)  ( 6.00    -1.1308)
                     ( 0.00    -0.0386)
 D :1...4            (10.00   -58.7700)  (10.00    -7.1805)  ( 1.00    -0.0910)  ( 0.00     0.1330)
 F :1...2            (14.00    -0.5776)  ( 0.00     1.1678)

 SCF CONVERGED

 CYCLE   18
1
 ***************************************************************************************************



                                                *******************
                                                *  R E S U L T S  *
                                                *******************
  
 *** Setting up for NEW gradients in Focky
 *** Using EXACT density in Focky

 Orbital Energies, per Irrep and Spin:
 ======================================
                        Occup              E (au)              E (eV)       Diff (eV) with prev. cycle
                        -----      --------------------        ------       --------------------------
 S
               1        2.000     -0.21487294502846E+04    -58469.903               2.99E-08
               2        2.000     -0.34966532390858E+03     -9514.878               3.05E-08
               3        2.000     -0.78619952502183E+02     -2139.358               3.22E-08
               4        2.000     -0.15182542237954E+02      -413.138               3.06E-08
               5        2.000     -0.18945944816414E+01       -51.555               3.10E-08
               6        2.000     -0.15731591869059E+00        -4.281               1.17E-08
               7        0.000      0.13352735611592E+00         3.633
               8        0.000      0.21157346228885E+01        57.572
               9        0.000      0.19741338526062E+02       537.189
              10        0.000      0.24887793403852E+03      6772.313
              11        0.000      0.26552530693158E+04     72253.112
              12        0.000      0.19778161712284E+05    538191.164
              13        0.000      0.25920201591654E+06   7053245.725
 P
               1        6.000     -0.33465089925744E+03     -9106.314               3.01E-08
               2        6.000     -0.71710506956116E+02     -1951.342               3.18E-08
               3        6.000     -0.12335930632372E+02      -335.678               3.06E-08
               4        6.000     -0.11307982154868E+01       -30.771               2.94E-08
               5        0.000     -0.38628445528104E-01        -1.051
               6        0.000      0.96962331803110E+00        26.385
               7        0.000      0.10292624222790E+02       280.077
               8        0.000      0.72835859557290E+02      1981.965
               9        0.000      0.83875662798366E+03     22823.729
              10        0.000      0.10875639481050E+05    295941.208
 D
               1       10.000     -0.58769958625723E+02     -1599.212               3.17E-08
               2       10.000     -0.71804557453686E+01      -195.390               3.06E-08
               3        1.000     -0.91028565572358E-01        -2.477               1.82E-08
               4        0.000      0.13301248430410E+00         3.619
               5        0.000      0.56934749702382E+01       154.927
               6        0.000      0.88652801670854E+02      2412.365
 F
               1       14.000     -0.57764103826332E+00       -15.718               3.08E-08
               2        0.000      0.11678080405447E+01        31.778
               3        0.000      0.98406992010589E+01       267.779


 Partially Occupied:
               3 D                -0.91028565572358E-01
  
 HOMO :        6 S                -0.15731591869059E+00
 LUMO :        5 P                -0.38628445528104E-01
  


 Orbital Energies, all Irreps
 ========================================

 Irrep        no.  (spin)   Occup              E (au)                E (eV)
 ---------------------------------------------------------------------------
 S             1             2.00       -0.21487294502846E+04    -58469.9033
 S             2             2.00       -0.34966532390858E+03     -9514.8776
 P             1             6.00       -0.33465089925744E+03     -9106.3143
 S             3             2.00       -0.78619952502183E+02     -2139.3578
 P             2             6.00       -0.71710506956116E+02     -1951.3422
 D             1            10.00       -0.58769958625723E+02     -1599.2119
 S             4             2.00       -0.15182542237954E+02      -413.1380
 P             3             6.00       -0.12335930632372E+02      -335.6778
 D             2            10.00       -0.71804557453686E+01      -195.3901
 S             5             2.00       -0.18945944816414E+01       -51.5545
 P             4             6.00       -0.11307982154868E+01       -30.7706
 F             1            14.00       -0.57764103826332E+00       -15.7184
 S             6             2.00       -0.15731591869059E+00        -4.2808
 D             3             1.00       -0.91028565572358E-01        -2.4770
 P             5             0.00       -0.38628445528104E-01        -1.0511
 D             4             0.00        0.13301248430410E+00         3.6195
 S             7             0.00        0.13352735611592E+00         3.6335
 P             6             0.00        0.96962331803110E+00        26.3848
 F             2             0.00        0.11678080405447E+01        31.7777
 S             8             0.00        0.21157346228885E+01        57.5721
 D             5             0.00        0.56934749702382E+01       154.9273
 F             3             0.00        0.98406992010589E+01       267.7790
 P             7             0.00        0.10292624222790E+02       280.0766
 S             9             0.00        0.19741338526062E+02       537.1892
 P             8             0.00        0.72835859557290E+02      1981.9646
 D             6             0.00        0.88652801670854E+02      2412.3655
 S            10             0.00        0.24887793403852E+03      6772.3132
 P             9             0.00        0.83875662798366E+03     22823.7291
 S            11             0.00        0.26552530693158E+04     72253.1123
 P            10             0.00        0.10875639481050E+05    295941.2079
 S            12             0.00        0.19778161712284E+05    538191.1635
 S            13             0.00        0.25920201591654E+06   7053245.7247


 All Electron Calculation, thus no Orbital Energies of the Core Orbitals are calculated



 =======================================
 M U L L I K E N   P O P U L A T I O N S
 =======================================
  
 The survey below gives for each atom:
 a) the total charge (Z minus electrons)
 b) the net spin polarization (nr of electrons spin-A minus spin-B)
 c) for each spin the atomic electron valence density (integrated) per L-value.

 Atom              Charge    Spin density          S         P         D         F
 ----              ------    ------------       ------    ------    ------    ------
 1 Lu             -0.0000                      12.0000   24.0000   21.0000   14.0000

 Populations of individual BAS functions
 ----------------------------------------
 1 Lu          -0.0003  0.0728  1.6425  0.1904  1.6357  0.2071  2.2196  0.6728  1.3648  1.0764
                0.9472  0.9872  0.9837 -0.0002 -0.0002 -0.0002  0.0928  0.0928  0.0928  1.8819
                1.8819  1.8819  1.3537  1.3537  1.3537  0.5916  0.5916  0.5916  1.1951  1.1951
                1.1951  0.9275  0.9275  0.9275  1.2873  1.2873  1.2873  0.6705  0.6705  0.6705
                0.4937  0.7405  0.7405  0.4937  0.7405  0.4937  0.8471  1.2706  1.2706  0.8471
                1.2706  0.8471  0.8115  1.2173  1.2173  0.8115  1.2173  0.8115  0.5171  0.7757
                0.7757  0.5171  0.7757  0.5171  0.0852  0.1277  0.1277  0.0852  0.1277  0.0852
                0.0455  0.0682  0.0682  0.0455  0.0682  0.0455  0.2863  0.5726  0.5726  0.5726
                0.7158  0.5726  0.2863  0.5726  0.5726  0.2863  0.4478  0.8956  0.8956  0.8956
                1.1195  0.8956  0.4478  0.8956  0.8956  0.4478  0.0659  0.1317  0.1317  0.1317
                0.1647  0.1317  0.0659  0.1317  0.1317  0.0659 -0.0003 -0.0003 -0.0003

 Gross Charges per Atom (Z minus electrons)
 ==========================================
            -0.0000
 Net Total: -0.00000000



 =======================================================================
 Electrostatic potential at the Nuclei due to electrons and other nuclei
 =======================================================================
  
         Atom                  Potential
         ----                  ---------
     1)   Lu                464.57620920
 
 
 ========================
 No memory problems found
 ========================
 
 Maximum number of active allocate calls:         446
 
 *******************************************************************************

                             A D F   E X I T
 NORMAL TERMINATION



 =================
 Timing Statistics
 =================
  
 Total Used :                     CPU=        5.91      System=        0.10     Elapsed=        6.08

 Calls  Section                     ( Mean, Percentage )
 ---------------------------------------------------------------------------------------------------
     3  ><      ................      0.00    0.02             0.00    0.00             0.00    0.02
     1  INIT    ................      0.02    0.33             0.04   44.16             0.08    1.35
     1  GEOMET  ................      0.01    0.18             0.00    0.97             0.02    0.25
     1  INPUTA  ................      0.00    0.03             0.00    1.83             0.00    0.06
     1  MAINSY  ................      0.00    0.06             0.00    4.10             0.01    0.14
     1  SYMFIT  ................      0.00    0.00             0.00    0.86             0.00    0.01
     1  CORORT  ................      0.00    0.00             0.00    0.00             0.00    0.01
     1  SYMORB  ................      0.00    0.02             0.00    0.12             0.00    0.02
     1  CLSMAT  ................      0.01    0.10             0.00    0.03             0.01    0.10
     1  ORTHON  ................      0.00    0.04             0.00    0.99             0.01    0.14
     1  GENPT   ................      0.05    0.84             0.00    0.00             0.05    0.82
     1  PTBAS   ................      0.00    0.07             0.00    0.87             0.01    0.08
    18  FOCKY   ................      0.30   92.09             0.00   32.20             0.31   90.73
    18  FOCKTR  ................      0.00    0.46             0.00    1.94             0.00    0.47
    18  SDIIS   ................      0.00    0.46             0.00    2.00             0.00    0.48
     1  COREPS  ................      0.26    4.37             0.00    2.99             0.26    4.31
     1  POPAN   ................      0.01    0.09             0.00    0.00             0.01    0.08
     1  DEBYE   ................      0.00    0.05             0.00    0.00             0.00    0.05
     1  EXIT PROCEDURE .........      0.05    0.79             0.01    6.93             0.05    0.88


 Currently Open Files (EXIT00)
 ====================

 Unit    Access Format  Status   Type       Ident (file)
 -------------------------------------------------------
   3      SEQ    FORM   TRANSP  NORMAL      LOGFILE
                                          ( logfile )


 Buffered I/O statistics
 =======================
 Memory available:                     67108864
 Number of records fitting in memory:     16131
 Input :   0.2% of                         7454  *4k bytes
 Output:   5.6% of                         3416  *4k bytes
 Records from serial files evicted:           0
                    others evicted:           0
 Hash table lookups:      30630 with          0 conflicts (  0.00%)

 ***************************************************************************************************
 (LOGFILE)
 <Feb15-2017> <13:47:18>  ADF 2016  RunTime: Feb15-2017 13:47:18  Nodes: 1  Procs: 1
 <Feb15-2017> <13:47:18>  Lutetium (DZ, all electron)
 <Feb15-2017> <13:47:18>  RunType   : CREATE
 <Feb15-2017> <13:47:18>  Net Charge: 0 (Nuclei minus Electrons)
 <Feb15-2017> <13:47:18>  Symmetry  : ATOM
  Coordinates
    Atom         X           Y           Z   (Angstrom)
    1.Lu        0.000000    0.000000    0.000000
 <Feb15-2017> <13:47:18>  >>>> CORORT
 <Feb15-2017> <13:47:18>  >>>> CLSMAT
 <Feb15-2017> <13:47:18>  >>>> ORTHON
 <Feb15-2017> <13:47:18>  >>>> GENPT
 <Feb15-2017> <13:47:18>  Block Length=  94
 <Feb15-2017> <13:47:18>  >>>> PTBAS
 <Feb15-2017> <13:47:18>  >>>> CYCLE
 <Feb15-2017> <13:47:19>              |Error|         MaxErr       Wt(A-DIIS)
 <Feb15-2017> <13:47:19>      1      0.00000000      0.00000000
 <Feb15-2017> <13:47:19>      2    414.28387812    113.48653668    100.0
 <Feb15-2017> <13:47:20>      3    191.59133528     44.68065901    100.0
 <Feb15-2017> <13:47:20>      4     37.89580293      6.90312611    100.0
 <Feb15-2017> <13:47:20>      5     60.64777116     10.24965441    100.0
 <Feb15-2017> <13:47:20>      6     15.12501468      3.50179138    100.0
 <Feb15-2017> <13:47:21>      7     21.52893175      3.97295391    100.0
 <Feb15-2017> <13:47:21>      8      3.66693818      0.82184296    100.0
 <Feb15-2017> <13:47:21>      9      5.64729666      1.43237618    100.0
 <Feb15-2017> <13:47:22>     10      0.98027570      0.21390013    100.0
 <Feb15-2017> <13:47:22>     11      1.50427492      0.33462836    100.0
 <Feb15-2017> <13:47:22>     12      0.27251626      0.05786974     57.4
 <Feb15-2017> <13:47:22>     13      0.20939123      0.04758313     47.1
 <Feb15-2017> <13:47:23>     14      0.01922264      0.00490122      3.9
 <Feb15-2017> <13:47:23>     15      0.00200883      0.00048448      0.0
 <Feb15-2017> <13:47:23>     16      0.00000125      0.00000027      0.0
 <Feb15-2017> <13:47:23>     17      0.00000003      0.00000001      0.0
 <Feb15-2017> <13:47:24>  SCF converged
 <Feb15-2017> <13:47:24>     18      0.00000000      0.00000000      0.0
 <Feb15-2017> <13:47:24>   Solutions with partially occupied orbitals may not be
 <Feb15-2017> <13:47:24>   lowest in energy. You might consider lowering the
 <Feb15-2017> <13:47:24>   symmetry in the input and explicitly specifying integer
 <Feb15-2017> <13:47:24>   occupations. In that case always check that you obtain
 <Feb15-2017> <13:47:24>   an aufbau solution.
 <Feb15-2017> <13:47:24>  >>>> POPAN
 <Feb15-2017> <13:47:24>  >>>> DEBYE
 <Feb15-2017> <13:47:24>  NORMAL TERMINATION
 <Feb15-2017> <13:47:24>  END


 Parallel Execution: Process Information
 ==============================================================================
 Rank   Node Name                              NodeID   MyNodeRank  NodeMaster
    0   node08                                    0          0          0
    1   node08                                    0          1         -1
    2   node08                                    0          2         -1
    3   node08                                    0          3         -1
    4   node08                                    0          4         -1
    5   node08                                    0          5         -1
    6   node08                                    0          6         -1
    7   node08                                    0          7         -1
    8   node08                                    0          8         -1
    9   node08                                    0          9         -1
   10   node08                                    0         10         -1
   11   node08                                    0         11         -1
   12   node08                                    0         12         -1
   13   node08                                    0         13         -1
   14   node08                                    0         14         -1
   15   node08                                    0         15         -1
 ==============================================================================



title lu    Calculation: lu

ATOMS cartesian
Lu      0.00000000       0.00000000       0.000000
END

CHARGE  3 0
symmetry nosym

XC
 GGA PBE
END

SAVE  TAPE21

SCf
  iterations 400
  ADIIS
end

exactdensity

beckegrid
   quality verygood
end

eprint
 scf eigvec eigval occ ovl
end

Fragments
Lu t21.Lu
End
end input

 *******************************************************************************
 *                                                                             *
 *  -------------------------------------                                      *
 *   Amsterdam Density Functional  (ADF)         2016                          *
 *  -------------------------------------                                      *
 *                                               r52212 2016-04-25             *
 *                                                                             *
 *                                                                             *
 *                              =================                              *
 *                              |               |                              *
 *                              |     A D F     |                              *
 *                              |               |                              *
 *                              =================                              *
 *                                                                             *
 *                                                                             *
 *   Online information and documentation:  http://www.scm.com                 *
 *   E-mail:  support@scm.com   info@scm.com                                   *
 *                                                                             *
 *   Scientific publications using ADF results must be properly referenced     *
 *   See the User Manuals (or the web site) for recommended citations          *
 *   The terms and conditions of the End User License Agreement apply to       *
 *   the use of ADF, http://www.scm.com/Sales/LicAgreement.html                *
 *                                                                             *
 **********************  x86_64_linux_intel / intelmpi  ************************
 
 Licensed to: Dr. Enrique Batista / Los Alamos National Lab (LANL) / Los Alamos / NM / USA
 SCM User ID: u11537
  
 ADF 2016  RunTime: Feb15-2017 13:47:25  Nodes: 1  Procs: 16

 Temporary files are created in /scratch/duignan/kid_0.wVYPYg


Communication costs MPI_COMM_WORLD:      5.121 usec per message,   0.0261 usec per 8-byte item
Communication costs for intra-node:      5.132 usec per message,   0.0258 usec per 8-byte item

 lu    Calculation: lu



 ===========================
 A T T A C H E D   F I L E S
 ===========================
  



 ===============================
 M O D E L   P A R A M E T E R S
 ===============================
  
 DENSITY FUNCTIONAL POTENTIAL (scf)
    LDA:                               PW92                                    == Not Default ==
    Gradient Corrections:              PBEc PBEx                               == Not Default ==

 SPIN  (restricted / unrestr.)
    Molecule:                          Restricted                               
    Fragments:                         Restricted                               

 OTHER ASPECTS
    Relativistic Corrections:          ---                                      

    Nuclear Charge Density Model:      Point Charge Nuclei                                                                                                                                                                                     
    Core Treatment:                    Frozen Orbital(s)                        

    Hyperfine or Zeeman Interaction:   ---                                      


 Fragment File(s)
 ----------------
 Lu:
         file : t21.Lu
         jobid: ADF 2016  RunTime: Feb15-2017 13:47:18  Nodes: 1  Procs: 1
         title: Lutetium (DZ, all electron)



                                        ************************************
                                        *  R U N   T Y P E : SINGLE POINT  *
                                        ************************************
  



 ===============
 G E O M E T R Y  ***  Single Atom  ***
 ===============
  

 ATOMS
 =====                            X Y Z                    CHARGE
                                (Angstrom)             Nucl     +Core       At.Mass
                       --------------------------    ----------------       -------
    1  Lu              0.0000    0.0000    0.0000     71.00     71.00      174.9408


 FRAGMENTS
 =========                                     Atoms in this Fragment     Cart. coord.s (Angstrom)
                                               -------------------------------------------------------
    1  Lu                                                1  Lu           0.0000    0.0000    0.0000



 =====================================
 S Y M M E T R Y ,   E L E C T R O N S
 =====================================
  
 Symmetry: NOSYM

 Irreducible Representations, including subspecies
 -------------------------------------------------
 A


 Configuration of Valence Electrons
 ==================================
 ( determined in the SCF procedure )

 Total:   68

 Net Charge: 3 (Nuclei minus Electrons)

 Aufbau principle for MO occupations will be applied through SCF cycle no.     200
 Thereafter, the program will assign electrons to MOs that are spatially
 similar to the occupied MOs in a "reference" cycle ("KeepOrbitals").
 The reference cycle is always the PREVIOUS cycle: it will evolve with
 the SCF procedure.
1
 ***************************************************************************************************



                                      ****************************************
                                      *  B U I L D : (Fragments, Functions)  *
                                      ****************************************
  



 =======
 S F O s  ***  (Symmetrized Fragment Orbitals)  ***
 =======
  
 SFOs are linear combinations of (valence) Fragment Orbitals (FOs), such that the SFOs transform as the
 irreducible representations of the (molecular) symmetry group. Each SFO is therefore characterized by
 an irrep of the molecule and by a few (or only one) generating FOs.
 The SFOs constitute a symmetry-adapted basis for the Fock matrix. The MO eigenvector coefficients in
 this basis provide a direct interpretation of the MOs in terms of Frontier Orbital Theory.

 The SFOs are combined with auxiliary Core Functions (CFs) to ensure orthogonalization on the (frozen)
 Core Orbitals (COs). The Core-orthogonalized SFOs (CSFOs) constitute the true Fock basis.

 The FOs, and hence also the (C)SFOs are combinations of the elementary basis functions (BAS). The basis
 functions that participate in the description of the SFOs depend on the irrep. The indices of the
 involved functions are printed below for each irrep.
 (The complete list of primitive basis functions is printed in another section)

 Total nr. of (C)SFOs (summation over all irreps) :    94

 NOTE: a (C)SFO that is defined as a combination of more than one FO is usually NOT normalized.



                                       === A ===
 Nr. of SFOs :   94
 Cartesian basis functions that participate in this irrep (total number =   109) :
      1     2     3     4     5     6     7     8     9    10
     11    12    13    14    17    20    23    26    29    32
     35    38   107    15    18    21    24    27    30    33
     36    39   108    16    19    22    25    28    31    34
     37    40   109    41    47    53    59    65    71    42
     48    54    60    66    72    43    49    55    61    67
     73    44    50    56    62    68    74    45    51    57
     63    69    75    46    52    58    64    70    76    77
     87    97    78    88    98    79    89    99    80    90
    100    81    91   101    82    92   102    83    93   103
     84    94   104    85    95   105    86    96   106

    SFO  (index         Fragment          Generating    Expansion in Fragment Orbitals
  indx  incl.CFs)   Occup   Orb.Energy   FragmentType  Coeff.   Orbital     on Fragment
 --------------------------------------------------------------------------------------
     1       1      2.000   -2148.729 au  Lu            1.00      1 S               1
                        (  -58469.903 eV)
     2       2      2.000    -349.665 au  Lu            1.00      2 S               1
                        (   -9514.878 eV)
     3       3      2.000     -78.620 au  Lu            1.00      3 S               1
                        (   -2139.358 eV)
     4       4      2.000     -15.183 au  Lu            1.00      4 S               1
                        (    -413.138 eV)
     5       5      2.000      -1.895 au  Lu            1.00      5 S               1
                        (     -51.555 eV)
     6       6      2.000      -0.157 au  Lu            1.00      6 S               1
                        (      -4.281 eV)
     7       7       --         0.134 au  Lu            1.00      7 S               1
                        (       3.633 eV)
     8       8       --         2.116 au  Lu            1.00      8 S               1
                        (      57.572 eV)
     9       9       --        19.741 au  Lu            1.00      9 S               1
                        (     537.189 eV)
    10      10       --       248.878 au  Lu            1.00     10 S               1
                        (    6772.313 eV)
    11      11       --      2655.253 au  Lu            1.00     11 S               1
                        (   72253.112 eV)
    12      12       --     19778.162 au  Lu            1.00     12 S               1
                        (  538191.164 eV)
    13      13       --    259202.016 au  Lu            1.00     13 S               1
                        ( 7053245.725 eV)
    14      14      2.000    -334.651 au  Lu            1.00      1 P:x             1
                        (   -9106.314 eV)
    15      15      2.000     -71.711 au  Lu            1.00      2 P:x             1
                        (   -1951.342 eV)
    16      16      2.000     -12.336 au  Lu            1.00      3 P:x             1
                        (    -335.678 eV)
    17      17      2.000      -1.131 au  Lu            1.00      4 P:x             1
                        (     -30.771 eV)
    18      18       --        -0.039 au  Lu            1.00      5 P:x             1
                        (      -1.051 eV)
    19      19       --         0.970 au  Lu            1.00      6 P:x             1
                        (      26.385 eV)
    20      20       --        10.293 au  Lu            1.00      7 P:x             1
                        (     280.077 eV)
    21      21       --        72.836 au  Lu            1.00      8 P:x             1
                        (    1981.965 eV)
    22      22       --       838.757 au  Lu            1.00      9 P:x             1
                        (   22823.729 eV)
    23      23       --     10875.639 au  Lu            1.00     10 P:x             1
                        (  295941.208 eV)
    24      24      2.000    -334.651 au  Lu            1.00      1 P:y             1
                        (   -9106.314 eV)
    25      25      2.000     -71.711 au  Lu            1.00      2 P:y             1
                        (   -1951.342 eV)
    26      26      2.000     -12.336 au  Lu            1.00      3 P:y             1
                        (    -335.678 eV)
    27      27      2.000      -1.131 au  Lu            1.00      4 P:y             1
                        (     -30.771 eV)
    28      28       --        -0.039 au  Lu            1.00      5 P:y             1
                        (      -1.051 eV)
    29      29       --         0.970 au  Lu            1.00      6 P:y             1
                        (      26.385 eV)
    30      30       --        10.293 au  Lu            1.00      7 P:y             1
                        (     280.077 eV)
    31      31       --        72.836 au  Lu            1.00      8 P:y             1
                        (    1981.965 eV)
    32      32       --       838.757 au  Lu            1.00      9 P:y             1
                        (   22823.729 eV)
    33      33       --     10875.639 au  Lu            1.00     10 P:y             1
                        (  295941.208 eV)
    34      34      2.000    -334.651 au  Lu            1.00      1 P:z             1
                        (   -9106.314 eV)
    35      35      2.000     -71.711 au  Lu            1.00      2 P:z             1
                        (   -1951.342 eV)
    36      36      2.000     -12.336 au  Lu            1.00      3 P:z             1
                        (    -335.678 eV)
    37      37      2.000      -1.131 au  Lu            1.00      4 P:z             1
                        (     -30.771 eV)
    38      38       --        -0.039 au  Lu            1.00      5 P:z             1
                        (      -1.051 eV)
    39      39       --         0.970 au  Lu            1.00      6 P:z             1
                        (      26.385 eV)
    40      40       --        10.293 au  Lu            1.00      7 P:z             1
                        (     280.077 eV)
    41      41       --        72.836 au  Lu            1.00      8 P:z             1
                        (    1981.965 eV)
    42      42       --       838.757 au  Lu            1.00      9 P:z             1
                        (   22823.729 eV)
    43      43       --     10875.639 au  Lu            1.00     10 P:z             1
                        (  295941.208 eV)
    44      44      2.000     -58.770 au  Lu            1.00      1 D:z2            1
                        (   -1599.212 eV)
    45      45      2.000      -7.180 au  Lu            1.00      2 D:z2            1
                        (    -195.390 eV)
    46      46      0.200      -0.091 au  Lu            1.00      3 D:z2            1
                        (      -2.477 eV)
    47      47       --         0.133 au  Lu            1.00      4 D:z2            1
                        (       3.619 eV)
    48      48       --         5.693 au  Lu            1.00      5 D:z2            1
                        (     154.927 eV)
    49      49       --        88.653 au  Lu            1.00      6 D:z2            1
                        (    2412.365 eV)
    50      50      2.000     -58.770 au  Lu            1.00      1 D:x2-y2         1
                        (   -1599.212 eV)
    51      51      2.000      -7.180 au  Lu            1.00      2 D:x2-y2         1
                        (    -195.390 eV)
    52      52      0.200      -0.091 au  Lu            1.00      3 D:x2-y2         1
                        (      -2.477 eV)
    53      53       --         0.133 au  Lu            1.00      4 D:x2-y2         1
                        (       3.619 eV)
    54      54       --         5.693 au  Lu            1.00      5 D:x2-y2         1
                        (     154.927 eV)
    55      55       --        88.653 au  Lu            1.00      6 D:x2-y2         1
                        (    2412.365 eV)
    56      56      2.000     -58.770 au  Lu            1.00      1 D:xy            1
                        (   -1599.212 eV)
    57      57      2.000      -7.180 au  Lu            1.00      2 D:xy            1
                        (    -195.390 eV)
    58      58      0.200      -0.091 au  Lu            1.00      3 D:xy            1
                        (      -2.477 eV)
    59      59       --         0.133 au  Lu            1.00      4 D:xy            1
                        (       3.619 eV)
    60      60       --         5.693 au  Lu            1.00      5 D:xy            1
                        (     154.927 eV)
    61      61       --        88.653 au  Lu            1.00      6 D:xy            1
                        (    2412.365 eV)
    62      62      2.000     -58.770 au  Lu            1.00      1 D:xz            1
                        (   -1599.212 eV)
    63      63      2.000      -7.180 au  Lu            1.00      2 D:xz            1
                        (    -195.390 eV)
    64      64      0.200      -0.091 au  Lu            1.00      3 D:xz            1
                        (      -2.477 eV)
    65      65       --         0.133 au  Lu            1.00      4 D:xz            1
                        (       3.619 eV)
    66      66       --         5.693 au  Lu            1.00      5 D:xz            1
                        (     154.927 eV)
    67      67       --        88.653 au  Lu            1.00      6 D:xz            1
                        (    2412.365 eV)
    68      68      2.000     -58.770 au  Lu            1.00      1 D:yz            1
                        (   -1599.212 eV)
    69      69      2.000      -7.180 au  Lu            1.00      2 D:yz            1
                        (    -195.390 eV)
    70      70      0.200      -0.091 au  Lu            1.00      3 D:yz            1
                        (      -2.477 eV)
    71      71       --         0.133 au  Lu            1.00      4 D:yz            1
                        (       3.619 eV)
    72      72       --         5.693 au  Lu            1.00      5 D:yz            1
                        (     154.927 eV)
    73      73       --        88.653 au  Lu            1.00      6 D:yz            1
                        (    2412.365 eV)
    74      74      2.000      -0.578 au  Lu            1.00      1 F:z3            1
                        (     -15.718 eV)
    75      75       --         1.168 au  Lu            1.00      2 F:z3            1
                        (      31.778 eV)
    76      76       --         9.841 au  Lu            1.00      3 F:z3            1
                        (     267.779 eV)
    77      77      2.000      -0.578 au  Lu            1.00      1 F:z             1
                        (     -15.718 eV)
    78      78       --         1.168 au  Lu            1.00      2 F:z             1
                        (      31.778 eV)
    79      79       --         9.841 au  Lu            1.00      3 F:z             1
                        (     267.779 eV)
    80      80      2.000      -0.578 au  Lu            1.00      1 F:xyz           1
                        (     -15.718 eV)
    81      81       --         1.168 au  Lu            1.00      2 F:xyz           1
                        (      31.778 eV)
    82      82       --         9.841 au  Lu            1.00      3 F:xyz           1
                        (     267.779 eV)
    83      83      2.000      -0.578 au  Lu            1.00      1 F:z2x           1
                        (     -15.718 eV)
    84      84       --         1.168 au  Lu            1.00      2 F:z2x           1
                        (      31.778 eV)
    85      85       --         9.841 au  Lu            1.00      3 F:z2x           1
                        (     267.779 eV)
    86      86      2.000      -0.578 au  Lu            1.00      1 F:z2y           1
                        (     -15.718 eV)
    87      87       --         1.168 au  Lu            1.00      2 F:z2y           1
                        (      31.778 eV)
    88      88       --         9.841 au  Lu            1.00      3 F:z2y           1
                        (     267.779 eV)
    89      89      2.000      -0.578 au  Lu            1.00      1 F:x             1
                        (     -15.718 eV)
    90      90       --         1.168 au  Lu            1.00      2 F:x             1
                        (      31.778 eV)
    91      91       --         9.841 au  Lu            1.00      3 F:x             1
                        (     267.779 eV)
    92      92      2.000      -0.578 au  Lu            1.00      1 F:y             1
                        (     -15.718 eV)
    93      93       --         1.168 au  Lu            1.00      2 F:y             1
                        (      31.778 eV)
    94      94       --         9.841 au  Lu            1.00      3 F:y             1
                        (     267.779 eV)



 ================================
 (Slater-type)  F U N C T I O N S  ***  (Basis and Fit)  ***
 ================================
  

 Atom Type    1  (Lu)
 ==============

 Valence Basis Sets:  32
 -----------------------
   1 S  626.000000
   1 S  154.000000
   1 S   76.400000
   2 S   84.800000
   2 S   33.300000
   3 S   28.200000
   3 S   18.000000
   4 S   12.050000
   4 S    8.500000
   5 S    5.600000
   5 S    3.550000
   6 S    2.200000
   6 S    1.250000
   2 P  154.000000
   2 P   55.200000
   2 P   32.050000
   3 P   18.300000
   3 P   13.700000
   4 P   11.250000
   4 P    7.550000
   5 P    4.600000
   5 P    2.750000
   3 D   24.450000
   3 D   15.450000
   4 D   10.250000
   4 D    6.250000
   5 D    2.700000
   5 D    1.050000
   4 F   11.600000
   4 F    5.550000
   4 F    2.400000
   6 P    1.550000


 BAS: List of all Elementary Cartesian Basis Functions
 =====================================================

 The numbering in the list below (to the right of the function characteristics) is referred
 to in print-outs of MO eigenvectors and Mulliken populations in the BAS representation
 (as contrasted to the SFO representation).

 Notes:
 1. The functions are characterized by a polynomial prefactor (powers of x,y,z and r) and
    an exponential decay factor alpha.
 2. Since the basis sets are specific for an atom TYPE, the individual functions occur on
    all atoms of that type.
 3. The word 'Core' in the left margin signals that it is a Core Function (CF) : not a
    degree of freedom in the valence set, but only used to ensure orthogonalization of
    the other valence basis functions on the frozen Core Orbitals.


 (power of) X  Y  Z  R     Alpha  on Atom
            ==========     =====     ==========

 Lu                                   1
                                  ---------------------------------------------------------------------------
            0  0  0  0   626.000      1
            0  0  0  0   154.000      2
            0  0  0  0    76.400      3
            0  0  0  1    84.800      4
            0  0  0  1    33.300      5
            0  0  0  2    28.200      6
            0  0  0  2    18.000      7
            0  0  0  3    12.050      8
            0  0  0  3     8.500      9
            0  0  0  4     5.600     10
            0  0  0  4     3.550     11
            0  0  0  5     2.200     12
            0  0  0  5     1.250     13
            1  0  0  0   154.000     14
            0  1  0  0   154.000     15
            0  0  1  0   154.000     16
            1  0  0  0    55.200     17
            0  1  0  0    55.200     18
            0  0  1  0    55.200     19
            1  0  0  0    32.050     20
            0  1  0  0    32.050     21
            0  0  1  0    32.050     22
            1  0  0  1    18.300     23
            0  1  0  1    18.300     24
            0  0  1  1    18.300     25
            1  0  0  1    13.700     26
            0  1  0  1    13.700     27
            0  0  1  1    13.700     28
            1  0  0  2    11.250     29
            0  1  0  2    11.250     30
            0  0  1  2    11.250     31
            1  0  0  2     7.550     32
            0  1  0  2     7.550     33
            0  0  1  2     7.550     34
            1  0  0  3     4.600     35
            0  1  0  3     4.600     36
            0  0  1  3     4.600     37
            1  0  0  3     2.750     38
            0  1  0  3     2.750     39
            0  0  1  3     2.750     40
            2  0  0  0    24.450     41
            1  1  0  0    24.450     42
            1  0  1  0    24.450     43
            0  2  0  0    24.450     44
            0  1  1  0    24.450     45
            0  0  2  0    24.450     46
            2  0  0  0    15.450     47
            1  1  0  0    15.450     48
            1  0  1  0    15.450     49
            0  2  0  0    15.450     50
            0  1  1  0    15.450     51
            0  0  2  0    15.450     52
            2  0  0  1    10.250     53
            1  1  0  1    10.250     54
            1  0  1  1    10.250     55
            0  2  0  1    10.250     56
            0  1  1  1    10.250     57
            0  0  2  1    10.250     58
            2  0  0  1     6.250     59
            1  1  0  1     6.250     60
            1  0  1  1     6.250     61
            0  2  0  1     6.250     62
            0  1  1  1     6.250     63
            0  0  2  1     6.250     64
            2  0  0  2     2.700     65
            1  1  0  2     2.700     66
            1  0  1  2     2.700     67
            0  2  0  2     2.700     68
            0  1  1  2     2.700     69
            0  0  2  2     2.700     70
            2  0  0  2     1.050     71
            1  1  0  2     1.050     72
            1  0  1  2     1.050     73
            0  2  0  2     1.050     74
            0  1  1  2     1.050     75
            0  0  2  2     1.050     76
            3  0  0  0    11.600     77
            2  1  0  0    11.600     78
            2  0  1  0    11.600     79
            1  2  0  0    11.600     80
            1  1  1  0    11.600     81
            1  0  2  0    11.600     82
            0  3  0  0    11.600     83
            0  2  1  0    11.600     84
            0  1  2  0    11.600     85
            0  0  3  0    11.600     86
            3  0  0  0     5.550     87
            2  1  0  0     5.550     88
            2  0  1  0     5.550     89
            1  2  0  0     5.550     90
            1  1  1  0     5.550     91
            1  0  2  0     5.550     92
            0  3  0  0     5.550     93
            0  2  1  0     5.550     94
            0  1  2  0     5.550     95
            0  0  3  0     5.550     96
            3  0  0  0     2.400     97
            2  1  0  0     2.400     98
            2  0  1  0     2.400     99
            1  2  0  0     2.400    100
            1  1  1  0     2.400    101
            1  0  2  0     2.400    102
            0  3  0  0     2.400    103
            0  2  1  0     2.400    104
            0  1  2  0     2.400    105
            0  0  3  0     2.400    106
            1  0  0  4     1.550    107
            0  1  0  4     1.550    108
            0  0  1  4     1.550    109

 Total number of charge fitting functions (nprimf)       334
 Total number of Cartesian basis functions (naos)        109
 Total number of Cartesian core functions  (ncos)          0

1
 ***************************************************************************************************



                                              ***********************
                                              *  T E C H N I C A L  *
                                              ***********************
  



 =============================================================
 P A R A L L E L I Z A T I O N  and  V E C T O R I Z A T I O N
 =============================================================
  
 Nr of parallel processes:                               16
 Maximum vector length in NumInt loops:                 128

 IO buffersize (Mb):                                     64.000000



 =====================
 S C F   U P D A T E S
 =====================
  
 Max. nr. of cycles:                               400
 Convergence criterion:                              0.0000010000
   secondary criterion:                              0.0010000000

 Mix parameter (when DIIS does not apply):           0.2000000000
 Mixed ADIIS+DIIS will be used
    Max number of expansion vectors:                10
    Pure ADIIS when Max([F,P]) is above              0.1000000000
    Pure DIIS when Max([F,P]) is below               0.0010000000
[...]
                                   15.07%     1 F:xyz         -15.718  2.00     1 Lu
                                    4.64%     1 F:z3          -15.718  2.00     1 Lu
     -41.474  2.00    33 A         56.68%     1 F:z2x         -15.718  2.00     1 Lu
                                   36.13%     1 F:z2y         -15.718  2.00     1 Lu
                                    3.75%     1 F:z3          -15.718  2.00     1 Lu
                                    2.18%     1 F:x           -15.718  2.00     1 Lu
                                    1.20%     1 F:xyz         -15.718  2.00     1 Lu
     -41.474  2.00    34 A         69.53%     1 F:z3          -15.718  2.00     1 Lu
                                   17.74%     1 F:xyz         -15.718  2.00     1 Lu
                                   10.72%     1 F:x           -15.718  2.00     1 Lu
                                    1.93%     1 F:z2y         -15.718  2.00     1 Lu
     -25.219  0.00    35 A         35.69%     3 D:x2-y2        -2.477  0.20     1 Lu
                                   27.03%     3 D:xz           -2.477  0.20     1 Lu
                                   15.72%     3 D:yz           -2.477  0.20     1 Lu
                                    6.24%     3 D:z2           -2.477  0.20     1 Lu
                                    5.83%     4 D:x2-y2         3.619  0.00     1 Lu
                                    4.41%     4 D:xz            3.619  0.00     1 Lu
                                    2.57%     4 D:yz            3.619  0.00     1 Lu
                                    1.28%     3 D:xy           -2.477  0.20     1 Lu
                                    1.02%     4 D:z2            3.619  0.00     1 Lu
     -25.219  0.00    36 A         28.63%     3 D:z2           -2.477  0.20     1 Lu
                                   27.92%     3 D:x2-y2        -2.477  0.20     1 Lu
                                   27.25%     3 D:yz           -2.477  0.20     1 Lu
                                    4.67%     4 D:z2            3.619  0.00     1 Lu
                                    4.56%     4 D:x2-y2         3.619  0.00     1 Lu
                                    4.45%     4 D:yz            3.619  0.00     1 Lu
                                    1.60%     3 D:xy           -2.477  0.20     1 Lu
     -25.219  0.00    37 A         61.56%     3 D:xy           -2.477  0.20     1 Lu
                                   11.39%     3 D:xz           -2.477  0.20     1 Lu
                                   10.05%     4 D:xy            3.619  0.00     1 Lu
                                    6.91%     3 D:yz           -2.477  0.20     1 Lu
                                    5.05%     3 D:x2-y2        -2.477  0.20     1 Lu
                                    1.86%     4 D:xz            3.619  0.00     1 Lu
                                    1.13%     4 D:yz            3.619  0.00     1 Lu
                                    1.07%     3 D:z2           -2.477  0.20     1 Lu
     -25.219  0.00    38 A         44.18%     3 D:xz           -2.477  0.20     1 Lu
                                   21.36%     3 D:xy           -2.477  0.20     1 Lu
                                   13.07%     3 D:x2-y2        -2.477  0.20     1 Lu
                                    7.21%     4 D:xz            3.619  0.00     1 Lu
                                    6.47%     3 D:yz           -2.477  0.20     1 Lu
                                    3.49%     4 D:xy            3.619  0.00     1 Lu
                                    2.13%     4 D:x2-y2         3.619  0.00     1 Lu
                                    1.06%     4 D:yz            3.619  0.00     1 Lu
     -25.219  0.00    39 A         49.15%     3 D:z2           -2.477  0.20     1 Lu
                                   29.61%     3 D:yz           -2.477  0.20     1 Lu
                                    8.02%     4 D:z2            3.619  0.00     1 Lu
                                    4.84%     4 D:yz            3.619  0.00     1 Lu
                                    4.24%     3 D:x2-y2        -2.477  0.20     1 Lu
                                    2.80%     3 D:xz           -2.477  0.20     1 Lu
     -22.936  0.00    40 A         85.79%     6 S              -4.281  2.00     1 Lu
                                   14.10%     7 S               3.633  0.00     1 Lu



 =======================================================================
 Electrostatic potential at the Nuclei due to electrons and other nuclei
 =======================================================================
  
         Atom                  Potential
         ----                  ---------
     1)   Lu                463.61851421
 
 
 ========================
 No memory problems found
 ========================
 
 Maximum number of active allocate calls:         725
 
 *******************************************************************************

                             A D F   E X I T
 NORMAL TERMINATION



 =================
 Timing Statistics
 =================
  
 Total Used :                     CPU=        2.10      System=        0.27     Elapsed=        2.43

 Calls  Section                     ( Mean, Percentage )
 ---------------------------------------------------------------------------------------------------
     3  ><      ................      0.00    0.05             0.00    0.00             0.00    0.08
     1  INIT    ................      0.47   22.28             0.14   51.65             0.61   25.22
     1  GEOMET  ................      0.03    1.26             0.01    2.51             0.04    1.47
     1  FRAGM   ................      0.02    1.00             0.01    5.47             0.05    2.07
     1  INPUTA  ................      0.00    0.03             0.00    0.01             0.00    0.03
     1  ATDEN   ................      0.02    0.75             0.01    2.52             0.02    0.94
     1  MAINSY  ................      0.01    0.57             0.01    1.84             0.02    0.82
     1  SYMFIT  ................      0.00    0.06             0.00    0.02             0.00    0.05
     1  CORORT  ................      0.00    0.03             0.00    0.02             0.00    0.02
     1  SYMORB  ................      0.00    0.10             0.00    0.01             0.00    0.09
     1  CLSMAT  ................      0.01    0.43             0.00    0.04             0.01    0.38
     1  ORTHON  ................      0.01    0.37             0.00    0.75             0.01    0.40
     1  GENPT   ................      0.05    2.58             0.00    0.46             0.06    2.30
     1  PTBAS   ................      0.02    1.00             0.01    2.26             0.03    1.13
    10  FOCKY   ................      0.11   51.79             0.00   17.79             0.11   46.94
    10  FOCKTR  ................      0.00    0.80             0.00    0.38             0.00    0.73
    10  SDIIS   ................      0.00    1.48             0.00    1.44             0.00    1.50
     1  COREPS  ................      0.07    3.57             0.01    3.67             0.09    3.68
     1  TOTEN   ................      0.17    8.33             0.02    5.78             0.19    7.90
     1  POPAN   ................      0.00    0.15             0.00    0.08             0.01    0.42
     1  DEBYE   ................      0.00    0.23             0.00    0.02             0.00    0.20
     1  INPUTE  ................      0.00    0.03             0.00    0.00             0.00    0.06
     1  SYMORE  ................      0.00    0.06             0.00    0.00             0.00    0.06
     1  METS    ................      0.00    0.03             0.00    0.33             0.00    0.04
     1  CETS    ................      0.01    0.30             0.00    0.04             0.01    0.29
     1  ELNRGY  ................      0.00    0.08             0.00    0.00             0.00    0.07
     1  POPUL   ................      0.01    0.48             0.00    1.42             0.03    1.03
     1  EXIT PROCEDURE .........      0.05    2.16             0.00    1.49             0.05    2.08


 Currently Open Files (EXIT00)
 ====================

 Unit    Access Format  Status   Type       Ident (file)
 -------------------------------------------------------
   3      SEQ    FORM   TRANSP  NORMAL      LOGFILE
                                          ( logfile )


 Buffered I/O statistics
 =======================
 Memory available:                     67108864
 Number of records fitting in memory:     16131
 Input :   1.5% of                         5365  *4k bytes
 Output:  11.1% of                         3330  *4k bytes
 Records from serial files evicted:           0
                    others evicted:           0
 Hash table lookups:      24223 with          0 conflicts (  0.00%)

 ***************************************************************************************************
 (LOGFILE)
 <Feb15-2017> <13:47:18>  ADF 2016  RunTime: Feb15-2017 13:47:18  Nodes: 1  Procs: 1
 <Feb15-2017> <13:47:18>  Lutetium (DZ, all electron)
 <Feb15-2017> <13:47:18>  RunType   : CREATE
 <Feb15-2017> <13:47:18>  Net Charge: 0 (Nuclei minus Electrons)
 <Feb15-2017> <13:47:18>  Symmetry  : ATOM
  Coordinates
    Atom         X           Y           Z   (Angstrom)
    1.Lu        0.000000    0.000000    0.000000
 <Feb15-2017> <13:47:18>  >>>> CORORT
 <Feb15-2017> <13:47:18>  >>>> CLSMAT
 <Feb15-2017> <13:47:18>  >>>> ORTHON
 <Feb15-2017> <13:47:18>  >>>> GENPT
 <Feb15-2017> <13:47:18>  Block Length=  94
 <Feb15-2017> <13:47:18>  >>>> PTBAS
 <Feb15-2017> <13:47:18>  >>>> CYCLE
 <Feb15-2017> <13:47:19>              |Error|         MaxErr       Wt(A-DIIS)
 <Feb15-2017> <13:47:19>      1      0.00000000      0.00000000
 <Feb15-2017> <13:47:19>      2    414.28387812    113.48653668    100.0
 <Feb15-2017> <13:47:20>      3    191.59133528     44.68065901    100.0
 <Feb15-2017> <13:47:20>      4     37.89580293      6.90312611    100.0
 <Feb15-2017> <13:47:20>      5     60.64777116     10.24965441    100.0
 <Feb15-2017> <13:47:20>      6     15.12501468      3.50179138    100.0
 <Feb15-2017> <13:47:21>      7     21.52893175      3.97295391    100.0
 <Feb15-2017> <13:47:21>      8      3.66693818      0.82184296    100.0
 <Feb15-2017> <13:47:21>      9      5.64729666      1.43237618    100.0
 <Feb15-2017> <13:47:22>     10      0.98027570      0.21390013    100.0
 <Feb15-2017> <13:47:22>     11      1.50427492      0.33462836    100.0
 <Feb15-2017> <13:47:22>     12      0.27251626      0.05786974     57.4
 <Feb15-2017> <13:47:22>     13      0.20939123      0.04758313     47.1
 <Feb15-2017> <13:47:23>     14      0.01922264      0.00490122      3.9
 <Feb15-2017> <13:47:23>     15      0.00200883      0.00048448      0.0
 <Feb15-2017> <13:47:23>     16      0.00000125      0.00000027      0.0
 <Feb15-2017> <13:47:23>     17      0.00000003      0.00000001      0.0
 <Feb15-2017> <13:47:24>  SCF converged
 <Feb15-2017> <13:47:24>     18      0.00000000      0.00000000      0.0
 <Feb15-2017> <13:47:24>   Solutions with partially occupied orbitals may not be
 <Feb15-2017> <13:47:24>   lowest in energy. You might consider lowering the
 <Feb15-2017> <13:47:24>   symmetry in the input and explicitly specifying integer
 <Feb15-2017> <13:47:24>   occupations. In that case always check that you obtain
 <Feb15-2017> <13:47:24>   an aufbau solution.
 <Feb15-2017> <13:47:24>  >>>> POPAN
 <Feb15-2017> <13:47:24>  >>>> DEBYE
 <Feb15-2017> <13:47:24>  NORMAL TERMINATION
 <Feb15-2017> <13:47:24>  END
 <Feb15-2017> <13:47:25>  ADF 2016  RunTime: Feb15-2017 13:47:25  Nodes: 1  Procs: 16
 <Feb15-2017> <13:47:25>  lu    Calculation: lu
 <Feb15-2017> <13:47:25>  RunType   : SINGLE POINT
 <Feb15-2017> <13:47:25>  Net Charge: 3 (Nuclei minus Electrons)
 <Feb15-2017> <13:47:25>  Symmetry  : NOSYM
 <Feb15-2017> <13:47:25>  >>>> FRAGM
  Coordinates
    Atom         X           Y           Z   (Angstrom)
    1.Lu        0.000000    0.000000    0.000000
 <Feb15-2017> <13:47:25>  >>>> CORORT
 <Feb15-2017> <13:47:25>  >>>> CLSMAT
 <Feb15-2017> <13:47:25>  >>>> ORTHON
 <Feb15-2017> <13:47:25>  >>>> GENPT
 <Feb15-2017> <13:47:25>  Block Length=  98
 <Feb15-2017> <13:47:25>  >>>> PTBAS
 <Feb15-2017> <13:47:25>  >>>> CYCLE
 <Feb15-2017> <13:47:25>              |Error|         MaxErr       Wt(A-DIIS)
 <Feb15-2017> <13:47:25>      1      0.03260282      0.01338190
 <Feb15-2017> <13:47:26>      2      0.31767908      0.09893870    100.0
 <Feb15-2017> <13:47:26>      3      0.17716898      0.06005669    100.0
 <Feb15-2017> <13:47:26>      4      0.21885660      0.04884846    100.0
 <Feb15-2017> <13:47:26>      5      0.42409029      0.09145567    100.0
 <Feb15-2017> <13:47:26>      6      0.02772787      0.00691954      6.0
 <Feb15-2017> <13:47:26>      7      0.00412650      0.00088805      0.0
 <Feb15-2017> <13:47:26>      8      0.00001378      0.00000317      0.0
 <Feb15-2017> <13:47:26>      9      0.00000028      0.00000007      0.0
 <Feb15-2017> <13:47:26>  SCF converged
 <Feb15-2017> <13:47:26>     10      0.00000001      0.00000000      0.0
 <Feb15-2017> <13:47:27>  >>>> TOTEN
 <Feb15-2017> <13:47:27>  >>>> POPAN
 <Feb15-2017> <13:47:27>  >>>> DEBYE
 <Feb15-2017> <13:47:27>  >>>> AMETS
 <Feb15-2017> <13:47:27>   Bond Energy           1.43571035 a.u.
 <Feb15-2017> <13:47:27>   Bond Energy          39.06766648 eV
 <Feb15-2017> <13:47:27>   Bond Energy         900.92       kcal/mol
 <Feb15-2017> <13:47:27>  >>>> POPUL
 <Feb15-2017> <13:47:27>  NORMAL TERMINATION
 <Feb15-2017> <13:47:27>  END

 *******************************************************************************
 *                                                                             *
 *  -------------------------------------                                      *
 *   Amsterdam Density Functional  (ADF)         2016                          *
 *  -------------------------------------                                      *
 *                                               r52212 2016-04-25             *
 *                                                                             *
 *                                                                             *
 *                            =====================                            *
 *                            |                   |                            *
 *                            |     D E N S F     |                            *
 *                            |                   |                            *
 *                            =====================                            *
 *                                                                             *
 *                                                                             *
 *   Online information and documentation:  http://www.scm.com                 *
 *   E-mail:  support@scm.com   info@scm.com                                   *
 *                                                                             *
 *   Scientific publications using ADF results must be properly referenced     *
 *   See the User Manuals (or the web site) for recommended citations          *
 *   The terms and conditions of the End User License Agreement apply to       *
 *   the use of ADF, http://www.scm.com/Sales/LicAgreement.html                *
 *                                                                             *
 **********************  x86_64_linux_intel / intelmpi  ************************
 
 Licensed to: Dr. Enrique Batista / Los Alamos National Lab (LANL) / Los Alamos / NM / USA
 SCM User ID: u11537
  
 DENSF 2016  RunTime: Feb15-2017 13:47:27  Nodes: 1  Procs: 1

 Temporary files are created in /scratch/duignan/kid_0.wAqS9C

 read unit definitions from tape21
 
 Automatic Grid generation
 =========================
 
 Grid type: 
 Coarse                                                                         
                                                                                
   
 Grid extends around the atom bounding box by: 4.00 bohr
 Grid spacing: 0.50 bohr
 Number of points:      17 x       17 x       17 =     4913
 
 Summary of selected items
 =========================
 
 Exact Density (SumFrag, Orth, SCF)        :      F F F
 Exact Density Gradient (SCF)              :      F
 Exact Density Hessian (SCF)               :      F
 Exact Density Laplacian (SCF)             :      F
 Fit   Density (SumFrag, Orth, SCF, Trans) :      F F F F
 Fit   Density Gradient (SCF)              :      F
 Fit   Density Hessian (SCF)               :      F
 Fit   Density Laplacian (SCF)             :      F
 
 Kinetic Energy Density (SumFrag, Orth, SCF) :    F F F
 Single Exponential Decay Detector, SEDD (SCF) :  F
 Exact RDG and Lambda2 for NCI (SCF)       :      F
 Fit   RDG and Lambda2 for NCI (SCF)       :      F
 Ridge function value (SCF)                :      F
 Fractional Orbital Density, FOD (SCF)     :      F
 Spin Magnetization Density                :      F
 Steric Interaction                        :      F
 
 Coulomb Potential (SumFrag, Orth, SCF, Trans) :  F F F F
 XC Potential from fit density (Orth, SCF)     :  F F
 XC Potential from exact density (SCF)         :  F
 
 COSMO surface                                 :  F
 
 Selected Orbitals (per spin and subspecies):
 --------------------------------------------
 
 Spin 1
 A          : 9 10 11 12 13 14 15 16 17 18 19 20 21 22 23 24 25 26 27 28 29 30 31 32 33 34 35 36 37 38 39 40 41 42 43 44 45 46 47 48 49 50 51 52 53 54 55 56
            + 57 58 59 60
  1% done
  2% done
  3% done
  4% done
  5% done
  6% done
  7% done
  8% done
  9% done
 10% done
 11% done
 12% done
 13% done
 14% done
 15% done
 16% done
 17% done
 18% done
 19% done
 20% done
 21% done
 22% done
 23% done
 24% done
 25% done
 26% done
 27% done
 28% done
 29% done
 30% done
 31% done
 32% done
 33% done
 34% done
 35% done
 36% done
 37% done
 38% done
 39% done
 40% done
 41% done
 42% done
 43% done
 44% done
 45% done
 46% done
 47% done
 48% done
 49% done
 50% done
 51% done
 52% done
 53% done
 54% done
 55% done
 56% done
 57% done
 58% done
 59% done
 60% done
 61% done
 62% done
 63% done
 64% done
 65% done
 66% done
 67% done
 68% done
 69% done
 70% done
 71% done
 72% done
 73% done
 74% done
 75% done
 76% done
 77% done
 78% done
 79% done
 80% done
 81% done
 82% done
 83% done
 84% done
 85% done
 86% done
 87% done
 88% done
 89% done
 90% done
 91% done
 92% done
 93% done
 94% done
 95% done
 96% done
 97% done
 98% done
 99% done
100% done
 *******************************************************************************

                             D E N S F   E X I T
 NORMAL TERMINATION



 =================
 Timing Statistics
 =================
  
 Total Used :                     CPU=        0.42      System=        0.51     Elapsed=        0.96

 Calls  Section                     ( Mean, Percentage )
 ---------------------------------------------------------------------------------------------------
     2  ><      ................      0.00    0.01             0.00    0.00             0.00    0.00
     1  EXIT PROCEDURE .........      0.42   99.99             0.51  100.00             0.96  100.00


 Currently Open Files (EXIT00)
 ====================

 Unit    Access Format  Status   Type       Ident (file)
 -------------------------------------------------------
   3      SEQ    FORM   TRANSP  NORMAL      LOGFILE
                                          ( logfile )


 Buffered I/O statistics
 =======================
 Memory available:                     67108864
 Number of records fitting in memory:     16131
 Input :  68.2% of                          255  *4k bytes
 Output: 100.0% of                            0  *4k bytes
 Records from serial files evicted:           0
                    others evicted:           0
 Hash table lookups:        765 with          0 conflicts (  0.00%)
