
Create H   file=DZ-H
XC
XCFUN
GGA BP86
End
End Input

 *******************************************************************************
 *                                                                             *
 *  -------------------------------------                                      *
 *   Amsterdam Density Functional  (ADF)         2017                          *
 *  -------------------------------------                                      *
 *                                               r65426 2018-05-03             *
 *                                                                             *
 *                                                                             *
 *                              =================                              *
 *                              |               |                              *
 *                              |     A D F     |                              *
 *                              |               |                              *
 *                              =================                              *
 *                                                                             *
 *                                                                             *
 *   Online information and documentation:  https://www.scm.com/support/       *
 *   E-mail:  support@scm.com   info@scm.com                                   *
 *                                                                             *
 *   Scientific publications using ADF results must be properly referenced     *
 *   See the User Manuals (or the web site) for recommended citations          *
 *   The terms and conditions of the End User License Agreement apply to       *
 *   the use of ADF, https://www.scm.com/license-terms/                        *
 *                                                                             *
 **********************  x86_64_linux_intel / intelmpi  ************************
 
 Licensed to: Dr. Jochen Autschbach / University at Buffalo / Buffalo / NY / USA
 SCM User ID: u7467
  
 ADF 2017  RunTime: Jun21-2019 15:09:37  Nodes: 1  Procs: 1

 Temporary files are created in /scratch/2867672/kid_0.aZW66D

 Hydrogen (DZ)



 ===========================
 A T T A C H E D   F I L E S
 ===========================
  
 CREATE - Data File:    DZ-H
                        Hydrogen (DZ)



 ===============================
 M O D E L   P A R A M E T E R S
 ===============================
  
 DENSITY FUNCTIONAL POTENTIAL (scf)
    LDA:                               VWN                                      
    Gradient Corrections:              Becke88 Perdew86                        == Not Default ==

  XC energy densities, potentials and kernels evaluated by XCFUN 


 SPIN  (restricted / unrestr.)
    Molecule:                          Restricted                               

 OTHER ASPECTS
    Relativistic Corrections:          ---                                      

    Nuclear Charge Density Model:      Point Charge Nuclei                      
    Core Treatment:                    Frozen Orbital(s)                        

    Hyperfine or Zeeman Interaction:   ---                                      



 =====================================
 S Y M M E T R Y ,   E L E C T R O N S
 =====================================
  
 Symmetry: ATOM

 Irreducible Representations, including subspecies
 -------------------------------------------------
 S
 P:x  P:y  P:z
 D:z2  D:x2-y2  D:xy  D:xz  D:yz
 F:z3  F:z  F:xyz  F:z2x  F:z2y  F:x  F:y


 Configuration of Valence Electrons
 ==================================

          Occupation Numbers
          -------------------------------------------------
 S        1
 P        0
 D        0
 F        0
          -------------------------------------------------

 Total:   1

 Net Charge: 0 (Nuclei minus Electrons)

 Preset values for MO occupations will be applied through SCF cycle no. 1000000
 Thereafter, the program will assign electrons to MOs that are spatially
 similar to the occupied MOs in a "reference" cycle ("KeepOrbitals").
 The reference cycle is always the PREVIOUS cycle: it will evolve with
 the SCF procedure.



 ================================
 (Slater-type)  F U N C T I O N S  ***  (Basis and Fit)  ***
 ================================
  

 Atom Type    1  (H)
 ==============

 Valence Basis Sets:   2
 -----------------------
   1 S    0.760000
   1 S    1.280000


 BAS: List of all Elementary Cartesian Basis Functions
 =====================================================

 The numbering in the list below (to the right of the function characteristics) is referred
 to in print-outs of MO eigenvectors and Mulliken populations in the BAS representation
 (as contrasted to the SFO representation).

 Notes:
 1. The functions are characterized by a polynomial prefactor (powers of x,y,z and r) and
    an exponential decay factor alpha.
 2. Since the basis sets are specific for an atom TYPE, the individual functions occur on
    all atoms of that type.
 3. The word 'Core' in the left margin signals that it is a Core Function (CF) : not a
    degree of freedom in the valence set, but only used to ensure orthogonalization of
    the other valence basis functions on the frozen Core Orbitals.


 (power of) X  Y  Z  R     Alpha  on Atom
            ==========     =====     ==========

 H                                    1
                                  ---------------------------------------------------------------------------
            0  0  0  0     0.760      1
            0  0  0  0     1.280      2

 Total number of charge fitting functions (nprimf)        50
 Total number of Cartesian basis functions (naos)          2
 Total number of Cartesian core functions  (ncos)          0



 BAS: List of all Elementary Cartesian Basis Functions
 =====================================================

 The numbering in the list below (to the right of the function characteristics) is referred
 to in print-outs of MO eigenvectors and Mulliken populations in the BAS representation
 (as contrasted to the SFO representation).

 Notes:
 1. The functions are characterized by a polynomial prefactor (powers of x,y,z and r) and
    an exponential decay factor alpha.
 2. Since the basis sets are specific for an atom TYPE, the individual functions occur on
    all atoms of that type.
 3. The word 'Core' in the left margin signals that it is a Core Function (CF) : not a
    degree of freedom in the valence set, but only used to ensure orthogonalization of
    the other valence basis functions on the frozen Core Orbitals.


 (power of) X  Y  Z  R     Alpha  on Atom
            ==========     =====     ==========

 H                                    1
                                  ---------------------------------------------------------------------------
            0  0  0  0     0.760      1
            0  0  0  0     1.280      2
1
 ***************************************************************************************************



                                              ***********************
                                              *  T E C H N I C A L  *
                                              ***********************
  



 =============================================================
 P A R A L L E L I Z A T I O N  and  V E C T O R I Z A T I O N
 =============================================================
  
 Nr of parallel processes:                                1
 Maximum vector length in NumInt loops:                 128

 IO buffersize (Mb):                                     64.000000



 =====================
 S C F   U P D A T E S
 =====================
  
 Max. nr. of cycles:                               300
 Convergence criterion:                              0.0000000100
   secondary criterion:                              0.0000000100

 Mix parameter (when DIIS does not apply):           0.2000000000
 Special mix parameter for the first cycle:          1.0000000000
 Mixed ADIIS+DIIS will be used
    Max number of expansion vectors:                10
    Pure ADIIS when Max([F,P]) is above              0.1000000000
    Pure DIIS when Max([F,P]) is below               0.0010000000
 Automatic ElectronSmearing (in case of problematic SCF convergence) disabled



 =================
 P R E C I S I O N  ***  (General: NumInt, NeglectFunctionTails, ...)  ***
 =================
  

 NumInt:           Target precision:                12.0000000000
 -------           Initial precision:               10.0000000000
                   Min. precision (optimization):   10.0000000000

 Neglect Functions:          Basis functions:        0.1000000000E-13
 ------------------          Fit functions:          0.1000000000E-13



 ===========================
 L I N E A R   S C A L I N G
 ===========================
  

 Cut-off radii density fit:                        0.1000000000E-97
 Overlap cut-off criterion AO matrix elements:     0.1000000000E-97
 Cut-offs for Coulomb potential and fitted density:0.1000000000E-97
 Cut-off criterion for Coulomb multipole terms:    0.1000000000E-97
 Progressive Convergence parameter:                 0.000000000    
1
 ***************************************************************************************************



                                            ***************************
                                            *  C O M P U T A T I O N  *
                                            ***************************
  

 Number of elements of the density matrix on this node (used, total):         3         3



 ===========================================
 Numerical Integration : Fuzzy Cells (Becke)
 ===========================================
  
 Becke grid quality: VERYGOOD       
  
 Lebedev angular grid order:             min:  13 max:  41
 Nr. of radial points:                   min:  64 max:  64

 Total nr. of points:         64
 Nr. of blocks:                1
 Block length:                64
 Nr. of dummy points:          0


 Test of Precision of the Numerical Integration Grid
 ===================================================

 Integral of the Total Core Density:                   0.00000000000000



 ========================
 Density Fitting (zlmFit)
 ========================
  
 ZlmFit Fit Quality: VERYGOOD       
  
 Max L-expansion:                        min:   0 max:   0
 Nr. of radial interpolation points:     min: 120 max: 120



 =====
 S C F  ***  ScaSCF  ***
 =====
  

 CYCLE    1
 SCF Error: norm([F,P])=      0.000000000000, max([F,P])=      0.000000000000
 orbitals (Q,E):
 ---------------
 S :1...2            ( 1.00    -0.4984)  ( 0.00     0.1718)

 CYCLE    2
 SCF Error: norm([F,P])=      0.032630047150, max([F,P])=      0.032630047150
 orbitals (Q,E):
 ---------------
 S :1...2            ( 1.00    -0.2322)  ( 0.00     0.3990)

 CYCLE    3
  SDIIS (wt  0.000):  0.1397  0.8603
 A-DIIS (wt  1.000):  0.0000  1.0000
  DIIS coefficients:  0.0000  1.0000
 SCF Error: norm([F,P])=      0.005297679071, max([F,P])=      0.005297679071
 orbitals (Q,E):
 ---------------
 S :1...2            ( 1.00    -0.2468)  ( 0.00     0.3857)

 CYCLE    4
  SDIIS (wt  1.000):  0.1365  0.8635
  DIIS coefficients:  0.1365  0.8635
 SCF Error: norm([F,P])=      0.000837545921, max([F,P])=      0.000837545921
 orbitals (Q,E):
 ---------------
 S :1...2            ( 1.00    -0.2448)  ( 0.00     0.3875)

 CYCLE    5
  SDIIS (wt  1.000):  0.0006  0.9994
  DIIS coefficients:  0.0006  0.9994
 SCF Error: norm([F,P])=      0.000000515404, max([F,P])=      0.000000515404
 orbitals (Q,E):
 ---------------
 S :1...2            ( 1.00    -0.2448)  ( 0.00     0.3875)

 CYCLE    6
  SDIIS (wt  1.000): -0.0001  1.0001
  DIIS coefficients: -0.0001  1.0001
 SCF Error: norm([F,P])=      0.000000000049, max([F,P])=      0.000000000049
 orbitals (Q,E):
 ---------------
 S :1...2            ( 1.00    -0.2448)  ( 0.00     0.3875)

 SCF CONVERGED

 CYCLE    7
1
 ***************************************************************************************************



                                                *******************
                                                *  R E S U L T S  *
                                                *******************
  
 *** Setting up for NEW gradients in Focky
 *** Using FIT density in Focky

 Orbital Energies, per Irrep and Spin:
 ======================================
                        Occup              E (au)              E (eV)       Diff (eV) with prev. cycle
                        -----      --------------------        ------       --------------------------
 S
               1        1.000     -0.24479255472760E+00        -6.661               5.51E-14
               2        0.000      0.38753706793318E+00        10.545


 Partially Occupied:
               1 S                -0.24479255472760E+00
  
 LUMO :        2 S                 0.38753706793318E+00
  


 All Electron Calculation, thus no Orbital Energies of the Core Orbitals are calculated



 =======================================
 M U L L I K E N   P O P U L A T I O N S
 =======================================
  
 The survey below gives for each atom:
 a) the total charge (Z minus electrons)
 b) the net spin polarization (nr of electrons spin-A minus spin-B)
 c) for each spin the atomic electron valence density (integrated) per L-value.

 Atom              Charge    Spin density          S         P         D         F
 ----              ------    ------------       ------    ------    ------    ------
 1 H              -0.0000                       1.0000    0.0000    0.0000    0.0000

 Populations of individual BAS functions
 ----------------------------------------
 1 H            0.6464  0.3536

 Gross Charges per Atom (Z minus electrons)
 ==========================================
            -0.0000
 Net Total: -0.00000000



 =======================================================================
 Electrostatic potential at the Nuclei due to electrons and other nuclei
 =======================================================================
  
         Atom                  Potential
         ----                  ---------
     1)   H                   0.94385696
 
 
 ========================
 No memory problems found
 ========================
 
 Maximum number of active allocate calls:         265
 
 *******************************************************************************

                             A D F   E X I T
 NORMAL TERMINATION



 =================
 Timing Statistics
 =================
  
 Total Used :                     CPU=        0.38      System=        0.05     Elapsed=        0.47

 Calls  Section                     ( Mean, Percentage )
 ---------------------------------------------------------------------------------------------------
     3  ><      ................      0.00    0.09             0.00    2.00             0.00    0.36
     1  INIT    ................      0.01    3.69             0.03   60.29             0.04    9.22
     1  GEOMET  ................      0.01    3.23             0.01   11.61             0.02    3.82
     1  INPUTA  ................      0.00    0.49             0.00    6.40             0.00    1.03
     1  MAINSY  ................      0.01    1.77             0.00    1.62             0.01    2.75
     1  SYMFIT  ................      0.00    0.18             0.00    0.03             0.00    0.15
     1  CORORT  ................      0.00    0.11             0.00    0.12             0.00    0.13
     1  SYMORB  ................      0.00    0.15             0.00    0.03             0.00    0.13
     1  CLSMAT  ................      0.00    1.07             0.00    0.02             0.01    2.78
     1  ORTHON  ................      0.00    0.40             0.00    0.00             0.00    0.35
     1  GENPT   ................      0.01    2.68             0.00    0.00             0.01    2.26
     1  PTBAS   ................      0.01    1.38             0.00    0.00             0.01    2.72
     7  FOCKY   ................      0.04   66.51             0.00    5.83             0.04   55.16
     7  FOCKTR  ................      0.00    1.39             0.00    0.20             0.00    1.16
     7  SDIIS   ................      0.00    3.96             0.00    3.01             0.00    6.45
     1  COREPS  ................      0.02    5.80             0.00    4.29             0.02    5.17
     1  POPAN   ................      0.00    0.92             0.00    0.26             0.00    0.82
     1  DEBYE   ................      0.00    0.22             0.00    0.00             0.00    0.20
     1  EXIT PROCEDURE .........      0.02    5.96             0.00    4.31             0.02    5.35


 Currently Open Files (EXIT00)
 ====================

 Unit    Access Format  Status   Type       Ident (file)
 -------------------------------------------------------
   3      SEQ    FORM   TRANSP  NORMAL      LOGFILE
                                          ( logfile )


 Buffered I/O statistics
 =======================
 Memory available:                     67108864
 Number of records fitting in memory:     16131
 Input :   0.1% of                        11596  *4k bytes
 Output:  24.3% of                          523  *4k bytes
 Records from serial files evicted:           0
                    others evicted:           0
 Hash table lookups:      23519 with          0 conflicts (  0.00%)

 ***************************************************************************************************
 (LOGFILE)
 <Jun21-2019> <15:09:37>  ADF 2017  RunTime: Jun21-2019 15:09:37  Nodes: 1  Procs: 1
 <Jun21-2019> <15:09:37>  Hydrogen (DZ)
 <Jun21-2019> <15:09:37>  RunType   : CREATE
 <Jun21-2019> <15:09:37>  Net Charge: 0 (Nuclei minus Electrons)
 <Jun21-2019> <15:09:37>  Symmetry  : ATOM
  Coordinates
    Atom         X           Y           Z   (Angstrom)
    1.H         0.000000    0.000000    0.000000
 <Jun21-2019> <15:09:37>  >>>> CORORT
 <Jun21-2019> <15:09:37>  >>>> CLSMAT
 <Jun21-2019> <15:09:37>  >>>> ORTHON
 <Jun21-2019> <15:09:37>  >>>> GENPT
 <Jun21-2019> <15:09:37>  Block Length=  64
 <Jun21-2019> <15:09:37>  >>>> PTBAS
 <Jun21-2019> <15:09:38>  >>>> CYCLE
 <Jun21-2019> <15:09:38>              |Error|         MaxErr       Wt(A-DIIS)
 <Jun21-2019> <15:09:38>      1      0.00000000      0.00000000
 <Jun21-2019> <15:09:38>      2      0.03263005      0.03263005
 <Jun21-2019> <15:09:38>      3      0.00529768      0.00529768    100.0
 <Jun21-2019> <15:09:38>      4      0.00083755      0.00083755      0.0
 <Jun21-2019> <15:09:38>      5      0.00000052      0.00000052      0.0
 <Jun21-2019> <15:09:38>      6      0.00000000      0.00000000      0.0
 <Jun21-2019> <15:09:38>  SCF converged
 <Jun21-2019> <15:09:38>      7      0.00000000      0.00000000      0.0
 <Jun21-2019> <15:09:38>  >>>> POPAN
 <Jun21-2019> <15:09:38>  >>>> DEBYE
 <Jun21-2019> <15:09:38>  NORMAL TERMINATION
 <Jun21-2019> <15:09:38>  END

Create I   file=TZP-I
XC
XCFUN
GGA BP86
End
End Input

 *******************************************************************************
 *                                                                             *
 *  -------------------------------------                                      *
 *   Amsterdam Density Functional  (ADF)         2017                          *
 *  -------------------------------------                                      *
 *                                               r65426 2018-05-03             *
 *                                                                             *
 *                                                                             *
 *                              =================                              *
 *                              |               |                              *
 *                              |     A D F     |                              *
 *                              |               |                              *
 *                              =================                              *
 *                                                                             *
 *                                                                             *
 *   Online information and documentation:  https://www.scm.com/support/       *
 *   E-mail:  support@scm.com   info@scm.com                                   *
 *                                                                             *
 *   Scientific publications using ADF results must be properly referenced     *
 *   See the User Manuals (or the web site) for recommended citations          *
 *   The terms and conditions of the End User License Agreement apply to       *
 *   the use of ADF, https://www.scm.com/license-terms/                        *
 *                                                                             *
 **********************  x86_64_linux_intel / intelmpi  ************************
 
 Licensed to: Dr. Jochen Autschbach / University at Buffalo / Buffalo / NY / USA
 SCM User ID: u7467
  
 ADF 2017  RunTime: Jun21-2019 15:09:38  Nodes: 1  Procs: 1

 Temporary files are created in /scratch/2867672/kid_0.4VfHv9

 Iodine (TZP, all electron)



 ===========================
 A T T A C H E D   F I L E S
 ===========================
  
 CREATE - Data File:    TZP-I
                        Iodine (TZP, all electron)



 ===============================
 M O D E L   P A R A M E T E R S
 ===============================
  
 DENSITY FUNCTIONAL POTENTIAL (scf)
    LDA:                               VWN                                      
    Gradient Corrections:              Becke88 Perdew86                        == Not Default ==

  XC energy densities, potentials and kernels evaluated by XCFUN 


 SPIN  (restricted / unrestr.)
    Molecule:                          Restricted                               

 OTHER ASPECTS
    Relativistic Corrections:          ---                                      

    Nuclear Charge Density Model:      Point Charge Nuclei                      
    Core Treatment:                    Frozen Orbital(s)                        

    Hyperfine or Zeeman Interaction:   ---                                      



 =====================================
 S Y M M E T R Y ,   E L E C T R O N S
 =====================================
  
 Symmetry: ATOM

 Irreducible Representations, including subspecies
 -------------------------------------------------
 S
 P:x  P:y  P:z
 D:z2  D:x2-y2  D:xy  D:xz  D:yz
 F:z3  F:z  F:xyz  F:z2x  F:z2y  F:x  F:y


 Configuration of Valence Electrons
 ==================================

          Occupation Numbers
          -------------------------------------------------
 S        5*2
 P        3*6 5
 D        2*10
 F        0
          -------------------------------------------------

 Total:   53

 Net Charge: 0 (Nuclei minus Electrons)

 Preset values for MO occupations will be applied through SCF cycle no. 1000000
 Thereafter, the program will assign electrons to MOs that are spatially
 similar to the occupied MOs in a "reference" cycle ("KeepOrbitals").
 The reference cycle is always the PREVIOUS cycle: it will evolve with
 the SCF procedure.



 ================================
 (Slater-type)  F U N C T I O N S  ***  (Basis and Fit)  ***
 ================================
  

 Atom Type    1  (I)
 ==============

 Valence Basis Sets:  28
 -----------------------
   1 S  381.000000
   1 S   95.600000
   1 S   53.900000
   2 S   61.350000
   2 S   23.200000
   3 S   12.250000
   3 S    8.500000
   4 S    8.550000
   4 S    5.450000
   5 S    3.800000
   5 S    2.500000
   5 S    1.690000
   2 P   95.600000
   2 P   35.200000
   2 P   22.300000
   3 P   13.200000
   3 P    9.900000
   4 P    7.000000
   4 P    4.600000
   5 P    3.100000
   5 P    1.900000
   5 P    1.190000
   3 D   21.700000
   3 D   13.150000
   3 D    9.000000
   4 D    6.800000
   4 D    4.350000
   4 D    2.850000


 BAS: List of all Elementary Cartesian Basis Functions
 =====================================================

 The numbering in the list below (to the right of the function characteristics) is referred
 to in print-outs of MO eigenvectors and Mulliken populations in the BAS representation
 (as contrasted to the SFO representation).

 Notes:
 1. The functions are characterized by a polynomial prefactor (powers of x,y,z and r) and
    an exponential decay factor alpha.
 2. Since the basis sets are specific for an atom TYPE, the individual functions occur on
    all atoms of that type.
 3. The word 'Core' in the left margin signals that it is a Core Function (CF) : not a
    degree of freedom in the valence set, but only used to ensure orthogonalization of
    the other valence basis functions on the frozen Core Orbitals.


 (power of) X  Y  Z  R     Alpha  on Atom
            ==========     =====     ==========

 I                                    1
                                  ---------------------------------------------------------------------------
            0  0  0  0   381.000      1
            0  0  0  0    95.600      2
            0  0  0  0    53.900      3
            0  0  0  1    61.350      4
            0  0  0  1    23.200      5
            0  0  0  2    12.250      6
            0  0  0  2     8.500      7
            0  0  0  3     8.550      8
            0  0  0  3     5.450      9
            0  0  0  4     3.800     10
            0  0  0  4     2.500     11
            0  0  0  4     1.690     12
            1  0  0  0    95.600     13
            0  1  0  0    95.600     14
            0  0  1  0    95.600     15
            1  0  0  0    35.200     16
            0  1  0  0    35.200     17
            0  0  1  0    35.200     18
            1  0  0  0    22.300     19
            0  1  0  0    22.300     20
            0  0  1  0    22.300     21
            1  0  0  1    13.200     22
            0  1  0  1    13.200     23
            0  0  1  1    13.200     24
            1  0  0  1     9.900     25
            0  1  0  1     9.900     26
            0  0  1  1     9.900     27
            1  0  0  2     7.000     28
            0  1  0  2     7.000     29
            0  0  1  2     7.000     30
            1  0  0  2     4.600     31
            0  1  0  2     4.600     32
            0  0  1  2     4.600     33
            1  0  0  3     3.100     34
            0  1  0  3     3.100     35
            0  0  1  3     3.100     36
            1  0  0  3     1.900     37
            0  1  0  3     1.900     38
            0  0  1  3     1.900     39
            1  0  0  3     1.190     40
            0  1  0  3     1.190     41
            0  0  1  3     1.190     42
            2  0  0  0    21.700     43
            1  1  0  0    21.700     44
            1  0  1  0    21.700     45
            0  2  0  0    21.700     46
            0  1  1  0    21.700     47
            0  0  2  0    21.700     48
            2  0  0  0    13.150     49
            1  1  0  0    13.150     50
            1  0  1  0    13.150     51
            0  2  0  0    13.150     52
            0  1  1  0    13.150     53
            0  0  2  0    13.150     54
            2  0  0  0     9.000     55
            1  1  0  0     9.000     56
            1  0  1  0     9.000     57
            0  2  0  0     9.000     58
            0  1  1  0     9.000     59
            0  0  2  0     9.000     60
            2  0  0  1     6.800     61
            1  1  0  1     6.800     62
            1  0  1  1     6.800     63
            0  2  0  1     6.800     64
            0  1  1  1     6.800     65
            0  0  2  1     6.800     66
            2  0  0  1     4.350     67
            1  1  0  1     4.350     68
            1  0  1  1     4.350     69
            0  2  0  1     4.350     70
            0  1  1  1     4.350     71
            0  0  2  1     4.350     72
            2  0  0  1     2.850     73
            1  1  0  1     2.850     74
            1  0  1  1     2.850     75
            0  2  0  1     2.850     76
            0  1  1  1     2.850     77
            0  0  2  1     2.850     78

 Total number of charge fitting functions (nprimf)       277
 Total number of Cartesian basis functions (naos)         78
 Total number of Cartesian core functions  (ncos)          0



 BAS: List of all Elementary Cartesian Basis Functions
 =====================================================

 The numbering in the list below (to the right of the function characteristics) is referred
 to in print-outs of MO eigenvectors and Mulliken populations in the BAS representation
 (as contrasted to the SFO representation).

 Notes:
 1. The functions are characterized by a polynomial prefactor (powers of x,y,z and r) and
    an exponential decay factor alpha.
 2. Since the basis sets are specific for an atom TYPE, the individual functions occur on
    all atoms of that type.
 3. The word 'Core' in the left margin signals that it is a Core Function (CF) : not a
    degree of freedom in the valence set, but only used to ensure orthogonalization of
    the other valence basis functions on the frozen Core Orbitals.


 (power of) X  Y  Z  R     Alpha  on Atom
            ==========     =====     ==========

 I                                    1
                                  ---------------------------------------------------------------------------
            0  0  0  0   381.000      1
            0  0  0  0    95.600      2
            0  0  0  0    53.900      3
            0  0  0  1    61.350      4
            0  0  0  1    23.200      5
            0  0  0  2    12.250      6
            0  0  0  2     8.500      7
            0  0  0  3     8.550      8
            0  0  0  3     5.450      9
            0  0  0  4     3.800     10
            0  0  0  4     2.500     11
            0  0  0  4     1.690     12
            1  0  0  0    95.600     13
            0  1  0  0    95.600     14
            0  0  1  0    95.600     15
            1  0  0  0    35.200     16
            0  1  0  0    35.200     17
            0  0  1  0    35.200     18
            1  0  0  0    22.300     19
            0  1  0  0    22.300     20
            0  0  1  0    22.300     21
            1  0  0  1    13.200     22
            0  1  0  1    13.200     23
            0  0  1  1    13.200     24
            1  0  0  1     9.900     25
            0  1  0  1     9.900     26
            0  0  1  1     9.900     27
            1  0  0  2     7.000     28
            0  1  0  2     7.000     29
            0  0  1  2     7.000     30
            1  0  0  2     4.600     31
            0  1  0  2     4.600     32
            0  0  1  2     4.600     33
            1  0  0  3     3.100     34
            0  1  0  3     3.100     35
            0  0  1  3     3.100     36
            1  0  0  3     1.900     37
            0  1  0  3     1.900     38
            0  0  1  3     1.900     39
            1  0  0  3     1.190     40
            0  1  0  3     1.190     41
            0  0  1  3     1.190     42
            2  0  0  0    21.700     43
            1  1  0  0    21.700     44
            1  0  1  0    21.700     45
            0  2  0  0    21.700     46
            0  1  1  0    21.700     47
            0  0  2  0    21.700     48
            2  0  0  0    13.150     49
            1  1  0  0    13.150     50
            1  0  1  0    13.150     51
            0  2  0  0    13.150     52
            0  1  1  0    13.150     53
            0  0  2  0    13.150     54
            2  0  0  0     9.000     55
            1  1  0  0     9.000     56
            1  0  1  0     9.000     57
            0  2  0  0     9.000     58
            0  1  1  0     9.000     59
            0  0  2  0     9.000     60
            2  0  0  1     6.800     61
            1  1  0  1     6.800     62
            1  0  1  1     6.800     63
            0  2  0  1     6.800     64
            0  1  1  1     6.800     65
            0  0  2  1     6.800     66
            2  0  0  1     4.350     67
            1  1  0  1     4.350     68
            1  0  1  1     4.350     69
            0  2  0  1     4.350     70
            0  1  1  1     4.350     71
            0  0  2  1     4.350     72
            2  0  0  1     2.850     73
            1  1  0  1     2.850     74
            1  0  1  1     2.850     75
            0  2  0  1     2.850     76
            0  1  1  1     2.850     77
            0  0  2  1     2.850     78
1
 ***************************************************************************************************



                                              ***********************
                                              *  T E C H N I C A L  *
                                              ***********************
  



 =============================================================
 P A R A L L E L I Z A T I O N  and  V E C T O R I Z A T I O N
 =============================================================
  
 Nr of parallel processes:                                1
 Maximum vector length in NumInt loops:                 128

 IO buffersize (Mb):                                     64.000000



 =====================
 S C F   U P D A T E S
 =====================
  
 Max. nr. of cycles:                               300
 Convergence criterion:                              0.0000000100
   secondary criterion:                              0.0000000100

 Mix parameter (when DIIS does not apply):           0.2000000000
 Special mix parameter for the first cycle:          1.0000000000
 Mixed ADIIS+DIIS will be used
    Max number of expansion vectors:                10
    Pure ADIIS when Max([F,P]) is above              0.1000000000
    Pure DIIS when Max([F,P]) is below               0.0010000000
 Automatic ElectronSmearing (in case of problematic SCF convergence) disabled



 =================
 P R E C I S I O N  ***  (General: NumInt, NeglectFunctionTails, ...)  ***
 =================
  

 NumInt:           Target precision:                12.0000000000
 -------           Initial precision:               10.0000000000
                   Min. precision (optimization):   10.0000000000

 Neglect Functions:          Basis functions:        0.1000000000E-13
 ------------------          Fit functions:          0.1000000000E-13



 ===========================
 L I N E A R   S C A L I N G
 ===========================
  

 Cut-off radii density fit:                        0.1000000000E-97
 Overlap cut-off criterion AO matrix elements:     0.1000000000E-97
 Cut-offs for Coulomb potential and fitted density:0.1000000000E-97
 Cut-off criterion for Coulomb multipole terms:    0.1000000000E-97
 Progressive Convergence parameter:                 0.000000000    
1
 ***************************************************************************************************



                                            ***************************
                                            *  C O M P U T A T I O N  *
                                            ***************************
  

 Number of elements of the density matrix on this node (used, total):      3081      3081



 ===========================================
 Numerical Integration : Fuzzy Cells (Becke)
 ===========================================
  
 Becke grid quality: VERYGOOD       
  
 Lebedev angular grid order:             min:  13 max:  41
 Nr. of radial points:                   min: 175 max: 175

 Total nr. of points:        175
 Nr. of blocks:                2
 Block length:                88
 Nr. of dummy points:          1


 Test of Precision of the Numerical Integration Grid
 ===================================================

 Integral of the Total Core Density:                   0.00000000000000



 ========================
 Density Fitting (zlmFit)
 ========================
  
 ZlmFit Fit Quality: VERYGOOD       
  
 Max L-expansion:                        min:   0 max:   0
 Nr. of radial interpolation points:     min: 420 max: 420



 =====
 S C F  ***  ScaSCF  ***
 =====
  

 CYCLE    1
 SCF Error: norm([F,P])=      0.000000000000, max([F,P])=      0.000000000000
 orbitals (Q,E):
 ---------------
 S :1...12           ( 2.00 -1404.4991)  ( 2.00  -351.0857)  ( 2.00  -155.8944)  ( 2.00   -87.5542)
                     ( 2.00   -55.8195)  ( 0.00   -38.4471)  ( 0.00   -27.4117)  ( 0.00   -18.8653)
                     ( 0.00   -12.1736)  ( 0.00   762.4080)  ( 0.00  7729.7765)  ( 0.00 98318.2782)
 P :1...10           ( 6.00  -351.0144)  ( 6.00  -155.7182)  ( 6.00   -87.5661)  ( 5.00   -55.7712)
                     ( 0.00   -37.5360)  ( 0.00   -24.8046)  ( 0.00   -15.6587)  ( 0.00    -9.3818)
                     ( 0.00   155.0142)  ( 0.00  3835.6458)
 D :1...6            (10.00  -155.9204)  (10.00   -87.3892)  ( 0.00   -55.2011)  ( 0.00   -36.4565)
                     ( 0.00   -23.3565)  ( 0.00     8.4082)

 CYCLE    2
  SDIIS (wt  0.000):  1.0000 -0.0000
 A-DIIS (wt  1.000):  0.0000  1.0000
  DIIS coefficients:  0.0000  1.0000
 SCF Error: norm([F,P])=    292.938840213234, max([F,P])=     43.533718689544
 orbitals (Q,E):
 ---------------
 S :1...6            ( 2.00 -1088.5072)  ( 2.00  -119.6606)  ( 2.00    -7.2315)  ( 2.00     0.0224)
                     ( 2.00     0.4657)  ( 0.00     1.8890)
 P :1...5            ( 6.00  -105.7612)  ( 6.00    -2.7816)  ( 6.00     0.0435)  ( 5.00     0.3739)
                     ( 0.00     1.4959)
 D :1...3            (10.00     1.2789)  (10.00     3.8307)  ( 0.00     7.7542)

 CYCLE    3
  SDIIS (wt  0.000):  0.1855  0.8145
 A-DIIS (wt  1.000):  0.4257  0.5743
  DIIS coefficients:  0.4257  0.5743
 SCF Error: norm([F,P])=    134.216125738690, max([F,P])=     29.901944861298
 orbitals (Q,E):
 ---------------
 S :1...6            ( 2.00 -1168.0309)  ( 2.00  -183.2735)  ( 2.00   -43.6418)  ( 2.00   -11.8951)
                     ( 2.00    -3.1813)  ( 0.00    -0.6277)
 P :1...5            ( 6.00  -172.3140)  ( 6.00   -39.3872)  ( 6.00   -10.2696)  ( 5.00    -2.5541)
                     ( 0.00    -0.4074)
 D :1...3            (10.00   -31.4813)  (10.00    -7.3955)  ( 0.00    -1.5292)

 CYCLE    4
  SDIIS (wt  0.000):  0.0014  0.0152  0.9834
 A-DIIS (wt  1.000):  0.0000  0.0000  1.0000
  DIIS coefficients:  0.0000  0.0000  1.0000
 SCF Error: norm([F,P])=     18.249099042240, max([F,P])=      4.243851861583
 orbitals (Q,E):
 ---------------
 S :1...6            ( 2.00 -1154.9229)  ( 2.00  -167.5450)  ( 2.00   -29.3537)  ( 2.00    -2.8950)
                     ( 2.00     0.2723)  ( 0.00     1.6798)
 P :1...5            ( 6.00  -156.9579)  ( 6.00   -24.9601)  ( 6.00    -1.5553)  ( 5.00     0.3624)
                     ( 0.00     0.7288)
 D :1...3            (10.00   -16.4776)  (10.00     0.4201)  ( 0.00     1.9815)

 CYCLE    5
  SDIIS (wt  0.000):  0.0014 -0.0118  0.5461  0.4643
 A-DIIS (wt  1.000):  0.0000  0.0000  0.6092  0.3908
  DIIS coefficients:  0.0000  0.0000  0.6092  0.3908
 SCF Error: norm([F,P])=     20.916825156513, max([F,P])=      6.277772851610
 orbitals (Q,E):
 ---------------
 S :1...6            ( 2.00 -1162.3868)  ( 2.00  -174.3883)  ( 2.00   -34.6501)  ( 2.00    -5.9579)
                     ( 2.00    -0.6031)  ( 0.00     0.8254)
 P :1...5            ( 6.00  -163.9412)  ( 6.00   -30.3250)  ( 6.00    -4.4476)  ( 5.00    -0.2202)
                     ( 0.00     0.2629)
 D :1...3            (10.00   -22.0416)  (10.00    -1.8403)  ( 0.00     0.6307)

 CYCLE    6
  SDIIS (wt  0.000):  0.0003  0.0001  0.0575 -0.0396  0.9816
 A-DIIS (wt  1.000):  0.0000  0.0000  0.0000  0.0000  1.0000
  DIIS coefficients:  0.0000  0.0000  0.0000  0.0000  1.0000
 SCF Error: norm([F,P])=      1.923372446933, max([F,P])=      0.537556811589
 orbitals (Q,E):
 ---------------
 S :1...6            ( 2.00 -1163.4038)  ( 2.00  -175.3490)  ( 2.00   -35.2223)  ( 2.00    -5.9508)
                     ( 2.00    -0.4223)  ( 0.00     0.2074)
 P :1...5            ( 6.00  -164.9245)  ( 6.00   -30.9173)  ( 6.00    -4.4208)  ( 5.00    -0.1286)
                     ( 0.00     0.1344)
 D :1...3            (10.00   -22.6964)  (10.00    -1.7614)  ( 0.00     0.8169)

 CYCLE    7
  SDIIS (wt  0.000): -0.0001  0.0002  0.0089 -0.0027  0.4171  0.5767
 A-DIIS (wt  1.000):  0.0000  0.0000  0.0000  0.0000  0.0000  1.0000
  DIIS coefficients:  0.0000  0.0000  0.0000  0.0000  0.0000  1.0000
 SCF Error: norm([F,P])=      1.156928803829, max([F,P])=      0.290529137216
 orbitals (Q,E):
 ---------------
 S :1...6            ( 2.00 -1162.9612)  ( 2.00  -175.0320)  ( 2.00   -35.2093)  ( 2.00    -6.2354)
                     ( 2.00    -0.7031)  ( 0.00     0.0626)
 P :1...5            ( 6.00  -164.5781)  ( 6.00   -30.8905)  ( 6.00    -4.7144)  ( 5.00    -0.3620)
                     ( 0.00     0.0572)
 D :1...3            (10.00   -22.6295)  (10.00    -2.0757)  ( 0.00     0.5372)

 CYCLE    8
  SDIIS (wt  0.000): -0.0000 -0.0000 -0.0021  0.0020  0.0106  0.3740  0.6156
 A-DIIS (wt  1.000):  0.0000  0.0000  0.0000  0.0000  0.0000  0.0464  0.9536
  DIIS coefficients:  0.0000  0.0000  0.0000  0.0000  0.0000  0.0464  0.9536
 SCF Error: norm([F,P])=      0.596179168753, max([F,P])=      0.132954835208
 orbitals (Q,E):
 ---------------
 S :1...6            ( 2.00 -1163.1372)  ( 2.00  -175.1317)  ( 2.00   -35.1470)  ( 2.00    -6.0385)
                     ( 2.00    -0.5421)  ( 0.00     0.1386)
 P :1...5            ( 6.00  -164.6948)  ( 6.00   -30.8353)  ( 6.00    -4.5146)  ( 5.00    -0.2279)
                     ( 0.00     0.1116)
 D :1...3            (10.00   -22.5947)  (10.00    -1.8700)  ( 0.00     0.6989)

 CYCLE    9
  SDIIS (wt  0.561):  0.0000 -0.0000  0.0007 -0.0007 -0.0016  0.0943  0.3925  0.5148
 A-DIIS (wt  0.439):  0.0000  0.0000  0.0000  0.0000  0.0000  0.0000  0.0280  0.9720
  DIIS coefficients:  0.0000 -0.0000  0.0004 -0.0004 -0.0009  0.0529  0.2323  0.7157
 SCF Error: norm([F,P])=      0.222961028502, max([F,P])=      0.044508828376
 orbitals (Q,E):
 ---------------
 S :1...6            ( 2.00 -1163.1184)  ( 2.00  -175.1392)  ( 2.00   -35.2083)  ( 2.00    -6.1355)
                     ( 2.00    -0.6057)  ( 0.00     0.1093)
 P :1...5            ( 6.00  -164.6964)  ( 6.00   -30.8943)  ( 6.00    -4.6118)  ( 5.00    -0.2792)
                     ( 0.00     0.0915)
 D :1...3            (10.00   -22.6470)  (10.00    -1.9668)  ( 0.00     0.6338)

 CYCLE   10
  SDIIS (wt  0.894): -0.0000 -0.0000 -0.0002  0.0001 -0.0080 -0.0028  0.1287  0.3645  0.5177
 A-DIIS (wt  0.106):  0.0000  0.0000  0.0000  0.0000  0.0000  0.0000  0.0000  0.0000  1.0000
  DIIS coefficients: -0.0000 -0.0000 -0.0001  0.0001 -0.0071 -0.0025  0.1151  0.3260  0.5687
 SCF Error: norm([F,P])=      0.052742824193, max([F,P])=      0.011460962544
 orbitals (Q,E):
 ---------------
 S :1...6            ( 2.00 -1163.0999)  ( 2.00  -175.1177)  ( 2.00   -35.1808)  ( 2.00    -6.1065)
                     ( 2.00    -0.5891)  ( 0.00     0.1161)
 P :1...5            ( 6.00  -164.6756)  ( 6.00   -30.8670)  ( 6.00    -4.5830)  ( 5.00    -0.2659)
                     ( 0.00     0.0968)
 D :1...3            (10.00   -22.6205)  (10.00    -1.9389)  ( 0.00     0.6510)

 CYCLE   11
  SDIIS (wt  0.992):  0.0000  0.0000 -0.0000 -0.0000 -0.0000 -0.0006  0.0007  0.0230  0.1326  0.8442
 A-DIIS (wt  0.008):  0.0000  0.0000  0.0000  0.0000  0.0000  0.0000  0.0000  0.0000  0.0000  1.0000
  DIIS coefficients:  0.0000  0.0000 -0.0000 -0.0000 -0.0000 -0.0006  0.0007  0.0229  0.1316  0.8454
 SCF Error: norm([F,P])=      0.006393629687, max([F,P])=      0.001754434848
 orbitals (Q,E):
 ---------------
 S :1...6            ( 2.00 -1163.1027)  ( 2.00  -175.1205)  ( 2.00   -35.1834)  ( 2.00    -6.1087)
                     ( 2.00    -0.5901)  ( 0.00     0.1159)
 P :1...5            ( 6.00  -164.6784)  ( 6.00   -30.8696)  ( 6.00    -4.5852)  ( 5.00    -0.2666)
                     ( 0.00     0.0964)
 D :1...3            (10.00   -22.6231)  (10.00    -1.9409)  ( 0.00     0.6500)

 CYCLE   12
  SDIIS (wt  1.000):  0.0000  0.0000 -0.0000  0.0000 -0.0001  0.0004  0.0025  0.0071  0.0186  0.9714
  DIIS coefficients:  0.0000  0.0000 -0.0000  0.0000 -0.0001  0.0004  0.0025  0.0071  0.0186  0.9714
 SCF Error: norm([F,P])=      0.000070960166, max([F,P])=      0.000020128499
 orbitals (Q,E):
 ---------------
 S :1...6            ( 2.00 -1163.1027)  ( 2.00  -175.1205)  ( 2.00   -35.1834)  ( 2.00    -6.1088)
                     ( 2.00    -0.5901)  ( 0.00     0.1158)
 P :1...5            ( 6.00  -164.6784)  ( 6.00   -30.8697)  ( 6.00    -4.5853)  ( 5.00    -0.2666)
                     ( 0.00     0.0964)
 D :1...3            (10.00   -22.6231)  (10.00    -1.9410)  ( 0.00     0.6499)

 CYCLE   13
  SDIIS (wt  1.000): -0.0000  0.0000 -0.0000  0.0000  0.0000  0.0001  0.0002 -0.0002  0.0296  0.9703
  DIIS coefficients: -0.0000  0.0000 -0.0000  0.0000  0.0000  0.0001  0.0002 -0.0002  0.0296  0.9703
 SCF Error: norm([F,P])=      0.000003934016, max([F,P])=      0.000000960694
 orbitals (Q,E):
 ---------------
 S :1...6            ( 2.00 -1163.1027)  ( 2.00  -175.1205)  ( 2.00   -35.1834)  ( 2.00    -6.1088)
                     ( 2.00    -0.5901)  ( 0.00     0.1158)
 P :1...5            ( 6.00  -164.6784)  ( 6.00   -30.8697)  ( 6.00    -4.5853)  ( 5.00    -0.2666)
                     ( 0.00     0.0964)
 D :1...3            (10.00   -22.6231)  (10.00    -1.9410)  ( 0.00     0.6499)

 CYCLE   14
  SDIIS (wt  1.000):  0.0000  0.0000  0.0000 -0.0000 -0.0000 -0.0000 -0.0033  0.0306  0.9727
  DIIS coefficients:  0.0000  0.0000  0.0000 -0.0000 -0.0000 -0.0000 -0.0033  0.0306  0.9727
 SCF Error: norm([F,P])=      0.000000254563, max([F,P])=      0.000000056299
 orbitals (Q,E):
 ---------------
 S :1...6            ( 2.00 -1163.1027)  ( 2.00  -175.1205)  ( 2.00   -35.1834)  ( 2.00    -6.1088)
                     ( 2.00    -0.5901)  ( 0.00     0.1158)
 P :1...5            ( 6.00  -164.6784)  ( 6.00   -30.8697)  ( 6.00    -4.5853)  ( 5.00    -0.2666)
                     ( 0.00     0.0964)
 D :1...3            (10.00   -22.6231)  (10.00    -1.9410)  ( 0.00     0.6499)

 CYCLE   15
  SDIIS (wt  1.000): -0.0000 -0.0000 -0.0000 -0.0026 -0.0113  1.0139
  DIIS coefficients: -0.0000 -0.0000 -0.0000 -0.0026 -0.0113  1.0139
 SCF Error: norm([F,P])=      0.000000004291, max([F,P])=      0.000000001022
 orbitals (Q,E):
 ---------------
 S :1...6            ( 2.00 -1163.1027)  ( 2.00  -175.1205)  ( 2.00   -35.1834)  ( 2.00    -6.1088)
                     ( 2.00    -0.5901)  ( 0.00     0.1158)
 P :1...5            ( 6.00  -164.6784)  ( 6.00   -30.8697)  ( 6.00    -4.5853)  ( 5.00    -0.2666)
                     ( 0.00     0.0964)
 D :1...3            (10.00   -22.6231)  (10.00    -1.9410)  ( 0.00     0.6499)

 SCF CONVERGED

 CYCLE   16
1
 ***************************************************************************************************



                                                *******************
                                                *  R E S U L T S  *
                                                *******************
  
 *** Setting up for NEW gradients in Focky
 *** Using FIT density in Focky

 Orbital Energies, per Irrep and Spin:
 ======================================
                        Occup              E (au)              E (eV)       Diff (eV) with prev. cycle
                        -----      --------------------        ------       --------------------------
 S
               1        2.000     -0.11631027423366E+04    -31649.636              -4.68E-09
               2        2.000     -0.17512049638343E+03     -4765.271              -4.33E-09
               3        2.000     -0.35183418049899E+02      -957.390              -5.14E-09
               4        2.000     -0.61087923768509E+01      -166.229              -5.26E-09
               5        2.000     -0.59010288899245E+00       -16.058              -4.16E-09
               6        0.000      0.11584487704015E+00         3.152
               7        0.000      0.14334025025903E+01        39.005
               8        0.000      0.79278762473673E+01       215.728
               9        0.000      0.50783940834695E+02      1381.901
              10        0.000      0.96885376445886E+03     26363.852
              11        0.000      0.79702150637768E+04    216880.587
              12        0.000      0.98562048123812E+05   2682009.791
 P
               1        6.000     -0.16467842726078E+03     -4481.128              -4.51E-09
               2        6.000     -0.30869666712184E+02      -840.006              -5.04E-09
               3        6.000     -0.45852618156209E+01      -124.771              -5.24E-09
               4        5.000     -0.26662040365744E+00        -7.255              -3.61E-09
               5        0.000      0.96416613834350E-01         2.624
               6        0.000      0.80998223794799E+00        22.041
               7        0.000      0.49604331899602E+01       134.980
               8        0.000      0.33011051825691E+02       898.276
               9        0.000      0.32927196089818E+03      8959.946
              10        0.000      0.40708910284574E+04    110774.581
 D
               1       10.000     -0.22623142358966E+02      -615.607              -4.87E-09
               2       10.000     -0.19409849330261E+01       -52.817              -5.21E-09
               3        0.000      0.64993530078900E+00        17.686
               4        0.000      0.51007075587258E+01       138.797
               5        0.000      0.25825888408309E+02       702.758
               6        0.000      0.14595170351143E+03      3971.548


 Partially Occupied:
               4 P                -0.26662040365744E+00
  
 HOMO :        5 S                -0.59010288899245E+00
 LUMO :        5 P                 0.96416613834350E-01
  


 Orbital Energies, all Irreps
 ========================================

 Irrep        no.  (spin)   Occup              E (au)                E (eV)
 ---------------------------------------------------------------------------
 S             1             2.00       -0.11631027423366E+04    -31649.6360
 S             2             2.00       -0.17512049638343E+03     -4765.2712
 P             1             6.00       -0.16467842726078E+03     -4481.1280
 S             3             2.00       -0.35183418049899E+02      -957.3895
 P             2             6.00       -0.30869666712184E+02      -840.0064
 D             1            10.00       -0.22623142358966E+02      -615.6070
 S             4             2.00       -0.61087923768509E+01      -166.2287
 P             3             6.00       -0.45852618156209E+01      -124.7713
 D             2            10.00       -0.19409849330261E+01       -52.8169
 S             5             2.00       -0.59010288899245E+00       -16.0575
 P             4             5.00       -0.26662040365744E+00        -7.2551
 P             5             0.00        0.96416613834350E-01         2.6236
 S             6             0.00        0.11584487704015E+00         3.1523
 D             3             0.00        0.64993530078900E+00        17.6856
 P             6             0.00        0.80998223794799E+00        22.0407
 S             7             0.00        0.14334025025903E+01        39.0049
 P             7             0.00        0.49604331899602E+01       134.9803
 D             4             0.00        0.51007075587258E+01       138.7973
 S             8             0.00        0.79278762473673E+01       215.7285
 D             5             0.00        0.25825888408309E+02       702.7582
 P             8             0.00        0.33011051825691E+02       898.2764
 S             9             0.00        0.50783940834695E+02      1381.9013
 D             6             0.00        0.14595170351143E+03      3971.5479
 P             9             0.00        0.32927196089818E+03      8959.9459
 S            10             0.00        0.96885376445886E+03     26363.8523
 P            10             0.00        0.40708910284574E+04    110774.5811
 S            11             0.00        0.79702150637768E+04    216880.5868
 S            12             0.00        0.98562048123812E+05   2682009.7911


 All Electron Calculation, thus no Orbital Energies of the Core Orbitals are calculated



 =======================================
 M U L L I K E N   P O P U L A T I O N S
 =======================================
  
 The survey below gives for each atom:
 a) the total charge (Z minus electrons)
 b) the net spin polarization (nr of electrons spin-A minus spin-B)
 c) for each spin the atomic electron valence density (integrated) per L-value.

 Atom              Charge    Spin density          S         P         D         F
 ----              ------    ------------       ------    ------    ------    ------
 1 I              -0.0000                      10.0000   23.0000   20.0000    0.0000

 Populations of individual BAS functions
 ----------------------------------------
 1 I           -0.0004  0.1500  1.7461 -0.0065  2.0168  0.9127  1.3175  0.7403  1.0879  0.6875
                1.1632  0.1850 -0.0005 -0.0005 -0.0005  0.2857  0.2857  0.2857  1.6944  1.6944
                1.6944  1.1761  1.1761  1.1761  0.8155  0.8155  0.8155  1.2807  1.2807  1.2807
                0.7734  0.7734  0.7734  0.6658  0.6658  0.6658  0.8622  0.8622  0.8622  0.1131
                0.1131  0.1131  0.1270  0.1905  0.1905  0.1270  0.1905  0.1270  0.8330  1.2495
                1.2495  0.8330  1.2495  0.8330  0.3828  0.5742  0.5742  0.3828  0.5742  0.3828
                0.5316  0.7974  0.7974  0.5316  0.7974  0.5316  0.6828  1.0242  1.0242  0.6828
                1.0242  0.6828  0.1095  0.1642  0.1642  0.1095  0.1642  0.1095

 Gross Charges per Atom (Z minus electrons)
 ==========================================
            -0.0000
 Net Total: -0.00000000



 =======================================================================
 Electrostatic potential at the Nuclei due to electrons and other nuclei
 =======================================================================
  
         Atom                  Potential
         ----                  ---------
     1)   I                 310.18408653
 
 
 ========================
 No memory problems found
 ========================
 
 Maximum number of active allocate calls:         361
 
 *******************************************************************************

                             A D F   E X I T
 NORMAL TERMINATION



 =================
 Timing Statistics
 =================
  
 Total Used :                     CPU=        3.17      System=        0.11     Elapsed=        3.29

 Calls  Section                     ( Mean, Percentage )
 ---------------------------------------------------------------------------------------------------
     3  ><      ................      0.00    0.04             0.00    0.01             0.00    0.25
     1  INIT    ................      0.01    0.39             0.03   27.36             0.04    1.31
     1  GEOMET  ................      0.01    0.42             0.00    4.67             0.02    0.56
     1  INPUTA  ................      0.00    0.10             0.00    2.44             0.01    0.17
     1  MAINSY  ................      0.01    0.21             0.00    1.49             0.01    0.27
     1  SYMFIT  ................      0.00    0.01             0.00    0.30             0.00    0.02
     1  CORORT  ................      0.00    0.00             0.00    0.46             0.00    0.02
     1  SYMORB  ................      0.00    0.02             0.00    0.21             0.00    0.03
     1  CLSMAT  ................      0.01    0.20             0.00    0.25             0.01    0.21
     1  ORTHON  ................      0.00    0.06             0.00    0.83             0.00    0.09
     1  GENPT   ................      0.04    1.25             0.00    0.74             0.04    1.24
     1  PTBAS   ................      0.00    0.16             0.00    1.80             0.01    0.33
    16  FOCKY   ................      0.18   89.18             0.00   41.72             0.18   87.15
    16  FOCKTR  ................      0.00    0.63             0.00    2.55             0.00    0.69
    16  SDIIS   ................      0.00    1.19             0.00    5.49             0.00    1.43
     1  COREPS  ................      0.15    4.88             0.00    3.19             0.16    4.80
     1  POPAN   ................      0.01    0.21             0.00    0.00             0.01    0.21
     1  DEBYE   ................      0.00    0.05             0.00    0.00             0.00    0.06
     1  EXIT PROCEDURE .........      0.03    0.98             0.01    6.49             0.04    1.16


 Currently Open Files (EXIT00)
 ====================

 Unit    Access Format  Status   Type       Ident (file)
 -------------------------------------------------------
   3      SEQ    FORM   TRANSP  NORMAL      LOGFILE
                                          ( logfile )


 Buffered I/O statistics
 =======================
 Memory available:                     67108864
 Number of records fitting in memory:     16131
 Input :   0.1% of                        25419  *4k bytes
 Output:  12.3% of                         1329  *4k bytes
 Records from serial files evicted:           0
                    others evicted:           0
 Hash table lookups:      53884 with          0 conflicts (  0.00%)

 ***************************************************************************************************
 (LOGFILE)
 <Jun21-2019> <15:09:37>  ADF 2017  RunTime: Jun21-2019 15:09:37  Nodes: 1  Procs: 1
 <Jun21-2019> <15:09:37>  Hydrogen (DZ)
 <Jun21-2019> <15:09:37>  RunType   : CREATE
 <Jun21-2019> <15:09:37>  Net Charge: 0 (Nuclei minus Electrons)
 <Jun21-2019> <15:09:37>  Symmetry  : ATOM
  Coordinates
    Atom         X           Y           Z   (Angstrom)
    1.H         0.000000    0.000000    0.000000
 <Jun21-2019> <15:09:37>  >>>> CORORT
 <Jun21-2019> <15:09:37>  >>>> CLSMAT
 <Jun21-2019> <15:09:37>  >>>> ORTHON
 <Jun21-2019> <15:09:37>  >>>> GENPT
 <Jun21-2019> <15:09:37>  Block Length=  64
 <Jun21-2019> <15:09:37>  >>>> PTBAS
 <Jun21-2019> <15:09:38>  >>>> CYCLE
 <Jun21-2019> <15:09:38>              |Error|         MaxErr       Wt(A-DIIS)
 <Jun21-2019> <15:09:38>      1      0.00000000      0.00000000
 <Jun21-2019> <15:09:38>      2      0.03263005      0.03263005
 <Jun21-2019> <15:09:38>      3      0.00529768      0.00529768    100.0
 <Jun21-2019> <15:09:38>      4      0.00083755      0.00083755      0.0
 <Jun21-2019> <15:09:38>      5      0.00000052      0.00000052      0.0
 <Jun21-2019> <15:09:38>      6      0.00000000      0.00000000      0.0
 <Jun21-2019> <15:09:38>  SCF converged
 <Jun21-2019> <15:09:38>      7      0.00000000      0.00000000      0.0
 <Jun21-2019> <15:09:38>  >>>> POPAN
 <Jun21-2019> <15:09:38>  >>>> DEBYE
 <Jun21-2019> <15:09:38>  NORMAL TERMINATION
 <Jun21-2019> <15:09:38>  END
 <Jun21-2019> <15:09:38>  ADF 2017  RunTime: Jun21-2019 15:09:38  Nodes: 1  Procs: 1
 <Jun21-2019> <15:09:38>  Iodine (TZP, all electron)
 <Jun21-2019> <15:09:38>  RunType   : CREATE
 <Jun21-2019> <15:09:38>  Net Charge: 0 (Nuclei minus Electrons)
 <Jun21-2019> <15:09:38>  Symmetry  : ATOM
  Coordinates
    Atom         X           Y           Z   (Angstrom)
    1.I         0.000000    0.000000    0.000000
 <Jun21-2019> <15:09:38>  >>>> CORORT
 <Jun21-2019> <15:09:38>  >>>> CLSMAT
 <Jun21-2019> <15:09:38>  >>>> ORTHON
 <Jun21-2019> <15:09:38>  >>>> GENPT
 <Jun21-2019> <15:09:38>  Block Length=  88
 <Jun21-2019> <15:09:38>  >>>> PTBAS
 <Jun21-2019> <15:09:38>  >>>> CYCLE
 <Jun21-2019> <15:09:39>              |Error|         MaxErr       Wt(A-DIIS)
 <Jun21-2019> <15:09:39>      1      0.00000000      0.00000000
 <Jun21-2019> <15:09:39>      2    292.93884021     43.53371869    100.0
 <Jun21-2019> <15:09:39>      3    134.21612574     29.90194486    100.0
 <Jun21-2019> <15:09:39>      4     18.24909904      4.24385186    100.0
 <Jun21-2019> <15:09:39>      5     20.91682516      6.27777285    100.0
 <Jun21-2019> <15:09:39>      6      1.92337245      0.53755681    100.0
 <Jun21-2019> <15:09:40>      7      1.15692880      0.29052914    100.0
 <Jun21-2019> <15:09:40>      8      0.59617917      0.13295484    100.0
 <Jun21-2019> <15:09:40>      9      0.22296103      0.04450883     43.9
 <Jun21-2019> <15:09:40>     10      0.05274282      0.01146096     10.6
 <Jun21-2019> <15:09:40>     11      0.00639363      0.00175443      0.8
 <Jun21-2019> <15:09:40>     12      0.00007096      0.00002013      0.0
 <Jun21-2019> <15:09:41>     13      0.00000393      0.00000096      0.0
 <Jun21-2019> <15:09:41>     14      0.00000025      0.00000006      0.0
 <Jun21-2019> <15:09:41>     15      0.00000000      0.00000000      0.0
 <Jun21-2019> <15:09:41>  SCF converged
 <Jun21-2019> <15:09:41>     16      0.00000000      0.00000000      0.0
 <Jun21-2019> <15:09:41>  >>>> POPAN
 <Jun21-2019> <15:09:41>  >>>> DEBYE
 <Jun21-2019> <15:09:41>  NORMAL TERMINATION
 <Jun21-2019> <15:09:41>  END

Create C   file=DZP-C
XC
XCFUN
GGA BP86
End
End Input

 *******************************************************************************
 *                                                                             *
 *  -------------------------------------                                      *
 *   Amsterdam Density Functional  (ADF)         2017                          *
 *  -------------------------------------                                      *
 *                                               r65426 2018-05-03             *
 *                                                                             *
 *                                                                             *
 *                              =================                              *
 *                              |               |                              *
 *                              |     A D F     |                              *
 *                              |               |                              *
 *                              =================                              *
 *                                                                             *
 *                                                                             *
 *   Online information and documentation:  https://www.scm.com/support/       *
 *   E-mail:  support@scm.com   info@scm.com                                   *
 *                                                                             *
 *   Scientific publications using ADF results must be properly referenced     *
 *   See the User Manuals (or the web site) for recommended citations          *
 *   The terms and conditions of the End User License Agreement apply to       *
 *   the use of ADF, https://www.scm.com/license-terms/                        *
 *                                                                             *
 **********************  x86_64_linux_intel / intelmpi  ************************
 
 Licensed to: Dr. Jochen Autschbach / University at Buffalo / Buffalo / NY / USA
 SCM User ID: u7467
  
 ADF 2017  RunTime: Jun21-2019 15:09:41  Nodes: 1  Procs: 1

 Temporary files are created in /scratch/2867672/kid_0.1GjPqM

 Carbon (DZP)



 ===========================
 A T T A C H E D   F I L E S
 ===========================
  
 CREATE - Data File:    DZP-C
                        Carbon (DZP)



 ===============================
 M O D E L   P A R A M E T E R S
 ===============================
  
 DENSITY FUNCTIONAL POTENTIAL (scf)
    LDA:                               VWN                                      
    Gradient Corrections:              Becke88 Perdew86                        == Not Default ==

  XC energy densities, potentials and kernels evaluated by XCFUN 


 SPIN  (restricted / unrestr.)
    Molecule:                          Restricted                               

 OTHER ASPECTS
    Relativistic Corrections:          ---                                      

    Nuclear Charge Density Model:      Point Charge Nuclei                      
    Core Treatment:                    Frozen Orbital(s)                        

    Hyperfine or Zeeman Interaction:   ---                                      



 =====================================
 S Y M M E T R Y ,   E L E C T R O N S
 =====================================
  
 Symmetry: ATOM

 Irreducible Representations, including subspecies
 -------------------------------------------------
 S
 P:x  P:y  P:z
 D:z2  D:x2-y2  D:xy  D:xz  D:yz
 F:z3  F:z  F:xyz  F:z2x  F:z2y  F:x  F:y


 Configuration of Valence Electrons
 ==================================

          Occupation Numbers
          -------------------------------------------------
 S        2*2
 P        2
 D        0
 F        0
          -------------------------------------------------

 Total:   6

 Net Charge: 0 (Nuclei minus Electrons)

 Preset values for MO occupations will be applied through SCF cycle no. 1000000
 Thereafter, the program will assign electrons to MOs that are spatially
 similar to the occupied MOs in a "reference" cycle ("KeepOrbitals").
 The reference cycle is always the PREVIOUS cycle: it will evolve with
 the SCF procedure.



 ================================
 (Slater-type)  F U N C T I O N S  ***  (Basis and Fit)  ***
 ================================
  

 Atom Type    1  (C)
 ==============

 Valence Basis Sets:   7
 -----------------------
   1 S    7.680000
   1 S    5.000000
   2 S    1.980000
   2 S    1.240000
   2 P    2.200000
   2 P    0.960000
   3 D    2.200000


 BAS: List of all Elementary Cartesian Basis Functions
 =====================================================

 The numbering in the list below (to the right of the function characteristics) is referred
 to in print-outs of MO eigenvectors and Mulliken populations in the BAS representation
 (as contrasted to the SFO representation).

 Notes:
 1. The functions are characterized by a polynomial prefactor (powers of x,y,z and r) and
    an exponential decay factor alpha.
 2. Since the basis sets are specific for an atom TYPE, the individual functions occur on
    all atoms of that type.
 3. The word 'Core' in the left margin signals that it is a Core Function (CF) : not a
    degree of freedom in the valence set, but only used to ensure orthogonalization of
    the other valence basis functions on the frozen Core Orbitals.


 (power of) X  Y  Z  R     Alpha  on Atom
            ==========     =====     ==========

 C                                    1
                                  ---------------------------------------------------------------------------
            0  0  0  0     7.680      1
            0  0  0  0     5.000      2
            0  0  0  1     1.980      3
            0  0  0  1     1.240      4
            1  0  0  0     2.200      5
            0  1  0  0     2.200      6
            0  0  1  0     2.200      7
            1  0  0  0     0.960      8
            0  1  0  0     0.960      9
            0  0  1  0     0.960     10
            2  0  0  0     2.200     11
            1  1  0  0     2.200     12
            1  0  1  0     2.200     13
            0  2  0  0     2.200     14
            0  1  1  0     2.200     15
            0  0  2  0     2.200     16

 Total number of charge fitting functions (nprimf)        84
 Total number of Cartesian basis functions (naos)         16
 Total number of Cartesian core functions  (ncos)          0



 BAS: List of all Elementary Cartesian Basis Functions
 =====================================================

 The numbering in the list below (to the right of the function characteristics) is referred
 to in print-outs of MO eigenvectors and Mulliken populations in the BAS representation
 (as contrasted to the SFO representation).

 Notes:
 1. The functions are characterized by a polynomial prefactor (powers of x,y,z and r) and
    an exponential decay factor alpha.
 2. Since the basis sets are specific for an atom TYPE, the individual functions occur on
    all atoms of that type.
 3. The word 'Core' in the left margin signals that it is a Core Function (CF) : not a
    degree of freedom in the valence set, but only used to ensure orthogonalization of
    the other valence basis functions on the frozen Core Orbitals.


 (power of) X  Y  Z  R     Alpha  on Atom
            ==========     =====     ==========

 C                                    1
                                  ---------------------------------------------------------------------------
            0  0  0  0     7.680      1
            0  0  0  0     5.000      2
            0  0  0  1     1.980      3
            0  0  0  1     1.240      4
            1  0  0  0     2.200      5
            0  1  0  0     2.200      6
            0  0  1  0     2.200      7
            1  0  0  0     0.960      8
            0  1  0  0     0.960      9
            0  0  1  0     0.960     10
            2  0  0  0     2.200     11
            1  1  0  0     2.200     12
            1  0  1  0     2.200     13
            0  2  0  0     2.200     14
            0  1  1  0     2.200     15
            0  0  2  0     2.200     16
1
 ***************************************************************************************************



                                              ***********************
                                              *  T E C H N I C A L  *
                                              ***********************
  



 =============================================================
 P A R A L L E L I Z A T I O N  and  V E C T O R I Z A T I O N
 =============================================================
  
 Nr of parallel processes:                                1
 Maximum vector length in NumInt loops:                 128

 IO buffersize (Mb):                                     64.000000



 =====================
 S C F   U P D A T E S
 =====================
  
 Max. nr. of cycles:                               300
 Convergence criterion:                              0.0000000100
   secondary criterion:                              0.0000000100

 Mix parameter (when DIIS does not apply):           0.2000000000
 Special mix parameter for the first cycle:          1.0000000000
 Mixed ADIIS+DIIS will be used
    Max number of expansion vectors:                10
    Pure ADIIS when Max([F,P]) is above              0.1000000000
    Pure DIIS when Max([F,P]) is below               0.0010000000
 Automatic ElectronSmearing (in case of problematic SCF convergence) disabled



 =================
 P R E C I S I O N  ***  (General: NumInt, NeglectFunctionTails, ...)  ***
 =================
  

 NumInt:           Target precision:                12.0000000000
 -------           Initial precision:               10.0000000000
                   Min. precision (optimization):   10.0000000000

 Neglect Functions:          Basis functions:        0.1000000000E-13
 ------------------          Fit functions:          0.1000000000E-13



 ===========================
 L I N E A R   S C A L I N G
 ===========================
  

 Cut-off radii density fit:                        0.1000000000E-97
 Overlap cut-off criterion AO matrix elements:     0.1000000000E-97
 Cut-offs for Coulomb potential and fitted density:0.1000000000E-97
 Cut-off criterion for Coulomb multipole terms:    0.1000000000E-97
 Progressive Convergence parameter:                 0.000000000    
1
 ***************************************************************************************************



                                            ***************************
                                            *  C O M P U T A T I O N  *
                                            ***************************
  

 Number of elements of the density matrix on this node (used, total):       136       136



 ===========================================
 Numerical Integration : Fuzzy Cells (Becke)
 ===========================================
  
 Becke grid quality: VERYGOOD       
  
 Lebedev angular grid order:             min:  13 max:  41
 Nr. of radial points:                   min:  72 max:  72

 Total nr. of points:         72
 Nr. of blocks:                1
 Block length:                72
 Nr. of dummy points:          0


 Test of Precision of the Numerical Integration Grid
 ===================================================

 Integral of the Total Core Density:                   0.00000000000000



 ========================
 Density Fitting (zlmFit)
 ========================
  
 ZlmFit Fit Quality: VERYGOOD       
  
 Max L-expansion:                        min:   0 max:   0
 Nr. of radial interpolation points:     min: 160 max: 160



 =====
 S C F  ***  ScaSCF  ***
 =====
  

 CYCLE    1
 SCF Error: norm([F,P])=      0.000000000000, max([F,P])=      0.000000000000
 orbitals (Q,E):
 ---------------
 S :1...4            ( 2.00   -17.9852)  ( 2.00    -4.3774)  ( 0.00    -1.9019)  ( 0.00    14.8321)
 P :1...2            ( 2.00    -4.2576)  ( 0.00    -1.7536)
 D :1...1            ( 0.00    -1.9800)

 CYCLE    2
 SCF Error: norm([F,P])=      3.698746866651, max([F,P])=      2.786034664671
 orbitals (Q,E):
 ---------------
 S :1...3            ( 2.00    -8.5806)  ( 2.00    -0.1239)  ( 0.00     0.7924)
 P :1...2            ( 2.00     0.1150)  ( 0.00     0.9459)
 D :1...1            ( 0.00     1.6322)

 CYCLE    3
  SDIIS (wt  0.000):  0.1881  0.8119
 A-DIIS (wt  1.000):  0.0505  0.9495
  DIIS coefficients:  0.0505  0.9495
 SCF Error: norm([F,P])=      1.077037838792, max([F,P])=      0.930033986137
 orbitals (Q,E):
 ---------------
 S :1...3            ( 2.00   -10.7975)  ( 2.00    -0.7956)  ( 0.00     0.2277)
 P :1...2            ( 2.00    -0.4772)  ( 0.00     0.2395)
 D :1...1            ( 0.00     0.9740)

 CYCLE    4
  SDIIS (wt  0.000):  0.3295  0.6705
 A-DIIS (wt  1.000):  0.1643  0.8357
  DIIS coefficients:  0.1643  0.8357
 SCF Error: norm([F,P])=      0.541420110704, max([F,P])=      0.430261129091
 orbitals (Q,E):
 ---------------
 S :1...3            ( 2.00    -9.8030)  ( 2.00    -0.4252)  ( 0.00     0.4793)
 P :1...2            ( 2.00    -0.1200)  ( 0.00     0.5365)
 D :1...1            ( 0.00     1.3122)

 CYCLE    5
  SDIIS (wt  0.000): -0.0352  0.2472  0.7880
 A-DIIS (wt  1.000):  0.0000  0.0000  1.0000
  DIIS coefficients:  0.0000  0.0000  1.0000
 SCF Error: norm([F,P])=      0.216400551159, max([F,P])=      0.179259650824
 orbitals (Q,E):
 ---------------
 S :1...3            ( 2.00   -10.2620)  ( 2.00    -0.5873)  ( 0.00     0.3538)
 P :1...2            ( 2.00    -0.2694)  ( 0.00     0.3824)
 D :1...1            ( 0.00     1.1600)

 CYCLE    6
  SDIIS (wt  0.000): -0.0084 -0.0678  0.3794  0.6967
 A-DIIS (wt  1.000):  0.0000  0.0000  0.3236  0.6764
  DIIS coefficients:  0.0000  0.0000  0.3236  0.6764
 SCF Error: norm([F,P])=      0.157765673268, max([F,P])=      0.127467153323
 orbitals (Q,E):
 ---------------
 S :1...3            ( 2.00   -10.0341)  ( 2.00    -0.5039)  ( 0.00     0.4135)
 P :1...2            ( 2.00    -0.1912)  ( 0.00     0.4547)
 D :1...1            ( 0.00     1.2374)

 CYCLE    7
  SDIIS (wt  0.778): -0.0003 -0.0008 -0.0494  0.1023  0.9482
 A-DIIS (wt  0.222):  0.0000  0.0000  0.0000  0.0000  1.0000
  DIIS coefficients: -0.0002 -0.0006 -0.0384  0.0796  0.9597
 SCF Error: norm([F,P])=      0.028115465847, max([F,P])=      0.022985358813
 orbitals (Q,E):
 ---------------
 S :1...3            ( 2.00   -10.0738)  ( 2.00    -0.5179)  ( 0.00     0.4027)
 P :1...2            ( 2.00    -0.2041)  ( 0.00     0.4415)
 D :1...1            ( 0.00     1.2243)

 CYCLE    8
  SDIIS (wt  0.972):  0.0001  0.0022  0.0114 -0.0507 -0.1406  1.1775
 A-DIIS (wt  0.028):  0.0000  0.0000  0.0000  0.0000  0.0000  1.0000
  DIIS coefficients:  0.0001  0.0022  0.0110 -0.0493 -0.1367  1.1726
 SCF Error: norm([F,P])=      0.004585387383, max([F,P])=      0.003733612753
 orbitals (Q,E):
 ---------------
 S :1...3            ( 2.00   -10.0682)  ( 2.00    -0.5159)  ( 0.00     0.4042)
 P :1...2            ( 2.00    -0.2023)  ( 0.00     0.4434)
 D :1...1            ( 0.00     1.2262)

 CYCLE    9
  SDIIS (wt  1.000): -0.0000 -0.0001 -0.0005  0.0018  0.0096  0.9892
  DIIS coefficients: -0.0000 -0.0001 -0.0005  0.0018  0.0096  0.9892
 SCF Error: norm([F,P])=      0.000089179560, max([F,P])=      0.000072492278
 orbitals (Q,E):
 ---------------
 S :1...3            ( 2.00   -10.0683)  ( 2.00    -0.5159)  ( 0.00     0.4042)
 P :1...2            ( 2.00    -0.2023)  ( 0.00     0.4433)
 D :1...1            ( 0.00     1.2261)

 CYCLE   10
  SDIIS (wt  1.000):  0.0000  0.0000 -0.0007 -0.0060 -0.1171  1.1238
  DIIS coefficients:  0.0000  0.0000 -0.0007 -0.0060 -0.1171  1.1238
 SCF Error: norm([F,P])=      0.000000281251, max([F,P])=      0.000000228898
 orbitals (Q,E):
 ---------------
 S :1...3            ( 2.00   -10.0683)  ( 2.00    -0.5159)  ( 0.00     0.4042)
 P :1...2            ( 2.00    -0.2023)  ( 0.00     0.4433)
 D :1...1            ( 0.00     1.2261)

 CYCLE   11
  SDIIS (wt  1.000):  0.0001  0.0029  0.0665  0.9305
  DIIS coefficients:  0.0001  0.0029  0.0665  0.9305
 SCF Error: norm([F,P])=      0.000000006793, max([F,P])=      0.000000005582
 orbitals (Q,E):
 ---------------
 S :1...3            ( 2.00   -10.0683)  ( 2.00    -0.5159)  ( 0.00     0.4042)
 P :1...2            ( 2.00    -0.2023)  ( 0.00     0.4433)
 D :1...1            ( 0.00     1.2261)

 SCF CONVERGED

 CYCLE   12
1
 ***************************************************************************************************



                                                *******************
                                                *  R E S U L T S  *
                                                *******************
  
 *** Setting up for NEW gradients in Focky
 *** Using FIT density in Focky

 Orbital Energies, per Irrep and Spin:
 ======================================
                        Occup              E (au)              E (eV)       Diff (eV) with prev. cycle
                        -----      --------------------        ------       --------------------------
 S
               1        2.000     -0.10068270340462E+02      -273.972              -2.34E-09
               2        2.000     -0.51589055338128E+00       -14.038              -5.75E-10
               3        0.000      0.40416208262986E+00        10.998
               4        0.000      0.21784012271276E+02       592.773
 P
               1        2.000     -0.20229322129171E+00        -5.505              -6.08E-10
               2        0.000      0.44332337371784E+00        12.063
 D
               1        0.000      0.12261466582254E+01        33.365


 Partially Occupied:
               1 P                -0.20229322129171E+00
  
 HOMO :        2 S                -0.51589055338128E+00
 LUMO :        3 S                 0.40416208262986E+00
  


 Orbital Energies, all Irreps
 ========================================

 Irrep        no.  (spin)   Occup              E (au)                E (eV)
 ---------------------------------------------------------------------------
 S             1             2.00       -0.10068270340462E+02      -273.9716
 S             2             2.00       -0.51589055338128E+00       -14.0381
 P             1             2.00       -0.20229322129171E+00        -5.5047
 S             3             0.00        0.40416208262986E+00        10.9978
 P             2             0.00        0.44332337371784E+00        12.0634
 D             1             0.00        0.12261466582254E+01        33.3651
[...]
  Coordinates in Geometry Cycle 4
    Atom         X           Y           Z   (Angstrom)
    1.C         0.038563   -0.017599    0.000000
    2.C         1.366921    0.043878    0.000000
    3.H        -0.600010    0.868958    0.000000
    4.I        -1.066401   -1.825684    0.000000
    5.H         1.853690    1.025702    0.000000
    6.H         2.006801   -0.841652    0.000000
 <Jun21-2019> <15:10:47>  >>>> CORORT
 <Jun21-2019> <15:10:47>  >>>> CLSMAT
 <Jun21-2019> <15:10:47>  >>>> ORTHON
 <Jun21-2019> <15:10:47>  >>>> GENPT
 <Jun21-2019> <15:10:47>  Block Length= 128
 <Jun21-2019> <15:10:48>  >>>> PTBAS
 <Jun21-2019> <15:10:48>  >>>> CYCLE
 <Jun21-2019> <15:10:49>              |Error|         MaxErr       Wt(A-DIIS)
 <Jun21-2019> <15:10:49>      1      0.01611410      0.00456446
 <Jun21-2019> <15:10:50>      2      0.00231834      0.00049208    100.0
 <Jun21-2019> <15:10:51>      3      0.00388751      0.00085844    100.0
 <Jun21-2019> <15:10:53>      4      0.00059730      0.00012392      0.0
 <Jun21-2019> <15:10:54>      5      0.00018975      0.00004890      0.0
 <Jun21-2019> <15:10:55>      6      0.00007518      0.00003219      0.0
 <Jun21-2019> <15:10:56>      7      0.00003428      0.00001339      0.0
 <Jun21-2019> <15:10:57>      8      0.00000109      0.00000021      0.0
 <Jun21-2019> <15:10:58>      9      0.00000049      0.00000011      0.0
 <Jun21-2019> <15:11:00>     10      0.00000005      0.00000002      0.0
 <Jun21-2019> <15:11:01>     11      0.00000001      0.00000000      0.0
 <Jun21-2019> <15:11:01>  SCF converged
 <Jun21-2019> <15:11:02>     12      0.00000000      0.00000000      0.0
 <Jun21-2019> <15:11:02>  >>>> TOTEN
 <Jun21-2019> <15:11:06>  >>>> POPAN
 <Jun21-2019> <15:11:06>  >>>> DEBYE
 <Jun21-2019> <15:11:06>  >>>> ENGRAD
 <Jun21-2019> <15:11:07>  current energy                               -1.04564329 Hartree
 <Jun21-2019> <15:11:07>  energy change                      -0.00001636     0.00100000    T
 <Jun21-2019> <15:11:07>  constrained gradient max            0.00286716     0.00000010    F
 <Jun21-2019> <15:11:07>  constrained gradient rms            0.00086952     0.00000007    F
 <Jun21-2019> <15:11:07>  gradient max                        0.00286716
 <Jun21-2019> <15:11:07>  gradient rms                        0.00086952
 <Jun21-2019> <15:11:07>  cart. step max                      0.00321758     0.01000000    T
 <Jun21-2019> <15:11:07>  cart. step rms                      0.00151034     0.00666667    T
  Coordinates in Geometry Cycle 5
    Atom         X           Y           Z   (Angstrom)
    1.C         0.038460   -0.014382    0.000000
    2.C         1.366696    0.042750    0.000000
    3.H        -0.600601    0.871028    0.000000
    4.I        -1.066367   -1.825860    0.000000
    5.H         1.856350    1.023038    0.000000
    6.H         2.004340   -0.843767    0.000000
 <Jun21-2019> <15:11:07>  >>>> CORORT
 <Jun21-2019> <15:11:07>  >>>> CLSMAT
 <Jun21-2019> <15:11:07>  >>>> ORTHON
 <Jun21-2019> <15:11:07>  >>>> GENPT
 <Jun21-2019> <15:11:07>  Block Length= 128
 <Jun21-2019> <15:11:07>  >>>> PTBAS
 <Jun21-2019> <15:11:07>  >>>> CYCLE
 <Jun21-2019> <15:11:09>              |Error|         MaxErr       Wt(A-DIIS)
 <Jun21-2019> <15:11:09>      1      0.01741126      0.00585805
 <Jun21-2019> <15:11:10>      2      0.00229005      0.00049375    100.0
 <Jun21-2019> <15:11:11>      3      0.00392786      0.00090478    100.0
 <Jun21-2019> <15:11:12>      4      0.00064185      0.00012649      0.0
 <Jun21-2019> <15:11:13>      5      0.00028219      0.00010952      0.0
 <Jun21-2019> <15:11:15>      6      0.00007049      0.00002816      0.0
 <Jun21-2019> <15:11:16>      7      0.00002520      0.00000657      0.0
 <Jun21-2019> <15:11:17>      8      0.00000110      0.00000019      0.0
 <Jun21-2019> <15:11:18>      9      0.00000049      0.00000011      0.0
 <Jun21-2019> <15:11:19>     10      0.00000005      0.00000002      0.0
 <Jun21-2019> <15:11:20>     11      0.00000001      0.00000000      0.0
 <Jun21-2019> <15:11:21>  SCF converged
 <Jun21-2019> <15:11:22>     12      0.00000000      0.00000000      0.0
 <Jun21-2019> <15:11:22>  >>>> TOTEN
 <Jun21-2019> <15:11:25>  >>>> POPAN
 <Jun21-2019> <15:11:25>  >>>> DEBYE
 <Jun21-2019> <15:11:25>  >>>> ENGRAD
 <Jun21-2019> <15:11:27>  current energy                               -1.04564688 Hartree
 <Jun21-2019> <15:11:27>  energy change                      -0.00000359     0.00100000    T
 <Jun21-2019> <15:11:27>  constrained gradient max            0.00057742     0.00000010    F
 <Jun21-2019> <15:11:27>  constrained gradient rms            0.00022925     0.00000007    F
 <Jun21-2019> <15:11:27>  gradient max                        0.00057742
 <Jun21-2019> <15:11:27>  gradient rms                        0.00022925
 <Jun21-2019> <15:11:27>  cart. step max                      0.00117759     0.01000000    T
 <Jun21-2019> <15:11:27>  cart. step rms                      0.00052082     0.00666667    T
  Coordinates in Geometry Cycle 6
    Atom         X           Y           Z   (Angstrom)
    1.C         0.038909   -0.013441    0.000000
    2.C         1.367057    0.043109    0.000000
    3.H        -0.600048    0.872138    0.000000
    4.I        -1.066453   -1.825988    0.000000
    5.H         1.857528    1.023046    0.000000
    6.H         2.003712   -0.844206    0.000000
 <Jun21-2019> <15:11:27>  >>>> CORORT
 <Jun21-2019> <15:11:27>  >>>> CLSMAT
 <Jun21-2019> <15:11:27>  >>>> ORTHON
 <Jun21-2019> <15:11:27>  >>>> GENPT
 <Jun21-2019> <15:11:27>  Block Length= 128
 <Jun21-2019> <15:11:27>  >>>> PTBAS
 <Jun21-2019> <15:11:27>  >>>> CYCLE
 <Jun21-2019> <15:11:28>              |Error|         MaxErr       Wt(A-DIIS)
 <Jun21-2019> <15:11:28>      1      0.00576502      0.00189965
 <Jun21-2019> <15:11:30>      2      0.00060175      0.00009426    100.0
 <Jun21-2019> <15:11:31>      3      0.00089136      0.00017009    100.0
 <Jun21-2019> <15:11:32>      4      0.00019108      0.00004605      0.0
 <Jun21-2019> <15:11:33>      5      0.00007837      0.00003219      0.0
 <Jun21-2019> <15:11:34>      6      0.00001651      0.00000406      0.0
 <Jun21-2019> <15:11:35>      7      0.00000711      0.00000142      0.0
 <Jun21-2019> <15:11:37>      8      0.00000030      0.00000007      0.0
 <Jun21-2019> <15:11:38>      9      0.00000017      0.00000004      0.0
 <Jun21-2019> <15:11:39>     10      0.00000001      0.00000000      0.0
 <Jun21-2019> <15:11:39>  SCF converged
 <Jun21-2019> <15:11:40>     11      0.00000000      0.00000000      0.0
 <Jun21-2019> <15:11:40>  >>>> TOTEN
 <Jun21-2019> <15:11:44>  >>>> POPAN
 <Jun21-2019> <15:11:44>  >>>> DEBYE
 <Jun21-2019> <15:11:44>  >>>> ENGRAD
 <Jun21-2019> <15:11:45>  current energy                               -1.04564691 Hartree
 <Jun21-2019> <15:11:45>  energy change                      -0.00000004     0.00100000    T
 <Jun21-2019> <15:11:45>  constrained gradient max            0.00012194     0.00000010    F
 <Jun21-2019> <15:11:45>  constrained gradient rms            0.00004189     0.00000007    F
 <Jun21-2019> <15:11:45>  gradient max                        0.00012194
 <Jun21-2019> <15:11:45>  gradient rms                        0.00004189
 <Jun21-2019> <15:11:45>  cart. step max                      0.00014882     0.01000000    T
 <Jun21-2019> <15:11:45>  cart. step rms                      0.00006664     0.00666667    T
  Coordinates in Geometry Cycle 7
    Atom         X           Y           Z   (Angstrom)
    1.C         0.039023   -0.013416    0.000000
    2.C         1.367166    0.043258    0.000000
    3.H        -0.600017    0.872141    0.000000
    4.I        -1.066475   -1.826006    0.000000
    5.H         1.857611    1.023194    0.000000
    6.H         2.003723   -0.844163    0.000000
 <Jun21-2019> <15:11:45>  >>>> CORORT
 <Jun21-2019> <15:11:45>  >>>> CLSMAT
 <Jun21-2019> <15:11:45>  >>>> ORTHON
 <Jun21-2019> <15:11:45>  >>>> GENPT
 <Jun21-2019> <15:11:45>  Block Length= 128
 <Jun21-2019> <15:11:45>  >>>> PTBAS
 <Jun21-2019> <15:11:46>  >>>> CYCLE
 <Jun21-2019> <15:11:47>              |Error|         MaxErr       Wt(A-DIIS)
 <Jun21-2019> <15:11:47>      1      0.00064236      0.00023259
 <Jun21-2019> <15:11:48>      2      0.00007455      0.00002687    100.0
 <Jun21-2019> <15:11:49>      3      0.00016553      0.00007214    100.0
 <Jun21-2019> <15:11:50>      4      0.00003228      0.00000992      0.0
 <Jun21-2019> <15:11:52>      5      0.00000815      0.00000164      0.0
 <Jun21-2019> <15:11:53>      6      0.00000143      0.00000032      0.0
 <Jun21-2019> <15:11:54>      7      0.00000050      0.00000010      0.0
 <Jun21-2019> <15:11:55>      8      0.00000004      0.00000001      0.0
 <Jun21-2019> <15:11:56>      9      0.00000001      0.00000000      0.0
 <Jun21-2019> <15:11:56>  SCF converged
 <Jun21-2019> <15:11:57>     10      0.00000000      0.00000000      0.0
 <Jun21-2019> <15:11:58>  >>>> TOTEN
 <Jun21-2019> <15:12:01>  >>>> POPAN
 <Jun21-2019> <15:12:01>  >>>> DEBYE
 <Jun21-2019> <15:12:01>  >>>> ENGRAD
 <Jun21-2019> <15:12:03>  current energy                               -1.04564690 Hartree
 <Jun21-2019> <15:12:03>  energy change                       0.00000001     0.00100000    T
 <Jun21-2019> <15:12:03>  constrained gradient max            0.00002787     0.00000010    F
 <Jun21-2019> <15:12:03>  constrained gradient rms            0.00000948     0.00000007    F
 <Jun21-2019> <15:12:03>  gradient max                        0.00002787
 <Jun21-2019> <15:12:03>  gradient rms                        0.00000948
 <Jun21-2019> <15:12:03>  cart. step max                      0.00005785     0.01000000    T
 <Jun21-2019> <15:12:03>  cart. step rms                      0.00002090     0.00666667    T
  Coordinates in Geometry Cycle 8
    Atom         X           Y           Z   (Angstrom)
    1.C         0.039023   -0.013420    0.000000
    2.C         1.367168    0.043261    0.000000
    3.H        -0.600057    0.872103    0.000000
    4.I        -1.066474   -1.826005    0.000000
    5.H         1.857609    1.023187    0.000000
    6.H         2.003665   -0.844200    0.000000
 <Jun21-2019> <15:12:03>  >>>> CORORT
 <Jun21-2019> <15:12:03>  >>>> CLSMAT
 <Jun21-2019> <15:12:03>  >>>> ORTHON
 <Jun21-2019> <15:12:03>  >>>> GENPT
 <Jun21-2019> <15:12:03>  Block Length= 128
 <Jun21-2019> <15:12:03>  >>>> PTBAS
 <Jun21-2019> <15:12:03>  >>>> CYCLE
 <Jun21-2019> <15:12:04>              |Error|         MaxErr       Wt(A-DIIS)
 <Jun21-2019> <15:12:04>      1      0.00005264      0.00001023
 <Jun21-2019> <15:12:06>      2      0.00001493      0.00000582    100.0
 <Jun21-2019> <15:12:07>      3      0.00000666      0.00000181    100.0
 <Jun21-2019> <15:12:08>      4      0.00000985      0.00000397      0.0
 <Jun21-2019> <15:12:09>      5      0.00000210      0.00000042      0.0
 <Jun21-2019> <15:12:10>      6      0.00000025      0.00000005      0.0
 <Jun21-2019> <15:12:11>      7      0.00000011      0.00000002      0.0
 <Jun21-2019> <15:12:13>      8      0.00000001      0.00000000      0.0
 <Jun21-2019> <15:12:13>  SCF converged
 <Jun21-2019> <15:12:14>      9      0.00000000      0.00000000      0.0
 <Jun21-2019> <15:12:14>  >>>> TOTEN
 <Jun21-2019> <15:12:18>  >>>> POPAN
 <Jun21-2019> <15:12:18>  >>>> DEBYE
 <Jun21-2019> <15:12:18>  >>>> ENGRAD
 <Jun21-2019> <15:12:19>  current energy                               -1.04564689 Hartree
 <Jun21-2019> <15:12:19>  energy change                       0.00000001     0.00100000    T
 <Jun21-2019> <15:12:19>  constrained gradient max            0.00000402     0.00000010    F
 <Jun21-2019> <15:12:19>  constrained gradient rms            0.00000166     0.00000007    F
 <Jun21-2019> <15:12:19>  gradient max                        0.00000402
 <Jun21-2019> <15:12:19>  gradient rms                        0.00000166
 <Jun21-2019> <15:12:19>  cart. step max                      0.00001819     0.01000000    T
 <Jun21-2019> <15:12:19>  cart. step rms                      0.00000682     0.00666667    T
  Coordinates in Geometry Cycle 9
    Atom         X           Y           Z   (Angstrom)
    1.C         0.039020   -0.013421    0.000000
    2.C         1.367165    0.043256    0.000000
    3.H        -0.600069    0.872095    0.000000
    4.I        -1.066473   -1.826005    0.000000
    5.H         1.857606    1.023182    0.000000
    6.H         2.003647   -0.844215    0.000000
 <Jun21-2019> <15:12:19>  >>>> CORORT
 <Jun21-2019> <15:12:19>  >>>> CLSMAT
 <Jun21-2019> <15:12:19>  >>>> ORTHON
 <Jun21-2019> <15:12:19>  >>>> GENPT
 <Jun21-2019> <15:12:19>  Block Length= 128
 <Jun21-2019> <15:12:19>  >>>> PTBAS
 <Jun21-2019> <15:12:19>  >>>> CYCLE
 <Jun21-2019> <15:12:21>              |Error|         MaxErr       Wt(A-DIIS)
 <Jun21-2019> <15:12:21>      1      0.00002488      0.00000800
 <Jun21-2019> <15:12:22>      2      0.00000245      0.00000050    100.0
 <Jun21-2019> <15:12:23>      3      0.00000139      0.00000027    100.0
 <Jun21-2019> <15:12:24>      4      0.00000319      0.00000111      0.0
 <Jun21-2019> <15:12:25>      5      0.00000113      0.00000046      0.0
 <Jun21-2019> <15:12:26>      6      0.00000021      0.00000005      0.0
 <Jun21-2019> <15:12:28>      7      0.00000004      0.00000001      0.0
 <Jun21-2019> <15:12:29>      8      0.00000002      0.00000001      0.0
 <Jun21-2019> <15:12:29>  SCF converged
 <Jun21-2019> <15:12:30>      9      0.00000000      0.00000000      0.0
 <Jun21-2019> <15:12:30>  >>>> TOTEN
 <Jun21-2019> <15:12:34>  >>>> POPAN
 <Jun21-2019> <15:12:34>  >>>> DEBYE
 <Jun21-2019> <15:12:34>  >>>> ENGRAD
 <Jun21-2019> <15:12:35>  current energy                               -1.04564689 Hartree
 <Jun21-2019> <15:12:35>  energy change                       0.00000000     0.00100000    T
 <Jun21-2019> <15:12:35>  constrained gradient max            0.00000082     0.00000010    F
 <Jun21-2019> <15:12:35>  constrained gradient rms            0.00000027     0.00000007    F
 <Jun21-2019> <15:12:35>  gradient max                        0.00000082
 <Jun21-2019> <15:12:35>  gradient rms                        0.00000027
 <Jun21-2019> <15:12:35>  cart. step max                      0.00000072     0.01000000    T
 <Jun21-2019> <15:12:35>  cart. step rms                      0.00000027     0.00666667    T
  Coordinates in Geometry Cycle 10
    Atom         X           Y           Z   (Angstrom)
    1.C         0.039019   -0.013421    0.000000
    2.C         1.367165    0.043256    0.000000
    3.H        -0.600070    0.872095    0.000000
    4.I        -1.066473   -1.826005    0.000000
    5.H         1.857606    1.023182    0.000000
    6.H         2.003646   -0.844215    0.000000
 <Jun21-2019> <15:12:35>  >>>> CORORT
 <Jun21-2019> <15:12:35>  >>>> CLSMAT
 <Jun21-2019> <15:12:35>  >>>> ORTHON
 <Jun21-2019> <15:12:35>  >>>> GENPT
 <Jun21-2019> <15:12:35>  Block Length= 128
 <Jun21-2019> <15:12:35>  >>>> PTBAS
 <Jun21-2019> <15:12:35>  >>>> CYCLE
 <Jun21-2019> <15:12:37>              |Error|         MaxErr       Wt(A-DIIS)
 <Jun21-2019> <15:12:37>      1      0.00000132      0.00000032
 <Jun21-2019> <15:12:38>      2      0.00000026      0.00000006    100.0
 <Jun21-2019> <15:12:39>      3      0.00000047      0.00000011    100.0
 <Jun21-2019> <15:12:40>      4      0.00000096      0.00000022      0.0
 <Jun21-2019> <15:12:41>      5      0.00000002      0.00000001      0.0
 <Jun21-2019> <15:12:42>  SCF converged
 <Jun21-2019> <15:12:43>      6      0.00000001      0.00000001      0.0
 <Jun21-2019> <15:12:43>  >>>> TOTEN
 <Jun21-2019> <15:12:47>  >>>> POPAN
 <Jun21-2019> <15:12:47>  >>>> DEBYE
 <Jun21-2019> <15:12:47>  >>>> ENGRAD
 <Jun21-2019> <15:12:48>  current energy                               -1.04564689 Hartree
 <Jun21-2019> <15:12:48>  energy change                       0.00000000     0.00100000    T
 <Jun21-2019> <15:12:48>  constrained gradient max            0.00000024     0.00000010    F
 <Jun21-2019> <15:12:48>  constrained gradient rms            0.00000009     0.00000007    F
 <Jun21-2019> <15:12:48>  gradient max                        0.00000024
 <Jun21-2019> <15:12:48>  gradient rms                        0.00000009
 <Jun21-2019> <15:12:48>  cart. step max                      0.00000063     0.01000000    T
 <Jun21-2019> <15:12:48>  cart. step rms                      0.00000019     0.00666667    T
  Coordinates in Geometry Cycle 11
    Atom         X           Y           Z   (Angstrom)
    1.C         0.039019   -0.013421    0.000000
    2.C         1.367165    0.043256    0.000000
    3.H        -0.600069    0.872095    0.000000
    4.I        -1.066473   -1.826005    0.000000
    5.H         1.857605    1.023183    0.000000
    6.H         2.003646   -0.844215    0.000000
 <Jun21-2019> <15:12:48>  >>>> CORORT
 <Jun21-2019> <15:12:48>  >>>> CLSMAT
 <Jun21-2019> <15:12:48>  >>>> ORTHON
 <Jun21-2019> <15:12:48>  >>>> GENPT
 <Jun21-2019> <15:12:48>  Block Length= 128
 <Jun21-2019> <15:12:48>  >>>> PTBAS
 <Jun21-2019> <15:12:48>  >>>> CYCLE
 <Jun21-2019> <15:12:50>              |Error|         MaxErr       Wt(A-DIIS)
 <Jun21-2019> <15:12:50>      1      0.00000055      0.00000018
 <Jun21-2019> <15:12:51>      2      0.00000014      0.00000003    100.0
 <Jun21-2019> <15:12:52>      3      0.00000024      0.00000006    100.0
 <Jun21-2019> <15:12:53>      4      0.00000054      0.00000013      0.0
 <Jun21-2019> <15:12:54>      5      0.00000002      0.00000001      0.0
 <Jun21-2019> <15:12:54>  SCF converged
 <Jun21-2019> <15:12:55>      6      0.00000000      0.00000000      0.0
 <Jun21-2019> <15:12:56>  >>>> TOTEN
 <Jun21-2019> <15:12:59>  >>>> POPAN
 <Jun21-2019> <15:12:59>  >>>> DEBYE
 <Jun21-2019> <15:12:59>  >>>> ENGRAD
 <Jun21-2019> <15:13:01>  current energy                               -1.04564689 Hartree
 <Jun21-2019> <15:13:01>  energy change                       0.00000000     0.00100000    T
 <Jun21-2019> <15:13:01>  constrained gradient max            0.00000006     0.00000010    T
 <Jun21-2019> <15:13:01>  constrained gradient rms            0.00000002     0.00000007    T
 <Jun21-2019> <15:13:01>  gradient max                        0.00000006
 <Jun21-2019> <15:13:01>  gradient rms                        0.00000002
 <Jun21-2019> <15:13:01>  cart. step max                      0.00000016     0.01000000    T
 <Jun21-2019> <15:13:01>  cart. step rms                      0.00000007     0.00666667    T
 <Jun21-2019> <15:13:01>  GEOMETRY CONVERGED
 <Jun21-2019> <15:13:01>  Calculating Energy Terms for Final Geometry
  Coordinates in Geometry Cycle 11
    Atom         X           Y           Z   (Angstrom)
    1.C         0.039019   -0.013421    0.000000
    2.C         1.367165    0.043256    0.000000
    3.H        -0.600069    0.872095    0.000000
    4.I        -1.066473   -1.826005    0.000000
    5.H         1.857605    1.023183    0.000000
    6.H         2.003646   -0.844215    0.000000
 <Jun21-2019> <15:13:01>  >>>> CORORT
 <Jun21-2019> <15:13:01>  >>>> CLSMAT
 <Jun21-2019> <15:13:01>  >>>> ORTHON
 <Jun21-2019> <15:13:01>  >>>> GENPT
 <Jun21-2019> <15:13:01>  Block Length= 128
 <Jun21-2019> <15:13:01>  >>>> PTBAS
 <Jun21-2019> <15:13:01>  >>>> CYCLE
 <Jun21-2019> <15:13:02>              |Error|         MaxErr       Wt(A-DIIS)
 <Jun21-2019> <15:13:02>      1      0.00000001      0.00000001
 <Jun21-2019> <15:13:03>      2      0.00000000      0.00000000    100.0
 <Jun21-2019> <15:13:04>  SCF converged
 <Jun21-2019> <15:13:05>      3      0.00000000      0.00000000    100.0
 <Jun21-2019> <15:13:06>  >>>> TOTEN
 <Jun21-2019> <15:13:11>  >>>> POPAN
 <Jun21-2019> <15:13:11>  >>>> DEBYE
 <Jun21-2019> <15:13:11>  >>>> AMETS
 <Jun21-2019> <15:13:11>  >>>> POPUL
 <Jun21-2019> <15:13:11>   Bond Energy          -1.04564689 a.u.
 <Jun21-2019> <15:13:11>   Bond Energy         -28.45349952 eV
 <Jun21-2019> <15:13:11>   Bond Energy        -656.15       kcal/mol
 <Jun21-2019> <15:13:11>  NORMAL TERMINATION
 <Jun21-2019> <15:13:11>  END
