

create Ni  /projects/academic/jochena/herbertl/software/adffix2017/atomicdata/TZP/Ni.2p
end input

 *******************************************************************************
 *                                                                             *
 *  -------------------------------------                                      *
 *   Amsterdam Density Functional  (ADF)         2017                          *
 *  -------------------------------------                                      *
 *                                               r65426 2018-05-03             *
 *                                                                             *
 *                                                                             *
 *                              =================                              *
 *                              |               |                              *
 *                              |     A D F     |                              *
 *                              |               |                              *
 *                              =================                              *
 *                                                                             *
 *                                                                             *
 *   Online information and documentation:  https://www.scm.com/support/       *
 *   E-mail:  support@scm.com   info@scm.com                                   *
 *                                                                             *
 *   Scientific publications using ADF results must be properly referenced     *
 *   See the User Manuals (or the web site) for recommended citations          *
 *   The terms and conditions of the End User License Agreement apply to       *
 *   the use of ADF, https://www.scm.com/license-terms/                        *
 *                                                                             *
 **********************  x86_64_linux_intel / intelmpi  ************************
 
 Licensed to: Dr. Jochen Autschbach / University at Buffalo / Buffalo / NY / USA
 SCM User ID: u7467
  
 ADF 2017  RunTime: Mar24-2020 16:21:22  Nodes: 1  Procs: 1

 Temporary files are created in /scratch/1800736/kid_0.EGB5hd

 Nickel (TZP, 2p frozen)



 ===========================
 A T T A C H E D   F I L E S
 ===========================
  
 CREATE - Data File:    /projects/academic/jochena/herbertl/software/adffix2017/atomicdata/TZP/Ni.2p
                        Nickel (TZP, 2p frozen)



 ===============================
 M O D E L   P A R A M E T E R S
 ===============================
  
 DENSITY FUNCTIONAL POTENTIAL (scf)
    LDA:                               VWN                                      
    Gradient Corrections:              ---                                      

 SPIN  (restricted / unrestr.)
    Molecule:                          Restricted                               

 OTHER ASPECTS
    Relativistic Corrections:          ---                                      

    Nuclear Charge Density Model:      Point Charge Nuclei                      
    Core Treatment:                    Frozen Orbital(s)                        

    Hyperfine or Zeeman Interaction:   ---                                      



 =====================================
 S Y M M E T R Y ,   E L E C T R O N S
 =====================================
  
 Symmetry: ATOM

 Irreducible Representations, including subspecies
 -------------------------------------------------
 S
 P:x  P:y  P:z
 D:z2  D:x2-y2  D:xy  D:xz  D:yz
 F:z3  F:z  F:xyz  F:z2x  F:z2y  F:x  F:y


 Configuration of Valence Electrons
 ==================================

          Occupation Numbers
          -------------------------------------------------
 S        2 1
 P        6
 D        9
 F        0
          -------------------------------------------------

 Total:   18

 Net Charge: 0 (Nuclei minus Electrons)

 Preset values for MO occupations will be applied through SCF cycle no. 1000000
 Thereafter, the program will assign electrons to MOs that are spatially
 similar to the occupied MOs in a "reference" cycle ("KeepOrbitals").
 The reference cycle is always the PREVIOUS cycle: it will evolve with
 the SCF procedure.



 ================================
 (Slater-type)  F U N C T I O N S  ***  (Basis and Fit)  ***
 ================================
  

 Atom Type    1  (Ni)
 ==============

 Valence Basis Sets:  15
 -----------------------
   1 S   21.400000
   2 S    9.900000
   2 P   11.750000
   3 S    4.100000
   3 S    6.450000
   3 P    6.800000
   3 P    4.500000
   3 P    3.050000
   3 D    1.540000
   3 D    3.350000
   3 D    7.000000
   4 S    0.950000
   4 S    1.500000
   4 S    2.500000
   4 P    1.470000

 Frozen Core Shells
 ------------------
    S:  2
    P:  1


 BAS: List of all Elementary Cartesian Basis Functions
 =====================================================

 The numbering in the list below (to the right of the function characteristics) is referred
 to in print-outs of MO eigenvectors and Mulliken populations in the BAS representation
 (as contrasted to the SFO representation).

 Notes:
 1. The functions are characterized by a polynomial prefactor (powers of x,y,z and r) and
    an exponential decay factor alpha.
 2. Since the basis sets are specific for an atom TYPE, the individual functions occur on
    all atoms of that type.
 3. The word 'Core' in the left margin signals that it is a Core Function (CF) : not a
    degree of freedom in the valence set, but only used to ensure orthogonalization of
    the other valence basis functions on the frozen Core Orbitals.


 (power of) X  Y  Z  R     Alpha  on Atom
            ==========     =====     ==========

 Ni                                   1
                                  ---------------------------------------------------------------------------
    Core    0  0  0  0    21.400      1
    Core    0  0  0  1     9.900      2
    Core    1  0  0  0    11.750      3
    Core    0  1  0  0    11.750      4
    Core    0  0  1  0    11.750      5
            0  0  0  2     4.100      6
            0  0  0  2     6.450      7
            1  0  0  1     6.800      8
            0  1  0  1     6.800      9
            0  0  1  1     6.800     10
            1  0  0  1     4.500     11
            0  1  0  1     4.500     12
            0  0  1  1     4.500     13
            1  0  0  1     3.050     14
            0  1  0  1     3.050     15
            0  0  1  1     3.050     16
            2  0  0  0     1.540     17
            1  1  0  0     1.540     18
            1  0  1  0     1.540     19
            0  2  0  0     1.540     20
            0  1  1  0     1.540     21
            0  0  2  0     1.540     22
            2  0  0  0     3.350     23
            1  1  0  0     3.350     24
            1  0  1  0     3.350     25
            0  2  0  0     3.350     26
            0  1  1  0     3.350     27
            0  0  2  0     3.350     28
            2  0  0  0     7.000     29
            1  1  0  0     7.000     30
            1  0  1  0     7.000     31
            0  2  0  0     7.000     32
            0  1  1  0     7.000     33
            0  0  2  0     7.000     34
            0  0  0  3     0.950     35
            0  0  0  3     1.500     36
            0  0  0  3     2.500     37
            1  0  0  2     1.470     38
            0  1  0  2     1.470     39
            0  0  1  2     1.470     40

 Total number of charge fitting functions (nprimf)       156
 Total number of Cartesian basis functions (naos)         40
 Total number of Cartesian core functions  (ncos)          5



 BAS: List of all Elementary Cartesian Basis Functions
 =====================================================

 The numbering in the list below (to the right of the function characteristics) is referred
 to in print-outs of MO eigenvectors and Mulliken populations in the BAS representation
 (as contrasted to the SFO representation).

 Notes:
 1. The functions are characterized by a polynomial prefactor (powers of x,y,z and r) and
    an exponential decay factor alpha.
 2. Since the basis sets are specific for an atom TYPE, the individual functions occur on
    all atoms of that type.
 3. The word 'Core' in the left margin signals that it is a Core Function (CF) : not a
    degree of freedom in the valence set, but only used to ensure orthogonalization of
    the other valence basis functions on the frozen Core Orbitals.


 (power of) X  Y  Z  R     Alpha  on Atom
            ==========     =====     ==========

 Ni                                   1
                                  ---------------------------------------------------------------------------
    Core    0  0  0  0    21.400      1
    Core    0  0  0  1     9.900      2
    Core    1  0  0  0    11.750      3
    Core    0  1  0  0    11.750      4
    Core    0  0  1  0    11.750      5
            0  0  0  2     4.100      6
            0  0  0  2     6.450      7
            1  0  0  1     6.800      8
            0  1  0  1     6.800      9
            0  0  1  1     6.800     10
            1  0  0  1     4.500     11
            0  1  0  1     4.500     12
            0  0  1  1     4.500     13
            1  0  0  1     3.050     14
            0  1  0  1     3.050     15
            0  0  1  1     3.050     16
            2  0  0  0     1.540     17
            1  1  0  0     1.540     18
            1  0  1  0     1.540     19
            0  2  0  0     1.540     20
            0  1  1  0     1.540     21
            0  0  2  0     1.540     22
            2  0  0  0     3.350     23
            1  1  0  0     3.350     24
            1  0  1  0     3.350     25
            0  2  0  0     3.350     26
            0  1  1  0     3.350     27
            0  0  2  0     3.350     28
            2  0  0  0     7.000     29
            1  1  0  0     7.000     30
            1  0  1  0     7.000     31
            0  2  0  0     7.000     32
            0  1  1  0     7.000     33
            0  0  2  0     7.000     34
            0  0  0  3     0.950     35
            0  0  0  3     1.500     36
            0  0  0  3     2.500     37
            1  0  0  2     1.470     38
            0  1  0  2     1.470     39
            0  0  1  2     1.470     40
1
 ***************************************************************************************************



                                              ***********************
                                              *  T E C H N I C A L  *
                                              ***********************
  



 =============================================================
 P A R A L L E L I Z A T I O N  and  V E C T O R I Z A T I O N
 =============================================================
  
 Nr of parallel processes:                                1
 Maximum vector length in NumInt loops:                 128

 IO buffersize (Mb):                                     64.000000



 =====================
 S C F   U P D A T E S
 =====================
  
 Max. nr. of cycles:                               300
 Convergence criterion:                              0.0000000100
   secondary criterion:                              0.0000000100

 Mix parameter (when DIIS does not apply):           0.2000000000
 Special mix parameter for the first cycle:          1.0000000000
 Mixed ADIIS+DIIS will be used
    Max number of expansion vectors:                10
    Pure ADIIS when Max([F,P]) is above              0.1000000000
    Pure DIIS when Max([F,P]) is below               0.0010000000
 Automatic ElectronSmearing (in case of problematic SCF convergence) disabled



 =================
 P R E C I S I O N  ***  (General: NumInt, NeglectFunctionTails, ...)  ***
 =================
  

 NumInt:           Target precision:                12.0000000000
 -------           Initial precision:               10.0000000000
                   Min. precision (optimization):   10.0000000000

 Neglect Functions:          Basis functions:        0.1000000000E-13
 ------------------          Fit functions:          0.1000000000E-13



 ===========================
 L I N E A R   S C A L I N G
 ===========================
  

 Cut-off radii density fit:                        0.1000000000E-97
 Overlap cut-off criterion AO matrix elements:     0.1000000000E-97
 Cut-offs for Coulomb potential and fitted density:0.1000000000E-97
 Cut-off criterion for Coulomb multipole terms:    0.1000000000E-97
 Progressive Convergence parameter:                 0.000000000    
1
 ***************************************************************************************************



                                            ***************************
                                            *  C O M P U T A T I O N  *
                                            ***************************
  

 Number of elements of the density matrix on this node (used, total):       820       820



 ===========================================
 Numerical Integration : Fuzzy Cells (Becke)
 ===========================================
  
 Becke grid quality: VERYGOOD       
  
 Lebedev angular grid order:             min:  13 max:  41
 Nr. of radial points:                   min:  93 max:  93

 Total nr. of points:         93
 Nr. of blocks:                1
 Block length:                93
 Nr. of dummy points:          0


 Test of Precision of the Numerical Integration Grid
 ===================================================

 Integral of the Total Core Density:                   9.99999999942030
 Relative Error:                                      -5.797E-11



 ========================
 Density Fitting (zlmFit)
 ========================
  
 ZlmFit Fit Quality: VERYGOOD       
  
 Max L-expansion:                        min:   0 max:   0
 Nr. of radial interpolation points:     min: 200 max: 200



 =====
 S C F  ***  ScaSCF  ***
 =====
  

 CYCLE    1
 SCF Error: norm([F,P])=      0.000000000000, max([F,P])=      0.000000000000
 orbitals (Q,E):
 ---------------
 S :1...5            ( 2.00   -22.7088)  ( 1.00   -11.7988)  ( 0.00    -7.2017)  ( 0.00    -4.6528)
                     ( 0.00    -2.8486)
 P :1...4            ( 6.00   -21.4022)  ( 0.00   -11.2443)  ( 0.00    -6.2133)  ( 0.00    -4.1274)
 D :1...3            ( 9.00   -19.5613)  ( 0.00   -10.6771)  ( 0.00    -6.0840)

 CYCLE    2
  SDIIS (wt  0.000):  1.0000 -0.0000
 A-DIIS (wt  1.000):  0.2533  0.7467
  DIIS coefficients:  0.2533  0.7467
 SCF Error: norm([F,P])=     27.643695803039, max([F,P])=      7.467263929448
 orbitals (Q,E):
 ---------------
 S :1...3            ( 2.00    -4.7700)  ( 1.00    -1.6322)  ( 0.00    -0.8149)
 P :1...2            ( 6.00    -3.5124)  ( 0.00    -1.2795)
 D :1...2            ( 9.00    -1.5908)  ( 0.00    -0.5250)

 CYCLE    3
  SDIIS (wt  0.000):  0.2753  0.7247
 A-DIIS (wt  1.000):  0.1629  0.8371
  DIIS coefficients:  0.1629  0.8371
 SCF Error: norm([F,P])=     11.944776035518, max([F,P])=      4.154276605991
 orbitals (Q,E):
 ---------------
 S :1...3            ( 2.00    -5.3009)  ( 1.00    -0.2975)  ( 0.00     0.0591)
 P :1...2            ( 6.00    -3.9102)  ( 0.00    -0.0595)
 D :1...2            ( 9.00    -1.5775)  ( 0.00     0.4123)

 CYCLE    4
  SDIIS (wt  0.000): -0.1376  0.3566  0.7810
 A-DIIS (wt  1.000):  0.0000  0.4100  0.5900
  DIIS coefficients:  0.0000  0.4100  0.5900
 SCF Error: norm([F,P])=      9.734272238425, max([F,P])=      2.728980925393
 orbitals (Q,E):
 ---------------
 S :1...3            ( 2.00    -3.5721)  ( 1.00    -0.1146)  ( 0.00     0.1103)
 P :1...2            ( 6.00    -2.2202)  ( 0.00     0.0643)
 D :1...2            ( 9.00    -0.0281)  ( 0.00     0.7290)

 CYCLE    5
  SDIIS (wt  0.000): -0.0225 -0.0957  0.1296  0.9886
 A-DIIS (wt  1.000):  0.0000  0.0000  0.0149  0.9851
  DIIS coefficients:  0.0000  0.0000  0.0149  0.9851
 SCF Error: norm([F,P])=      1.896978938037, max([F,P])=      0.632807426963
 orbitals (Q,E):
 ---------------
 S :1...3            ( 2.00    -4.2440)  ( 1.00    -0.2222)  ( 0.00     0.0525)
 P :1...2            ( 6.00    -2.8728)  ( 0.00    -0.0286)
 D :1...2            ( 9.00    -0.5880)  ( 0.00     0.5105)

 CYCLE    6
  SDIIS (wt  0.000):  0.0078 -0.0159 -0.1335  0.6277  0.5138
 A-DIIS (wt  1.000):  0.0000  0.0000  0.0000  0.7509  0.2491
  DIIS coefficients:  0.0000  0.0000  0.0000  0.7509  0.2491
 SCF Error: norm([F,P])=      4.018773414133, max([F,P])=      1.218609399647
 orbitals (Q,E):
 ---------------
 S :1...3            ( 2.00    -3.8777)  ( 1.00    -0.1773)  ( 0.00     0.0699)
 P :1...2            ( 6.00    -2.5166)  ( 0.00     0.0061)
 D :1...2            ( 9.00    -0.2742)  ( 0.00     0.6015)

 CYCLE    7
  SDIIS (wt  0.000):  0.0024 -0.0082 -0.0037  0.3405 -0.0833  0.7524
 A-DIIS (wt  1.000):  0.0000  0.0000  0.0000  0.3547  0.0000  0.6453
  DIIS coefficients:  0.0000  0.0000  0.0000  0.3547  0.0000  0.6453
 SCF Error: norm([F,P])=      1.148759496073, max([F,P])=      0.385568071353
 orbitals (Q,E):
 ---------------
 S :1...3            ( 2.00    -3.7178)  ( 1.00    -0.1580)  ( 0.00     0.0787)
 P :1...2            ( 6.00    -2.3618)  ( 0.00     0.0222)
 D :1...2            ( 9.00    -0.1470)  ( 0.00     0.6519)

 CYCLE    8
  SDIIS (wt  0.000):  0.0000 -0.0004  0.0007 -0.0041 -0.0285  0.2808  0.7514
 A-DIIS (wt  1.000):  0.0000  0.0000  0.0000  0.0000  0.0000  0.1097  0.8903
  DIIS coefficients:  0.0000  0.0000  0.0000  0.0000  0.0000  0.1097  0.8903
 SCF Error: norm([F,P])=      0.304597750240, max([F,P])=      0.105174555657
 orbitals (Q,E):
 ---------------
 S :1...3            ( 2.00    -3.7934)  ( 1.00    -0.1667)  ( 0.00     0.0746)
 P :1...2            ( 6.00    -2.4348)  ( 0.00     0.0147)
 D :1...2            ( 9.00    -0.2059)  ( 0.00     0.6271)

 CYCLE    9
  SDIIS (wt  0.000): -0.0001  0.0003  0.0020  0.0335  0.0144 -0.5815  1.5313
 A-DIIS (wt  1.000):  0.0000  0.0000  0.0000  0.0927  0.0000  0.0000  0.9073
  DIIS coefficients:  0.0000  0.0000  0.0000  0.0927  0.0000  0.0000  0.9073
 SCF Error: norm([F,P])=      0.432010586525, max([F,P])=      0.146564297857
 orbitals (Q,E):
 ---------------
 S :1...3            ( 2.00    -3.6822)  ( 1.00    -0.1544)  ( 0.00     0.0805)
 P :1...2            ( 6.00    -2.3273)  ( 0.00     0.0252)
 D :1...2            ( 9.00    -0.1201)  ( 0.00     0.6638)

 CYCLE   10
  SDIIS (wt  0.000):  0.0000 -0.0006  0.0033 -0.0365 -0.0657  0.4945  0.6049
 A-DIIS (wt  1.000):  0.0000  0.0000  0.0000  0.0000  0.0000  0.3310  0.6690
  DIIS coefficients:  0.0000  0.0000  0.0000  0.0000  0.0000  0.3310  0.6690
 SCF Error: norm([F,P])=      0.686924338558, max([F,P])=      0.237325667529
 orbitals (Q,E):
 ---------------
 S :1...3            ( 2.00    -3.7743)  ( 1.00    -0.1645)  ( 0.00     0.0758)
 P :1...2            ( 6.00    -2.4164)  ( 0.00     0.0166)
 D :1...2            ( 9.00    -0.1910)  ( 0.00     0.6332)

 CYCLE   11
  SDIIS (wt  0.172):  0.0000  0.0001 -0.0019  0.0055  0.0338 -0.3727  1.3351
 A-DIIS (wt  0.828):  0.0000  0.0000  0.0000  0.0000  0.0000  0.0000  1.0000
  DIIS coefficients:  0.0000  0.0000 -0.0003  0.0010  0.0058 -0.0641  1.0576
 SCF Error: norm([F,P])=      0.242018261052, max([F,P])=      0.082973822373
 orbitals (Q,E):
 ---------------
 S :1...3            ( 2.00    -3.6885)  ( 1.00    -0.1550)  ( 0.00     0.0802)
 P :1...2            ( 6.00    -2.3334)  ( 0.00     0.0247)
 D :1...2            ( 9.00    -0.1248)  ( 0.00     0.6616)

 CYCLE   12
  SDIIS (wt  0.000): -0.0005  0.0034 -0.0371 -0.0605  0.4586  0.6362
 A-DIIS (wt  1.000):  0.0000  0.0000  0.0000  0.0000  0.2985  0.7015
  DIIS coefficients:  0.0000  0.0000  0.0000  0.0000  0.2985  0.7015
 SCF Error: norm([F,P])=      0.619326582217, max([F,P])=      0.213705409441
 orbitals (Q,E):
 ---------------
 S :1...3            ( 2.00    -3.7777)  ( 1.00    -0.1648)  ( 0.00     0.0756)
 P :1...2            ( 6.00    -2.4196)  ( 0.00     0.0163)
 D :1...2            ( 9.00    -0.1935)  ( 0.00     0.6322)

 CYCLE   13
  SDIIS (wt  0.057): -0.0002  0.0039 -0.0023  0.5912 -0.0891  0.4965
 A-DIIS (wt  0.943):  0.0000  0.0000  0.0000  0.4664  0.0000  0.5336
  DIIS coefficients: -0.0000  0.0002 -0.0001  0.4735 -0.0051  0.5315
 SCF Error: norm([F,P])=      0.276054607984, max([F,P])=      0.094373822244
 orbitals (Q,E):
 ---------------
 S :1...3            ( 2.00    -3.7476)  ( 1.00    -0.1615)  ( 0.00     0.0770)
 P :1...2            ( 6.00    -2.3905)  ( 0.00     0.0190)
 D :1...2            ( 9.00    -0.1700)  ( 0.00     0.6417)

 CYCLE   14
  SDIIS (wt  0.965): -0.0010  0.0008 -0.0276 -0.0059  0.1097  0.0155  0.9085
 A-DIIS (wt  0.035):  0.0000  0.0000  0.0000  0.0000  0.0000  0.0000  1.0000
  DIIS coefficients: -0.0010  0.0008 -0.0266 -0.0057  0.1059  0.0150  0.9117
 SCF Error: norm([F,P])=      0.013238935583, max([F,P])=      0.004423051651
 orbitals (Q,E):
 ---------------
 S :1...3            ( 2.00    -3.7489)  ( 1.00    -0.1617)  ( 0.00     0.0770)
 P :1...2            ( 6.00    -2.3918)  ( 0.00     0.0189)
 D :1...2            ( 9.00    -0.1710)  ( 0.00     0.6413)

 CYCLE   15
  SDIIS (wt  1.000):  0.0001 -0.0022  0.0026  0.0021  0.0133  0.9841
  DIIS coefficients:  0.0001 -0.0022  0.0026  0.0021  0.0133  0.9841
 SCF Error: norm([F,P])=      0.001315949693, max([F,P])=      0.000448219517
 orbitals (Q,E):
 ---------------
 S :1...3            ( 2.00    -3.7488)  ( 1.00    -0.1617)  ( 0.00     0.0770)
 P :1...2            ( 6.00    -2.3916)  ( 0.00     0.0189)
 D :1...2            ( 9.00    -0.1709)  ( 0.00     0.6413)

 CYCLE   16
  SDIIS (wt  1.000):  0.0001 -0.0002  0.0006  0.0758  0.9238
  DIIS coefficients:  0.0001 -0.0002  0.0006  0.0758  0.9238
 SCF Error: norm([F,P])=      0.000007401442, max([F,P])=      0.000002688257
 orbitals (Q,E):
 ---------------
 S :1...3            ( 2.00    -3.7488)  ( 1.00    -0.1617)  ( 0.00     0.0770)
 P :1...2            ( 6.00    -2.3916)  ( 0.00     0.0189)
 D :1...2            ( 9.00    -0.1709)  ( 0.00     0.6413)

 CYCLE   17
  SDIIS (wt  1.000):  0.0000  0.0000 -0.0027  1.0026
  DIIS coefficients:  0.0000  0.0000 -0.0027  1.0026
 SCF Error: norm([F,P])=      0.000000055747, max([F,P])=      0.000000018985
 orbitals (Q,E):
 ---------------
 S :1...3            ( 2.00    -3.7488)  ( 1.00    -0.1617)  ( 0.00     0.0770)
 P :1...2            ( 6.00    -2.3916)  ( 0.00     0.0189)
 D :1...2            ( 9.00    -0.1709)  ( 0.00     0.6413)

 CYCLE   18
  SDIIS (wt  1.000):  0.0000 -0.0001 -0.0348  1.0349
  DIIS coefficients:  0.0000 -0.0001 -0.0348  1.0349
 SCF Error: norm([F,P])=      0.000000000301, max([F,P])=      0.000000000090
 orbitals (Q,E):
 ---------------
 S :1...3            ( 2.00    -3.7488)  ( 1.00    -0.1617)  ( 0.00     0.0770)
 P :1...2            ( 6.00    -2.3916)  ( 0.00     0.0189)
 D :1...2            ( 9.00    -0.1709)  ( 0.00     0.6413)

 SCF CONVERGED

 CYCLE   19
1
 ***************************************************************************************************



                                                *******************
                                                *  R E S U L T S  *
                                                *******************
  
 *** Setting up for NEW gradients in Focky
 *** Using FIT density in Focky

 Orbital Energies, per Irrep and Spin:
 ======================================
                        Occup              E (au)              E (eV)       Diff (eV) with prev. cycle
                        -----      --------------------        ------       --------------------------
 S
               1        2.000     -0.37487685864672E+01      -102.009              -8.72E-11
               2        1.000     -0.16166451119992E+00        -4.399              -7.08E-11
               3        0.000      0.76982311327486E-01         2.095
               4        0.000      0.79963207320972E+00        21.759
               5        0.000      0.69751437302132E+01       189.803
 P
               1        6.000     -0.23916338382530E+01       -65.080              -8.91E-11
               2        0.000      0.18941891954572E-01         0.515
               3        0.000      0.15240509683365E+01        41.472
               4        0.000      0.11475223465681E+02       312.257
 D
               1        9.000     -0.17093231681853E+00        -4.651              -9.01E-11
               2        0.000      0.64134357338740E+00        17.452
               3        0.000      0.57308881954405E+01       155.945


 Partially Occupied:
               2 S                -0.16166451119992E+00
               1 D                -0.17093231681853E+00
  
 HOMO :        1 P                -0.23916338382530E+01
 LUMO :        2 P                 0.18941891954572E-01
  


 Orbital Energies, all Irreps
 ========================================

 Irrep        no.  (spin)   Occup              E (au)                E (eV)
 ---------------------------------------------------------------------------
 S             1             2.00       -0.37487685864672E+01      -102.0092
 P             1             6.00       -0.23916338382530E+01       -65.0797
 D             1             9.00       -0.17093231681853E+00        -4.6513
 S             2             1.00       -0.16166451119992E+00        -4.3991
 P             2             0.00        0.18941891954572E-01         0.5154
 S             3             0.00        0.76982311327486E-01         2.0948
 D             2             0.00        0.64134357338740E+00        17.4518
 S             4             0.00        0.79963207320972E+00        21.7591
 P             3             0.00        0.15240509683365E+01        41.4715
 D             3             0.00        0.57308881954405E+01       155.9454
 S             5             0.00        0.69751437302132E+01       189.8033
 P             4             0.00        0.11475223465681E+02       312.2567


 Orbital Energies of the Core Orbitals:
 ======================================
 (Note that the atoms are grouped by atomtype, see the labels, and may hence NOT be in input order)

 AtomType  Orbital  Atom                   E (au)                        E (eV)
 --------  -------  ----           --------------------        ----------------
 Ni          1S        1          -0.29766231881054E+03               -8099.804
             2S        1          -0.35081340679576E+02                -954.612
             2P        1          -0.30646253153795E+02                -833.927



 =======================================
 M U L L I K E N   P O P U L A T I O N S
 =======================================
  
 The survey below gives for each atom:
 a) the total charge (Z minus electrons)
 b) the net spin polarization (nr of electrons spin-A minus spin-B)
 c) for each spin the atomic electron valence density (integrated) per L-value.

 Atom              Charge    Spin density          S         P         D         F
 ----              ------    ------------       ------    ------    ------    ------
 1 Ni              0.0000                       3.0000    6.0000    9.0000    0.0000

 Populations of individual BAS functions
 ----------------------------------------
 1 Ni          -0.0151 -0.0649  0.0239  0.0239  0.0239  1.0849  0.9892  0.4093  0.4093  0.4093
                1.2098  1.2098  1.2098  0.3548  0.3548  0.3548  0.2693  0.4040  0.4040  0.2693
                0.4040  0.2693  0.6188  0.9282  0.9282  0.6188  0.9282  0.6188  0.3119  0.4678
                0.4678  0.3119  0.4678  0.3119  0.2380  0.5419  0.2261  0.0023  0.0023  0.0023

 Gross Charges per Atom (Z minus electrons)
 ==========================================
             0.0000
 Net Total:  0.00000000



 =======================================================================
 Electrostatic potential at the Nuclei due to electrons and other nuclei
 =======================================================================
  
         Atom                  Potential
         ----                  ---------
     1)   Ni                128.63234259
 
 
 ========================
 No memory problems found
 ========================
 
 Maximum number of active allocate calls:         376
 
 *******************************************************************************

                             A D F   E X I T
 NORMAL TERMINATION



 =================
 Timing Statistics
 =================
  
 Total Used :                     CPU=        1.33      System=        0.07     Elapsed=        1.68

 Calls  Section                     ( Mean, Percentage )
 ---------------------------------------------------------------------------------------------------
     3  ><      ................      0.00    0.11             0.00    1.02             0.00    0.65
     1  INIT    ................      0.02    1.23             0.02   24.50             0.12    7.22
     1  GEOMET  ................      0.01    0.89             0.01   11.30             0.04    2.27
     1  INPUTA  ................      0.00    0.28             0.00    2.66             0.01    0.67
     1  MAINSY  ................      0.02    1.36             0.00    2.71             0.04    2.37
     1  SYMFIT  ................      0.00    0.07             0.00    0.02             0.00    0.05
     1  CORORT  ................      0.00    0.11             0.00    0.03             0.01    0.34
     1  SYMORB  ................      0.00    0.11             0.00    0.00             0.00    0.09
     1  CLSMAT  ................      0.01    0.67             0.00    0.00             0.01    0.76
     1  ORTHON  ................      0.00    0.15             0.00    1.37             0.01    0.39
     1  GENPT   ................      0.03    2.32             0.00    1.42             0.04    2.37
     1  PTBAS   ................      0.01    0.44             0.00    2.53             0.01    0.69
    19  FOCKY   ................      0.06   79.43             0.00   36.89             0.06   65.35
    19  FOCKTR  ................      0.00    1.81             0.00    0.56             0.00    1.46
    19  SDIIS   ................      0.00    4.29             0.00    7.88             0.01    8.63
     1  COREPS  ................      0.05    3.94             0.00    2.72             0.06    3.34
     1  POPAN   ................      0.01    0.55             0.00    0.07             0.01    0.69
     1  DEBYE   ................      0.00    0.11             0.00    0.04             0.01    0.31
     1  EXIT PROCEDURE .........      0.03    2.13             0.00    4.29             0.04    2.35


 Currently Open Files (EXIT00)
 ====================

 Unit    Access Format  Status   Type       Ident (file)
 -------------------------------------------------------
   3      SEQ    FORM   TRANSP  NORMAL      LOGFILE
                                          ( logfile )


 Buffered I/O statistics
 =======================
 Memory available:                     67108864
 Number of records fitting in memory:     16131
 Input :   0.1% of                        24401  *4k bytes
 Output:  16.9% of                          940  *4k bytes
 Records from serial files evicted:           0
                    others evicted:           0
 Hash table lookups:      49182 with          0 conflicts (  0.00%)

 ***************************************************************************************************
 (LOGFILE)
 <Mar24-2020> <16:21:22>  ADF 2017  RunTime: Mar24-2020 16:21:22  Nodes: 1  Procs: 1
 <Mar24-2020> <16:21:22>  Nickel (TZP, 2p frozen)
 <Mar24-2020> <16:21:22>  RunType   : CREATE
 <Mar24-2020> <16:21:22>  Net Charge: 0 (Nuclei minus Electrons)
 <Mar24-2020> <16:21:22>  Symmetry  : ATOM
  Coordinates
    Atom         X           Y           Z   (Angstrom)
    1.Ni        0.000000    0.000000    0.000000
 <Mar24-2020> <16:21:22>  >>>> CORORT
 <Mar24-2020> <16:21:22>  >>>> CLSMAT
 <Mar24-2020> <16:21:22>  >>>> ORTHON
 <Mar24-2020> <16:21:22>  >>>> GENPT
 <Mar24-2020> <16:21:22>  Block Length=  93
 <Mar24-2020> <16:21:22>  >>>> PTBAS
 <Mar24-2020> <16:21:22>  >>>> CYCLE
 <Mar24-2020> <16:21:22>              |Error|         MaxErr       Wt(A-DIIS)
 <Mar24-2020> <16:21:22>      1      0.00000000      0.00000000
 <Mar24-2020> <16:21:22>      2     27.64369580      7.46726393    100.0
 <Mar24-2020> <16:21:22>      3     11.94477604      4.15427661    100.0
 <Mar24-2020> <16:21:22>      4      9.73427224      2.72898093    100.0
 <Mar24-2020> <16:21:22>      5      1.89697894      0.63280743    100.0
 <Mar24-2020> <16:21:22>      6      4.01877341      1.21860940    100.0
 <Mar24-2020> <16:21:22>      7      1.14875950      0.38556807    100.0
 <Mar24-2020> <16:21:23>      8      0.30459775      0.10517456    100.0
 <Mar24-2020> <16:21:23>      9      0.43201059      0.14656430    100.0
 <Mar24-2020> <16:21:23>     10      0.68692434      0.23732567    100.0
 <Mar24-2020> <16:21:23>     11      0.24201826      0.08297382     82.8
 <Mar24-2020> <16:21:23>     12      0.61932658      0.21370541    100.0
 <Mar24-2020> <16:21:23>     13      0.27605461      0.09437382     94.3
 <Mar24-2020> <16:21:23>     14      0.01323894      0.00442305      3.5
 <Mar24-2020> <16:21:23>     15      0.00131595      0.00044822      0.0
 <Mar24-2020> <16:21:23>     16      0.00000740      0.00000269      0.0
 <Mar24-2020> <16:21:23>     17      0.00000006      0.00000002      0.0
 <Mar24-2020> <16:21:23>     18      0.00000000      0.00000000      0.0
 <Mar24-2020> <16:21:23>  SCF converged
 <Mar24-2020> <16:21:23>     19      0.00000000      0.00000000      0.0
 <Mar24-2020> <16:21:23>  >>>> POPAN
 <Mar24-2020> <16:21:23>  >>>> DEBYE
 <Mar24-2020> <16:21:23>  NORMAL TERMINATION
 <Mar24-2020> <16:21:23>  END

Create O   file=DZ-O.1s
End Input

 *******************************************************************************
 *                                                                             *
 *  -------------------------------------                                      *
 *   Amsterdam Density Functional  (ADF)         2017                          *
 *  -------------------------------------                                      *
 *                                               r65426 2018-05-03             *
 *                                                                             *
 *                                                                             *
 *                              =================                              *
 *                              |               |                              *
 *                              |     A D F     |                              *
 *                              |               |                              *
 *                              =================                              *
 *                                                                             *
 *                                                                             *
 *   Online information and documentation:  https://www.scm.com/support/       *
 *   E-mail:  support@scm.com   info@scm.com                                   *
 *                                                                             *
 *   Scientific publications using ADF results must be properly referenced     *
 *   See the User Manuals (or the web site) for recommended citations          *
 *   The terms and conditions of the End User License Agreement apply to       *
 *   the use of ADF, https://www.scm.com/license-terms/                        *
 *                                                                             *
 **********************  x86_64_linux_intel / intelmpi  ************************
 
 Licensed to: Dr. Jochen Autschbach / University at Buffalo / Buffalo / NY / USA
 SCM User ID: u7467
  
 ADF 2017  RunTime: Mar24-2020 16:21:24  Nodes: 1  Procs: 1

 Temporary files are created in /scratch/1800736/kid_0.cnHP5k

 Oxygen (DZ, 1s frozen)



 ===========================
 A T T A C H E D   F I L E S
 ===========================
  
 CREATE - Data File:    DZ-O.1s
                        Oxygen (DZ, 1s frozen)



 ===============================
 M O D E L   P A R A M E T E R S
 ===============================
  
 DENSITY FUNCTIONAL POTENTIAL (scf)
    LDA:                               VWN                                      
    Gradient Corrections:              ---                                      

 SPIN  (restricted / unrestr.)
    Molecule:                          Restricted                               

 OTHER ASPECTS
    Relativistic Corrections:          ---                                      

    Nuclear Charge Density Model:      Point Charge Nuclei                      
    Core Treatment:                    Frozen Orbital(s)                        

    Hyperfine or Zeeman Interaction:   ---                                      



 =====================================
 S Y M M E T R Y ,   E L E C T R O N S
 =====================================
  
 Symmetry: ATOM

 Irreducible Representations, including subspecies
 -------------------------------------------------
 S
 P:x  P:y  P:z
 D:z2  D:x2-y2  D:xy  D:xz  D:yz
 F:z3  F:z  F:xyz  F:z2x  F:z2y  F:x  F:y


 Configuration of Valence Electrons
 ==================================

          Occupation Numbers
          -------------------------------------------------
 S        2
 P        4
 D        0
 F        0
          -------------------------------------------------

 Total:   6

 Net Charge: 0 (Nuclei minus Electrons)

 Preset values for MO occupations will be applied through SCF cycle no. 1000000
 Thereafter, the program will assign electrons to MOs that are spatially
 similar to the occupied MOs in a "reference" cycle ("KeepOrbitals").
 The reference cycle is always the PREVIOUS cycle: it will evolve with
 the SCF procedure.



 ================================
 (Slater-type)  F U N C T I O N S  ***  (Basis and Fit)  ***
 ================================
  

 Atom Type    1  (O)
 ==============

 Valence Basis Sets:   5
 -----------------------
   1 S    7.360000
   2 S    1.700000
   2 S    2.820000
   2 P    1.300000
   2 P    3.060000

 Frozen Core Shells
 ------------------
    S:  1


 BAS: List of all Elementary Cartesian Basis Functions
 =====================================================

 The numbering in the list below (to the right of the function characteristics) is referred
 to in print-outs of MO eigenvectors and Mulliken populations in the BAS representation
 (as contrasted to the SFO representation).

 Notes:
 1. The functions are characterized by a polynomial prefactor (powers of x,y,z and r) and
    an exponential decay factor alpha.
 2. Since the basis sets are specific for an atom TYPE, the individual functions occur on
    all atoms of that type.
 3. The word 'Core' in the left margin signals that it is a Core Function (CF) : not a
    degree of freedom in the valence set, but only used to ensure orthogonalization of
    the other valence basis functions on the frozen Core Orbitals.


 (power of) X  Y  Z  R     Alpha  on Atom
            ==========     =====     ==========

 O                                    1
                                  ---------------------------------------------------------------------------
    Core    0  0  0  0     7.360      1
            0  0  0  1     1.700      2
            0  0  0  1     2.820      3
            1  0  0  0     1.300      4
            0  1  0  0     1.300      5
            0  0  1  0     1.300      6
            1  0  0  0     3.060      7
            0  1  0  0     3.060      8
            0  0  1  0     3.060      9

 Total number of charge fitting functions (nprimf)        82
 Total number of Cartesian basis functions (naos)          9
 Total number of Cartesian core functions  (ncos)          1



 BAS: List of all Elementary Cartesian Basis Functions
 =====================================================

 The numbering in the list below (to the right of the function characteristics) is referred
 to in print-outs of MO eigenvectors and Mulliken populations in the BAS representation
 (as contrasted to the SFO representation).

 Notes:
 1. The functions are characterized by a polynomial prefactor (powers of x,y,z and r) and
    an exponential decay factor alpha.
 2. Since the basis sets are specific for an atom TYPE, the individual functions occur on
    all atoms of that type.
 3. The word 'Core' in the left margin signals that it is a Core Function (CF) : not a
    degree of freedom in the valence set, but only used to ensure orthogonalization of
    the other valence basis functions on the frozen Core Orbitals.


 (power of) X  Y  Z  R     Alpha  on Atom
            ==========     =====     ==========

 O                                    1
                                  ---------------------------------------------------------------------------
    Core    0  0  0  0     7.360      1
            0  0  0  1     1.700      2
            0  0  0  1     2.820      3
            1  0  0  0     1.300      4
            0  1  0  0     1.300      5
            0  0  1  0     1.300      6
            1  0  0  0     3.060      7
            0  1  0  0     3.060      8
            0  0  1  0     3.060      9
1
 ***************************************************************************************************



                                              ***********************
                                              *  T E C H N I C A L  *
                                              ***********************
  



 =============================================================
 P A R A L L E L I Z A T I O N  and  V E C T O R I Z A T I O N
 =============================================================
  
 Nr of parallel processes:                                1
 Maximum vector length in NumInt loops:                 128

 IO buffersize (Mb):                                     64.000000



 =====================
 S C F   U P D A T E S
 =====================
  
 Max. nr. of cycles:                               300
 Convergence criterion:                              0.0000000100
   secondary criterion:                              0.0000000100

 Mix parameter (when DIIS does not apply):           0.2000000000
 Special mix parameter for the first cycle:          1.0000000000
 Mixed ADIIS+DIIS will be used
    Max number of expansion vectors:                10
    Pure ADIIS when Max([F,P]) is above              0.1000000000
    Pure DIIS when Max([F,P]) is below               0.0010000000
 Automatic ElectronSmearing (in case of problematic SCF convergence) disabled



 =================
 P R E C I S I O N  ***  (General: NumInt, NeglectFunctionTails, ...)  ***
 =================
  

 NumInt:           Target precision:                12.0000000000
 -------           Initial precision:               10.0000000000
                   Min. precision (optimization):   10.0000000000

 Neglect Functions:          Basis functions:        0.1000000000E-13
 ------------------          Fit functions:          0.1000000000E-13



 ===========================
 L I N E A R   S C A L I N G
 ===========================
  

 Cut-off radii density fit:                        0.1000000000E-97
 Overlap cut-off criterion AO matrix elements:     0.1000000000E-97
 Cut-offs for Coulomb potential and fitted density:0.1000000000E-97
 Cut-off criterion for Coulomb multipole terms:    0.1000000000E-97
 Progressive Convergence parameter:                 0.000000000    
1
 ***************************************************************************************************



                                            ***************************
                                            *  C O M P U T A T I O N  *
                                            ***************************
  

 Number of elements of the density matrix on this node (used, total):        45        45



 ===========================================
 Numerical Integration : Fuzzy Cells (Becke)
 ===========================================
  
 Becke grid quality: VERYGOOD       
  
 Lebedev angular grid order:             min:  13 max:  41
 Nr. of radial points:                   min:  68 max:  68

 Total nr. of points:         68
 Nr. of blocks:                1
 Block length:                68
 Nr. of dummy points:          0


 Test of Precision of the Numerical Integration Grid
 ===================================================

 Integral of the Total Core Density:                   1.99999999978657
 Relative Error:                                      -1.067E-10



 ========================
 Density Fitting (zlmFit)
 ========================
  
 ZlmFit Fit Quality: VERYGOOD       
  
 Max L-expansion:                        min:   0 max:   0
 Nr. of radial interpolation points:     min: 140 max: 140



 =====
 S C F  ***  ScaSCF  ***
 =====
  

 CYCLE    1
 SCF Error: norm([F,P])=      0.000000000000, max([F,P])=      0.000000000000
 orbitals (Q,E):
 ---------------
 S :1...2            ( 2.00    -5.2718)  ( 0.00    -2.1436)
 P :1...2            ( 4.00    -4.9302)  ( 0.00    -2.0759)

 CYCLE    2
 SCF Error: norm([F,P])=      2.519309333884, max([F,P])=      1.851930886202
 orbitals (Q,E):
 ---------------
 S :1...2            ( 2.00    -0.1729)  ( 0.00     1.8534)
 P :1...2            ( 4.00     0.2627)  ( 0.00     1.7589)

 CYCLE    3
  SDIIS (wt  0.000):  0.4872  0.5128
 A-DIIS (wt  1.000):  0.3858  0.6142
  DIIS coefficients:  0.3858  0.6142
 SCF Error: norm([F,P])=      2.393844450511, max([F,P])=      1.626923771603
 orbitals (Q,E):
 ---------------
 S :1...2            ( 2.00    -1.0348)  ( 0.00     0.9210)
 P :1...2            ( 4.00    -0.4973)  ( 0.00     0.7103)

 CYCLE    4
  SDIIS (wt  0.000):  0.1599  0.8401
 A-DIIS (wt  1.000):  0.0000  1.0000
  DIIS coefficients:  0.0000  1.0000
 SCF Error: norm([F,P])=      0.457220546675, max([F,P])=      0.277237220055
 orbitals (Q,E):
 ---------------
 S :1...2            ( 2.00    -0.7496)  ( 0.00     1.1304)
 P :1...2            ( 4.00    -0.2230)  ( 0.00     0.9246)

 CYCLE    5
  SDIIS (wt  0.000): -0.2645  1.2645
 A-DIIS (wt  1.000):  0.0000  1.0000
  DIIS coefficients:  0.0000  1.0000
 SCF Error: norm([F,P])=      0.503959438270, max([F,P])=      0.307668745672
 orbitals (Q,E):
 ---------------
 S :1...2            ( 2.00    -1.0292)  ( 0.00     0.8979)
 P :1...2            ( 4.00    -0.4987)  ( 0.00     0.6849)

 CYCLE    6
  SDIIS (wt  0.000):  0.5094  0.4906
 A-DIIS (wt  1.000):  0.5250  0.4750
  DIIS coefficients:  0.5250  0.4750
 SCF Error: norm([F,P])=      0.523223847579, max([F,P])=      0.320690639059
 orbitals (Q,E):
 ---------------
 S :1...2            ( 2.00    -0.8844)  ( 0.00     1.0129)
 P :1...2            ( 4.00    -0.3525)  ( 0.00     0.8001)

 CYCLE    7
  SDIIS (wt  0.918): -0.0297  1.0297
 A-DIIS (wt  0.082):  0.0000  1.0000
  DIIS coefficients: -0.0273  1.0273
 SCF Error: norm([F,P])=      0.015115866171, max([F,P])=      0.009100912642
 orbitals (Q,E):
 ---------------
 S :1...2            ( 2.00    -0.8790)  ( 0.00     1.0164)
 P :1...2            ( 4.00    -0.3474)  ( 0.00     0.8037)

 CYCLE    8
  SDIIS (wt  1.000):  0.0782  0.9218
  DIIS coefficients:  0.0782  0.9218
 SCF Error: norm([F,P])=      0.001282982384, max([F,P])=      0.000777777703
 orbitals (Q,E):
 ---------------
 S :1...2            ( 2.00    -0.8794)  ( 0.00     1.0162)
 P :1...2            ( 4.00    -0.3478)  ( 0.00     0.8035)

 CYCLE    9
  SDIIS (wt  1.000): -0.0020  1.0020
  DIIS coefficients: -0.0020  1.0020
 SCF Error: norm([F,P])=      0.000002577670, max([F,P])=      0.000001559758
 orbitals (Q,E):
 ---------------
 S :1...2            ( 2.00    -0.8794)  ( 0.00     1.0162)
 P :1...2            ( 4.00    -0.3478)  ( 0.00     0.8035)

 CYCLE   10
  SDIIS (wt  1.000):  0.0006  0.9994
  DIIS coefficients:  0.0006  0.9994
 SCF Error: norm([F,P])=      0.000000001466, max([F,P])=      0.000000000884
 orbitals (Q,E):
 ---------------
 S :1...2            ( 2.00    -0.8794)  ( 0.00     1.0162)
 P :1...2            ( 4.00    -0.3478)  ( 0.00     0.8035)

 SCF CONVERGED

 CYCLE   11
1
 ***************************************************************************************************



                                                *******************
                                                *  R E S U L T S  *
                                                *******************
  
 *** Setting up for NEW gradients in Focky
 *** Using FIT density in Focky

 Orbital Energies, per Irrep and Spin:
 ======================================
                        Occup              E (au)              E (eV)       Diff (eV) with prev. cycle
                        -----      --------------------        ------       --------------------------
 S
               1        2.000     -0.87938999257745E+00       -23.929              -1.29E-11
               2        0.000      0.10161626513330E+01        27.651
 P
               1        4.000     -0.34779663996634E+00        -9.464              -1.29E-11
               2        0.000      0.80345103879696E+00        21.863


 Partially Occupied:
               1 P                -0.34779663996634E+00
  
 HOMO :        1 S                -0.87938999257745E+00
 LUMO :        2 P                 0.80345103879696E+00
  


 Orbital Energies, all Irreps
 ========================================

 Irrep        no.  (spin)   Occup              E (au)                E (eV)
 ---------------------------------------------------------------------------
 S             1             2.00       -0.87938999257745E+00       -23.9294
 P             1             4.00       -0.34779663996634E+00        -9.4640
 P             2             0.00        0.80345103879696E+00        21.8630
 S             2             0.00        0.10161626513330E+01        27.6512


 Orbital Energies of the Core Orbitals:
 ======================================
 (Note that the atoms are grouped by atomtype, see the labels, and may hence NOT be in input order)

 AtomType  Orbital  Atom                   E (au)                        E (eV)
 --------  -------  ----           --------------------        ----------------
 O           1S        1          -0.18786103948159E+02                -511.196



 =======================================
 M U L L I K E N   P O P U L A T I O N S
 =======================================
  
 The survey below gives for each atom:
 a) the total charge (Z minus electrons)
 b) the net spin polarization (nr of electrons spin-A minus spin-B)
 c) for each spin the atomic electron valence density (integrated) per L-value.

 Atom              Charge    Spin density          S         P         D         F
 ----              ------    ------------       ------    ------    ------    ------
 1 O              -0.0000                       2.0000    4.0000    0.0000    0.0000

 Populations of individual BAS functions
 ----------------------------------------
 1 O            0.0003  0.9758  1.0239  0.6556  0.6556  0.6556  0.6777  0.6777  0.6777

 Gross Charges per Atom (Z minus electrons)
 ==========================================
            -0.0000
 Net Total: -0.00000000



 =======================================================================
 Electrostatic potential at the Nuclei due to electrons and other nuclei
 =======================================================================
  
         Atom                  Potential
         ----                  ---------
     1)   O                  22.15117565
 
 
 ========================
 No memory problems found
 ========================
 
 Maximum number of active allocate calls:         316
 
 *******************************************************************************

                             A D F   E X I T
 NORMAL TERMINATION



 =================
 Timing Statistics
 =================
  
 Total Used :                     CPU=        0.57      System=        0.05     Elapsed=        0.85

 Calls  Section                     ( Mean, Percentage )
 ---------------------------------------------------------------------------------------------------
     3  ><      ................      0.00    0.34             0.00    0.94             0.00    1.73
     1  INIT    ................      0.01    2.36             0.02   31.16             0.10   11.94
     1  GEOMET  ................      0.01    1.92             0.01   12.63             0.03    3.67
     1  INPUTA  ................      0.00    0.51             0.00    2.74             0.01    0.89
     1  MAINSY  ................      0.01    1.61             0.00    6.55             0.03    3.92
     1  SYMFIT  ................      0.00    0.15             0.00    0.02             0.00    0.10
     1  CORORT  ................      0.00    0.14             0.00    0.81             0.00    0.57
     1  SYMORB  ................      0.00    0.19             0.00    0.00             0.00    0.12
     1  CLSMAT  ................      0.01    1.18             0.00    0.00             0.01    1.15
     1  ORTHON  ................      0.00    0.40             0.00    0.05             0.01    0.71
     1  GENPT   ................      0.02    2.97             0.00    0.60             0.02    2.79
     1  PTBAS   ................      0.00    0.84             0.00    4.63             0.01    1.37
    11  FOCKY   ................      0.04   70.31             0.00   19.20             0.04   49.31
    11  FOCKTR  ................      0.00    1.76             0.00    1.52             0.00    1.27
    11  SDIIS   ................      0.00    5.14             0.00    8.06             0.01   10.98
     1  COREPS  ................      0.03    4.70             0.00    3.79             0.03    3.51
     1  POPAN   ................      0.00    0.81             0.00    1.71             0.01    1.24
     1  DEBYE   ................      0.00    0.19             0.00    0.22             0.01    0.60
     1  EXIT PROCEDURE .........      0.03    4.49             0.00    5.35             0.03    4.11


 Currently Open Files (EXIT00)
 ====================

 Unit    Access Format  Status   Type       Ident (file)
 -------------------------------------------------------
   3      SEQ    FORM   TRANSP  NORMAL      LOGFILE
                                          ( logfile )


 Buffered I/O statistics
 =======================
 Memory available:                     67108864
 Number of records fitting in memory:     16131
 Input :   0.1% of                        14816  *4k bytes
 Output:  21.4% of                          639  *4k bytes
 Records from serial files evicted:           0
                    others evicted:           0
 Hash table lookups:      29653 with          0 conflicts (  0.00%)

 ***************************************************************************************************
 (LOGFILE)
 <Mar24-2020> <16:21:24>  ADF 2017  RunTime: Mar24-2020 16:21:24  Nodes: 1  Procs: 1
 <Mar24-2020> <16:21:24>  Oxygen (DZ, 1s frozen)
 <Mar24-2020> <16:21:24>  RunType   : CREATE
 <Mar24-2020> <16:21:24>  Net Charge: 0 (Nuclei minus Electrons)
 <Mar24-2020> <16:21:24>  Symmetry  : ATOM
  Coordinates
    Atom         X           Y           Z   (Angstrom)
    1.O         0.000000    0.000000    0.000000
 <Mar24-2020> <16:21:24>  >>>> CORORT
 <Mar24-2020> <16:21:24>  >>>> CLSMAT
 <Mar24-2020> <16:21:24>  >>>> ORTHON
 <Mar24-2020> <16:21:24>  >>>> GENPT
 <Mar24-2020> <16:21:24>  Block Length=  68
 <Mar24-2020> <16:21:24>  >>>> PTBAS
 <Mar24-2020> <16:21:24>  >>>> CYCLE
 <Mar24-2020> <16:21:24>              |Error|         MaxErr       Wt(A-DIIS)
 <Mar24-2020> <16:21:24>      1      0.00000000      0.00000000
 <Mar24-2020> <16:21:24>      2      2.51930933      1.85193089
 <Mar24-2020> <16:21:24>      3      2.39384445      1.62692377    100.0
 <Mar24-2020> <16:21:24>      4      0.45722055      0.27723722    100.0
 <Mar24-2020> <16:21:24>      5      0.50395944      0.30766875    100.0
 <Mar24-2020> <16:21:24>      6      0.52322385      0.32069064    100.0
 <Mar24-2020> <16:21:24>      7      0.01511587      0.00910091      8.2
 <Mar24-2020> <16:21:24>      8      0.00128298      0.00077778      0.0
 <Mar24-2020> <16:21:24>      9      0.00000258      0.00000156      0.0
 <Mar24-2020> <16:21:24>     10      0.00000000      0.00000000      0.0
 <Mar24-2020> <16:21:24>  SCF converged
 <Mar24-2020> <16:21:24>     11      0.00000000      0.00000000      0.0
 <Mar24-2020> <16:21:24>  >>>> POPAN
 <Mar24-2020> <16:21:24>  >>>> DEBYE
 <Mar24-2020> <16:21:24>  NORMAL TERMINATION
 <Mar24-2020> <16:21:24>  END

Create C   file=DZ-C.1s
End Input

 *******************************************************************************
 *                                                                             *
 *  -------------------------------------                                      *
 *   Amsterdam Density Functional  (ADF)         2017                          *
 *  -------------------------------------                                      *
 *                                               r65426 2018-05-03             *
 *                                                                             *
 *                                                                             *
 *                              =================                              *
 *                              |               |                              *
 *                              |     A D F     |                              *
 *                              |               |                              *
 *                              =================                              *
 *                                                                             *
 *                                                                             *
 *   Online information and documentation:  https://www.scm.com/support/       *
 *   E-mail:  support@scm.com   info@scm.com                                   *
 *                                                                             *
 *   Scientific publications using ADF results must be properly referenced     *
 *   See the User Manuals (or the web site) for recommended citations          *
 *   The terms and conditions of the End User License Agreement apply to       *
 *   the use of ADF, https://www.scm.com/license-terms/                        *
 *                                                                             *
 **********************  x86_64_linux_intel / intelmpi  ************************
 
 Licensed to: Dr. Jochen Autschbach / University at Buffalo / Buffalo / NY / USA
 SCM User ID: u7467
  
 ADF 2017  RunTime: Mar24-2020 16:21:25  Nodes: 1  Procs: 1

 Temporary files are created in /scratch/1800736/kid_0.vl3Slh

 Carbon (DZ, 1s frozen)



 ===========================
 A T T A C H E D   F I L E S
 ===========================
  
 CREATE - Data File:    DZ-C.1s
                        Carbon (DZ, 1s frozen)



 ===============================
 M O D E L   P A R A M E T E R S
 ===============================
  
 DENSITY FUNCTIONAL POTENTIAL (scf)
    LDA:                               VWN                                      
    Gradient Corrections:              ---                                      

 SPIN  (restricted / unrestr.)
    Molecule:                          Restricted                               

 OTHER ASPECTS
    Relativistic Corrections:          ---                                      

    Nuclear Charge Density Model:      Point Charge Nuclei                      
    Core Treatment:                    Frozen Orbital(s)                        

    Hyperfine or Zeeman Interaction:   ---                                      



 =====================================
 S Y M M E T R Y ,   E L E C T R O N S
 =====================================
  
 Symmetry: ATOM

 Irreducible Representations, including subspecies
 -------------------------------------------------
 S
 P:x  P:y  P:z
 D:z2  D:x2-y2  D:xy  D:xz  D:yz
 F:z3  F:z  F:xyz  F:z2x  F:z2y  F:x  F:y


 Configuration of Valence Electrons
 ==================================

          Occupation Numbers
          -------------------------------------------------
 S        2
 P        2
 D        0
 F        0
          -------------------------------------------------

 Total:   4

 Net Charge: 0 (Nuclei minus Electrons)

 Preset values for MO occupations will be applied through SCF cycle no. 1000000
 Thereafter, the program will assign electrons to MOs that are spatially
 similar to the occupied MOs in a "reference" cycle ("KeepOrbitals").
 The reference cycle is always the PREVIOUS cycle: it will evolve with
 the SCF procedure.



 ================================
 (Slater-type)  F U N C T I O N S  ***  (Basis and Fit)  ***
 ================================
  

 Atom Type    1  (C)
 ==============

 Valence Basis Sets:   5
 -----------------------
   1 S    5.400000
   2 S    1.240000
   2 S    1.980000
   2 P    0.960000
   2 P    2.200000

 Frozen Core Shells
 ------------------
    S:  1


 BAS: List of all Elementary Cartesian Basis Functions
 =====================================================

 The numbering in the list below (to the right of the function characteristics) is referred
 to in print-outs of MO eigenvectors and Mulliken populations in the BAS representation
 (as contrasted to the SFO representation).

 Notes:
 1. The functions are characterized by a polynomial prefactor (powers of x,y,z and r) and
    an exponential decay factor alpha.
 2. Since the basis sets are specific for an atom TYPE, the individual functions occur on
    all atoms of that type.
 3. The word 'Core' in the left margin signals that it is a Core Function (CF) : not a
    degree of freedom in the valence set, but only used to ensure orthogonalization of
    the other valence basis functions on the frozen Core Orbitals.


 (power of) X  Y  Z  R     Alpha  on Atom
            ==========     =====     ==========

 C                                    1
                                  ---------------------------------------------------------------------------
    Core    0  0  0  0     5.400      1
            0  0  0  1     1.240      2
            0  0  0  1     1.980      3
            1  0  0  0     0.960      4
            0  1  0  0     0.960      5
            0  0  1  0     0.960      6
            1  0  0  0     2.200      7
            0  1  0  0     2.200      8
            0  0  1  0     2.200      9

 Total number of charge fitting functions (nprimf)        82
 Total number of Cartesian basis functions (naos)          9
 Total number of Cartesian core functions  (ncos)          1



 BAS: List of all Elementary Cartesian Basis Functions
 =====================================================

 The numbering in the list below (to the right of the function characteristics) is referred
 to in print-outs of MO eigenvectors and Mulliken populations in the BAS representation
 (as contrasted to the SFO representation).

 Notes:
 1. The functions are characterized by a polynomial prefactor (powers of x,y,z and r) and
    an exponential decay factor alpha.
 2. Since the basis sets are specific for an atom TYPE, the individual functions occur on
    all atoms of that type.
 3. The word 'Core' in the left margin signals that it is a Core Function (CF) : not a
    degree of freedom in the valence set, but only used to ensure orthogonalization of
    the other valence basis functions on the frozen Core Orbitals.


 (power of) X  Y  Z  R     Alpha  on Atom
            ==========     =====     ==========

 C                                    1
                                  ---------------------------------------------------------------------------
    Core    0  0  0  0     5.400      1
            0  0  0  1     1.240      2
            0  0  0  1     1.980      3
            1  0  0  0     0.960      4
            0  1  0  0     0.960      5
            0  0  1  0     0.960      6
            1  0  0  0     2.200      7
            0  1  0  0     2.200      8
            0  0  1  0     2.200      9
1
 ***************************************************************************************************



                                              ***********************
                                              *  T E C H N I C A L  *
                                              ***********************
  



 =============================================================
 P A R A L L E L I Z A T I O N  and  V E C T O R I Z A T I O N
 =============================================================
  
 Nr of parallel processes:                                1
 Maximum vector length in NumInt loops:                 128

 IO buffersize (Mb):                                     64.000000



 =====================
 S C F   U P D A T E S
 =====================
  
 Max. nr. of cycles:                               300
 Convergence criterion:                              0.0000000100
   secondary criterion:                              0.0000000100

 Mix parameter (when DIIS does not apply):           0.2000000000
 Special mix parameter for the first cycle:          1.0000000000
 Mixed ADIIS+DIIS will be used
    Max number of expansion vectors:                10
    Pure ADIIS when Max([F,P]) is above              0.1000000000
    Pure DIIS when Max([F,P]) is below               0.0010000000
 Automatic ElectronSmearing (in case of problematic SCF convergence) disabled



 =================
 P R E C I S I O N  ***  (General: NumInt, NeglectFunctionTails, ...)  ***
 =================
  

 NumInt:           Target precision:                12.0000000000
 -------           Initial precision:               10.0000000000
                   Min. precision (optimization):   10.0000000000

 Neglect Functions:          Basis functions:        0.1000000000E-13
 ------------------          Fit functions:          0.1000000000E-13



 ===========================
 L I N E A R   S C A L I N G
 ===========================
  

 Cut-off radii density fit:                        0.1000000000E-97
 Overlap cut-off criterion AO matrix elements:     0.1000000000E-97
 Cut-offs for Coulomb potential and fitted density:0.1000000000E-97
 Cut-off criterion for Coulomb multipole terms:    0.1000000000E-97
 Progressive Convergence parameter:                 0.000000000    
1
 ***************************************************************************************************



                                            ***************************
                                            *  C O M P U T A T I O N  *
                                            ***************************
  

 Number of elements of the density matrix on this node (used, total):        45        45



 ===========================================
 Numerical Integration : Fuzzy Cells (Becke)
 ===========================================
  
 Becke grid quality: VERYGOOD       
  
 Lebedev angular grid order:             min:  13 max:  41
 Nr. of radial points:                   min:  68 max:  68

 Total nr. of points:         68
 Nr. of blocks:                1
 Block length:                68
 Nr. of dummy points:          0


 Test of Precision of the Numerical Integration Grid
 ===================================================

 Integral of the Total Core Density:                   1.99999999985293
 Relative Error:                                      -7.354E-11



 ========================
 Density Fitting (zlmFit)
 ========================
  
 ZlmFit Fit Quality: VERYGOOD       
  
 Max L-expansion:                        min:   0 max:   0
 Nr. of radial interpolation points:     min: 140 max: 140



 =====
 S C F  ***  ScaSCF  ***
 =====
  

 CYCLE    1
 SCF Error: norm([F,P])=      0.000000000000, max([F,P])=      0.000000000000
 orbitals (Q,E):
 ---------------
 S :1...2            ( 2.00    -2.5148)  ( 0.00    -0.9877)
 P :1...2            ( 2.00    -2.2830)  ( 0.00    -0.9530)

 CYCLE    2
 SCF Error: norm([F,P])=      0.961719955154, max([F,P])=      0.852513931246
 orbitals (Q,E):
 ---------------
 S :1...2            ( 2.00    -0.1779)  ( 0.00     0.8274)
 P :1...2            ( 2.00     0.0803)  ( 0.00     0.8515)

 CYCLE    3
  SDIIS (wt  0.000):  0.4217  0.5783
 A-DIIS (wt  1.000):  0.2128  0.7872
  DIIS coefficients:  0.2128  0.7872
 SCF Error: norm([F,P])=      0.701225068732, max([F,P])=      0.610675719838
 orbitals (Q,E):
 ---------------
 S :1...2            ( 2.00    -0.6343)  ( 0.00     0.3810)
 P :1...2            ( 2.00    -0.3276)  ( 0.00     0.3365)

 CYCLE    4
  SDIIS (wt  0.000):  0.2598  0.7402
 A-DIIS (wt  1.000):  0.0000  1.0000
  DIIS coefficients:  0.0000  1.0000
 SCF Error: norm([F,P])=      0.246462962981, max([F,P])=      0.204838845090
 orbitals (Q,E):
 ---------------
 S :1...2            ( 2.00    -0.4200)  ( 0.00     0.5464)
 P :1...2            ( 2.00    -0.1254)  ( 0.00     0.5194)

 CYCLE    5
  SDIIS (wt  0.000): -0.3907  1.3907
 A-DIIS (wt  1.000):  0.0000  1.0000
  DIIS coefficients:  0.0000  1.0000
 SCF Error: norm([F,P])=      0.197669833234, max([F,P])=      0.165829705824
 orbitals (Q,E):
 ---------------
 S :1...2            ( 2.00    -0.5804)  ( 0.00     0.4128)
 P :1...2            ( 2.00    -0.2757)  ( 0.00     0.3698)

 CYCLE    6
  SDIIS (wt  0.000):  0.4342  0.5658
 A-DIIS (wt  1.000):  0.3582  0.6418
  DIIS coefficients:  0.3582  0.6418
 SCF Error: norm([F,P])=      0.151683073753, max([F,P])=      0.126213524315
 orbitals (Q,E):
 ---------------
 S :1...2            ( 2.00    -0.4980)  ( 0.00     0.4781)
 P :1...2            ( 2.00    -0.1967)  ( 0.00     0.4414)

 CYCLE    7
  SDIIS (wt  0.827):  0.1253  0.8747
 A-DIIS (wt  0.173):  0.0000  1.0000
  DIIS coefficients:  0.1036  0.8964
 SCF Error: norm([F,P])=      0.021729064573, max([F,P])=      0.018141111247
 orbitals (Q,E):
 ---------------
 S :1...2            ( 2.00    -0.5090)  ( 0.00     0.4687)
 P :1...2            ( 2.00    -0.2071)  ( 0.00     0.4309)

 CYCLE    8
  SDIIS (wt  0.986):  0.1164  0.8836
 A-DIIS (wt  0.014):  0.0000  1.0000
  DIIS coefficients:  0.1148  0.8852
 SCF Error: norm([F,P])=      0.002862763056, max([F,P])=      0.002382847660
 orbitals (Q,E):
 ---------------
 S :1...2            ( 2.00    -0.5076)  ( 0.00     0.4697)
 P :1...2            ( 2.00    -0.2058)  ( 0.00     0.4321)

 CYCLE    9
  SDIIS (wt  1.000):  0.0135  0.9865
  DIIS coefficients:  0.0135  0.9865
 SCF Error: norm([F,P])=      0.000039038501, max([F,P])=      0.000032574393
 orbitals (Q,E):
 ---------------
 S :1...2            ( 2.00    -0.5077)  ( 0.00     0.4697)
 P :1...2            ( 2.00    -0.2058)  ( 0.00     0.4321)

 CYCLE   10
  SDIIS (wt  1.000): -0.0023  1.0023
  DIIS coefficients: -0.0023  1.0023
 SCF Error: norm([F,P])=      0.000000089722, max([F,P])=      0.000000074700
 orbitals (Q,E):
 ---------------
 S :1...2            ( 2.00    -0.5077)  ( 0.00     0.4697)
 P :1...2            ( 2.00    -0.2058)  ( 0.00     0.4321)

 CYCLE   11
  SDIIS (wt  1.000):  0.0021  0.9979
  DIIS coefficients:  0.0021  0.9979
 SCF Error: norm([F,P])=      0.000000000188, max([F,P])=      0.000000000156
 orbitals (Q,E):
 ---------------
 S :1...2            ( 2.00    -0.5077)  ( 0.00     0.4697)
 P :1...2            ( 2.00    -0.2058)  ( 0.00     0.4321)

 SCF CONVERGED

 CYCLE   12
1
 ***************************************************************************************************



                                                *******************
                                                *  R E S U L T S  *
                                                *******************
  
 *** Setting up for NEW gradients in Focky
 *** Using FIT density in Focky

 Orbital Energies, per Irrep and Spin:
 ======================================
                        Occup              E (au)              E (eV)       Diff (eV) with prev. cycle
                        -----      --------------------        ------       --------------------------
 S
               1        2.000     -0.50766299902100E+00       -13.814              -3.21E-12
               2        0.000      0.46973187265993E+00        12.782
 P
               1        2.000     -0.20581338371554E+00        -5.600              -3.06E-12
               2        0.000      0.43205084062243E+00        11.757


 Partially Occupied:
               1 P                -0.20581338371554E+00
  
 HOMO :        1 S                -0.50766299902100E+00
 LUMO :        2 P                 0.43205084062243E+00
  


 Orbital Energies, all Irreps
 ========================================

 Irrep        no.  (spin)   Occup              E (au)                E (eV)
 ---------------------------------------------------------------------------
 S             1             2.00       -0.50766299902100E+00       -13.8142
 P             1             2.00       -0.20581338371554E+00        -5.6005
 P             2             0.00        0.43205084062243E+00        11.7567
 S             2             0.00        0.46973187265993E+00        12.7821


 Orbital Energies of the Core Orbitals:
 ======================================
 (Note that the atoms are grouped by atomtype, see the labels, and may hence NOT be in input order)

 AtomType  Orbital  Atom                   E (au)                        E (eV)
 --------  -------  ----           --------------------        ----------------
 C           1S        1          -0.99531877336699E+01                -270.840



 =======================================
 M U L L I K E N   P O P U L A T I O N S
 =======================================
  
 The survey below gives for each atom:
 a) the total charge (Z minus electrons)
 b) the net spin polarization (nr of electrons spin-A minus spin-B)
 c) for each spin the atomic electron valence density (integrated) per L-value.

 Atom              Charge    Spin density          S         P         D         F
 ----              ------    ------------       ------    ------    ------    ------
 1 C              -0.0000                       2.0000    2.0000    0.0000    0.0000

 Populations of individual BAS functions
 ----------------------------------------
 1 C            0.0003  0.9069  1.0928  0.3608  0.3608  0.3608  0.3058  0.3058  0.3058

 Gross Charges per Atom (Z minus electrons)
 ==========================================
            -0.0000
 Net Total: -0.00000000



 =======================================================================
 Electrostatic potential at the Nuclei due to electrons and other nuclei
 =======================================================================
  
         Atom                  Potential
         ----                  ---------
     1)   C                  14.60983159
 
 
 ========================
 No memory problems found
 ========================
 
 Maximum number of active allocate calls:         316
 
 *******************************************************************************

                             A D F   E X I T
 NORMAL TERMINATION



 =================
 Timing Statistics
 =================
  
 Total Used :                     CPU=        0.59      System=        0.06     Elapsed=        0.88

 Calls  Section                     ( Mean, Percentage )
 ---------------------------------------------------------------------------------------------------
     3  ><      ................      0.00    0.35             0.00    0.01             0.00    1.21
     1  INIT    ................      0.01    2.25             0.02   29.93             0.11   12.25
     1  GEOMET  ................      0.01    2.31             0.00    6.56             0.03    3.80
     1  INPUTA  ................      0.00    0.47             0.00    2.71             0.01    0.82
     1  MAINSY  ................      0.01    1.70             0.00    4.15             0.04    4.29
     1  SYMFIT  ................      0.00    0.15             0.00    0.02             0.00    0.10
     1  CORORT  ................      0.00    0.09             0.00    1.21             0.00    0.55
     1  SYMORB  ................      0.00    0.18             0.00    0.05             0.00    0.13
     1  CLSMAT  ................      0.01    0.96             0.00    1.38             0.01    1.40
     1  ORTHON  ................      0.00    0.24             0.00    1.65             0.01    0.64
     1  GENPT   ................      0.01    2.31             0.00    5.87             0.02    2.79
     1  PTBAS   ................      0.01    1.14             0.00    0.61             0.01    1.23
    12  FOCKY   ................      0.04   71.15             0.00   21.66             0.04   50.51
    12  FOCKTR  ................      0.00    1.66             0.00    3.56             0.00    1.34
    12  SDIIS   ................      0.00    4.86             0.00   13.35             0.01    9.82
     1  COREPS  ................      0.03    4.41             0.00    5.26             0.03    3.45
     1  POPAN   ................      0.01    0.90             0.00    0.15             0.01    1.14
     1  DEBYE   ................      0.00    0.18             0.00    0.09             0.00    0.45
     1  EXIT PROCEDURE .........      0.03    4.69             0.00    1.80             0.04    4.07


 Currently Open Files (EXIT00)
 ====================

 Unit    Access Format  Status   Type       Ident (file)
 -------------------------------------------------------
   3      SEQ    FORM   TRANSP  NORMAL      LOGFILE
                                          ( logfile )


 Buffered I/O statistics
 =======================
 Memory available:                     67108864
 Number of records fitting in memory:     16131
 Input :   0.1% of                        15242  *4k bytes
 Output:  21.1% of                          648  *4k bytes
 Records from serial files evicted:           0
                    others evicted:           0
 Hash table lookups:      30492 with          0 conflicts (  0.00%)

 ***************************************************************************************************
 (LOGFILE)
 <Mar24-2020> <16:21:24>  ADF 2017  RunTime: Mar24-2020 16:21:24  Nodes: 1  Procs: 1
 <Mar24-2020> <16:21:24>  Oxygen (DZ, 1s frozen)
 <Mar24-2020> <16:21:24>  RunType   : CREATE
 <Mar24-2020> <16:21:24>  Net Charge: 0 (Nuclei minus Electrons)
 <Mar24-2020> <16:21:24>  Symmetry  : ATOM
  Coordinates
    Atom         X           Y           Z   (Angstrom)
    1.O         0.000000    0.000000    0.000000
 <Mar24-2020> <16:21:24>  >>>> CORORT
 <Mar24-2020> <16:21:24>  >>>> CLSMAT
 <Mar24-2020> <16:21:24>  >>>> ORTHON
 <Mar24-2020> <16:21:24>  >>>> GENPT
 <Mar24-2020> <16:21:24>  Block Length=  68
 <Mar24-2020> <16:21:24>  >>>> PTBAS
 <Mar24-2020> <16:21:24>  >>>> CYCLE
 <Mar24-2020> <16:21:24>              |Error|         MaxErr       Wt(A-DIIS)
 <Mar24-2020> <16:21:24>      1      0.00000000      0.00000000
 <Mar24-2020> <16:21:24>      2      2.51930933      1.85193089
 <Mar24-2020> <16:21:24>      3      2.39384445      1.62692377    100.0
 <Mar24-2020> <16:21:24>      4      0.45722055      0.27723722    100.0
 <Mar24-2020> <16:21:24>      5      0.50395944      0.30766875    100.0
 <Mar24-2020> <16:21:24>      6      0.52322385      0.32069064    100.0
 <Mar24-2020> <16:21:24>      7      0.01511587      0.00910091      8.2
 <Mar24-2020> <16:21:24>      8      0.00128298      0.00077778      0.0
 <Mar24-2020> <16:21:24>      9      0.00000258      0.00000156      0.0
 <Mar24-2020> <16:21:24>     10      0.00000000      0.00000000      0.0
 <Mar24-2020> <16:21:24>  SCF converged
[...]
 ===========================================================================================

    -0.00    0.00    0.00    0.00    0.00    0.00    0.00    0.00    0.00    2.00    0.32   -0.00
    -0.00    1.71    0.00   -0.00    2.01    2.01    1.60   -0.01    0.02    0.00   -0.00   -0.00
     2.01    0.33   -0.03    0.00


                                       === T2:3 ===


 SFO contributions (%) per orbital
 (multiplication by the orbital occupation yields the SFO Gross Populations)

 Orb.:        1      2      3      4      5      6      7      8      9     10
 occup:     2.00   2.00   2.00   2.00   2.00   2.00   0.00   0.00   0.00   0.00
 CF+SFO     ----   ----   ----   ----   ----   ----   ----   ----   ----   ----
 ------
     10:  100.16  -0.00   0.01  -0.00   0.03  -0.00   0.00   0.03   0.04  -0.03
     11:    0.00  -0.51   0.34  -0.07   5.27  11.16   2.20   0.44  71.02  14.14
     12:    0.00  -0.00  -0.07  -0.07   0.06  -0.03   0.00   1.26  -0.26   0.52
     14:    0.00   0.01   3.05   0.63  23.78  58.18  12.50   1.09   0.10   0.19
     15:    0.00   0.02  -0.13   0.04   0.00   0.25   2.43  -0.71   1.92   1.10
     17:   -0.00 100.62   0.00   0.00   0.03   0.00  -0.00  -0.07  -0.02  -0.09
     18:   -0.01   0.00  92.35   0.38   7.94   0.03   0.18  -0.27   0.16   0.13
     19:   -0.06  -0.02   4.43   0.85  61.85  13.18   9.02  -3.13   6.49   4.05
     20:    0.01  -0.06  -0.23   0.03  -0.34   0.24   0.50 105.42  -1.71   2.22
     21:   -0.05  -0.07  -0.07   0.03   0.95   0.03  -1.18  -5.53  -9.80  -5.61
     22:   -0.00  -0.01   0.01   0.00   0.20   0.02  -0.00  -0.19   1.74   1.67
     23:    0.00  -0.00  -0.01   0.00  -0.01   0.01   0.02   0.01   0.15   1.67
     25:   -0.00   0.00   0.25  97.54   0.41   2.08   0.08   0.01  -0.13  -0.03
     26:   -0.01   0.01   0.08   0.64  -0.04  15.99  74.36   0.28   5.50   2.93
     27:   -0.03   0.01  -0.02  -0.02  -0.10  -1.14  -0.05   1.37  23.32  74.08
     28:   -0.00   0.00   0.00   0.02  -0.01   0.00  -0.00   0.01   1.32   2.83


 Summation over all MOs, multiplied by occupation: Total SFO Gross Populations in this Irrep
 ===========================================================================================

    -0.00    0.00    0.00    0.00    0.00    0.00    0.00    0.00    0.00    2.00    0.32   -0.00
    -0.00    1.71    0.00   -0.00    2.01    2.01    1.60   -0.01    0.02    0.00   -0.00   -0.00
     2.01    0.33   -0.03    0.00



 List of all MOs, ordered by energy, with the most significant SFO gross populations
 ===================================================================================

 Each percentage contribution in the table below corresponds to the indicated SFO.
 In general, a SFO may be a linear combination of several Fragment Orbitals on the same,
 or on symmetry-related Fragments. Only the first 'member' of such a combination is
 specified here. A full definition of all SFOs is given in an earlier part of the output.
 The numbering of the SFOs in this table does NOT include the Core Orbitals, and starts
 from one for each symmetry representation, as in the SFO definition list earlier.

       E(eV)  Occ       MO           %     SFO (first member)   E(eV)  Occ   Fragment
 -------------------------------------------------------------------------------------

     -15.377  2.00     3 A1        65.74%     2 SIGMA         -14.358  2.00     2 CO
                                   31.94%     3 SIGMA          -9.541  2.00     2 CO
                                    1.93%     3 S               2.095  0.00     1 Ni
                                    1.29%     4 SIGMA           4.240  0.00     2 CO
     -14.642  2.00     3 T2:1      92.35%     2 SIGMA         -14.358  2.00     2 CO
                                    4.43%     3 SIGMA          -9.541  2.00     2 CO
                                    3.05%     1 D:yz           -4.651  1.80     1 Ni
     -14.642  2.00     3 T2:2      92.35%     2 SIGMA         -14.358  2.00     2 CO
                                    4.43%     3 SIGMA          -9.541  2.00     2 CO
                                    3.05%     1 D:xz           -4.651  1.80     1 Ni
     -14.642  2.00     3 T2:3      92.35%     2 SIGMA         -14.358  2.00     2 CO
                                    4.43%     3 SIGMA          -9.541  2.00     2 CO
                                    3.05%     1 D:xy           -4.651  1.80     1 Ni
     -13.104  2.00     4 A1        57.23%     3 SIGMA          -9.541  2.00     2 CO
                                   35.21%     2 SIGMA         -14.358  2.00     2 CO
                                    6.79%     2 S              -4.399  1.00     1 Ni
                                    1.32%     4 SIGMA           4.240  0.00     2 CO
     -13.041  2.00     1 E:1       96.16%     1 PI:x          -12.726  2.00     2 CO
                                    3.25%     1 D:z2           -4.651  1.80     1 Ni
     -13.041  2.00     1 E:2       96.16%     1 PI:x          -12.726  2.00     2 CO
                                    3.25%     1 D:x2-y2        -4.651  1.80     1 Ni
     -12.996  2.00     4 T2:1      97.54%     1 PI:x          -12.726  2.00     2 CO
                                    0.85%     3 SIGMA          -9.541  2.00     2 CO
     -12.996  2.00     4 T2:2      97.54%     1 PI:x          -12.726  2.00     2 CO
                                    0.85%     3 SIGMA          -9.541  2.00     2 CO
     -12.996  2.00     4 T2:3      97.54%     1 PI:x          -12.726  2.00     2 CO
                                    0.85%     3 SIGMA          -9.541  2.00     2 CO
     -12.806  2.00     1 T1:1     100.30%     1 PI:x          -12.726  2.00     2 CO
                                   -0.14%     3 PI:x           11.124  0.00     2 CO
     -12.806  2.00     1 T1:2     100.30%     1 PI:x          -12.726  2.00     2 CO
                                   -0.14%     3 PI:x           11.124  0.00     2 CO
     -12.806  2.00     1 T1:3     100.30%     1 PI:x          -12.726  2.00     2 CO
                                   -0.14%     3 PI:x           11.124  0.00     2 CO
     -12.186  2.00     5 T2:1      61.85%     3 SIGMA          -9.541  2.00     2 CO
                                   23.78%     1 D:yz           -4.651  1.80     1 Ni
                                    7.94%     2 SIGMA         -14.358  2.00     2 CO
                                    5.27%     2 P:x             0.515  0.00     1 Ni
     -12.186  2.00     5 T2:2      61.85%     3 SIGMA          -9.541  2.00     2 CO
                                   23.78%     1 D:xz           -4.651  1.80     1 Ni
                                    7.94%     2 SIGMA         -14.358  2.00     2 CO
                                    5.27%     2 P:y             0.515  0.00     1 Ni
     -12.186  2.00     5 T2:3      61.85%     3 SIGMA          -9.541  2.00     2 CO
                                   23.78%     1 D:xy           -4.651  1.80     1 Ni
                                    7.94%     2 SIGMA         -14.358  2.00     2 CO
                                    5.27%     2 P:z             0.515  0.00     1 Ni
      -8.616  2.00     2 E:1       87.10%     1 D:z2           -4.651  1.80     1 Ni
                                    9.48%     2 PI:x           -2.950  0.00     2 CO
                                    3.80%     1 PI:x          -12.726  2.00     2 CO
      -8.616  2.00     2 E:2       87.10%     1 D:x2-y2        -4.651  1.80     1 Ni
                                    9.48%     2 PI:x           -2.950  0.00     2 CO
                                    3.80%     1 PI:x          -12.726  2.00     2 CO
      -7.533  2.00     6 T2:1      58.18%     1 D:yz           -4.651  1.80     1 Ni
                                   15.99%     2 PI:x           -2.950  0.00     2 CO
                                   13.18%     3 SIGMA          -9.541  2.00     2 CO
                                   11.16%     2 P:x             0.515  0.00     1 Ni
                                    2.08%     1 PI:x          -12.726  2.00     2 CO
                                   -1.14%     3 PI:x           11.124  0.00     2 CO
      -7.533  2.00     6 T2:2      58.18%     1 D:xz           -4.651  1.80     1 Ni
                                   15.99%     2 PI:x           -2.950  0.00     2 CO
                                   13.18%     3 SIGMA          -9.541  2.00     2 CO
                                   11.16%     2 P:y             0.515  0.00     1 Ni
                                    2.08%     1 PI:x          -12.726  2.00     2 CO
                                   -1.14%     3 PI:x           11.124  0.00     2 CO
      -7.533  2.00     6 T2:3      58.18%     1 D:xy           -4.651  1.80     1 Ni
                                   15.99%     2 PI:x           -2.950  0.00     2 CO
                                   13.18%     3 SIGMA          -9.541  2.00     2 CO
                                   11.16%     2 P:z             0.515  0.00     1 Ni
                                    2.08%     1 PI:x          -12.726  2.00     2 CO
                                   -1.14%     3 PI:x           11.124  0.00     2 CO
      -3.369  0.00     7 T2:1      74.36%     2 PI:x           -2.950  0.00     2 CO
                                   12.50%     1 D:yz           -4.651  1.80     1 Ni
                                    9.02%     3 SIGMA          -9.541  2.00     2 CO
                                    2.43%     2 D:yz           17.452  0.00     1 Ni
                                    2.20%     2 P:x             0.515  0.00     1 Ni
                                   -1.18%     5 SIGMA          13.261  0.00     2 CO
      -3.369  0.00     7 T2:2      74.36%     2 PI:x           -2.950  0.00     2 CO
                                   12.50%     1 D:xz           -4.651  1.80     1 Ni
                                    9.02%     3 SIGMA          -9.541  2.00     2 CO
                                    2.43%     2 D:xz           17.452  0.00     1 Ni
                                    2.20%     2 P:y             0.515  0.00     1 Ni
                                   -1.18%     5 SIGMA          13.261  0.00     2 CO
      -3.369  0.00     7 T2:3      74.36%     2 PI:x           -2.950  0.00     2 CO
                                   12.50%     1 D:xy           -4.651  1.80     1 Ni
                                    9.02%     3 SIGMA          -9.541  2.00     2 CO
                                    2.43%     2 D:xy           17.452  0.00     1 Ni
                                    2.20%     2 P:z             0.515  0.00     1 Ni
                                   -1.18%     5 SIGMA          13.261  0.00     2 CO
      -3.173  0.00     3 E:1       86.75%     2 PI:x           -2.950  0.00     2 CO
                                    9.69%     1 D:z2           -4.651  1.80     1 Ni
                                    3.57%     2 D:z2           17.452  0.00     1 Ni
      -3.173  0.00     3 E:2       86.75%     2 PI:x           -2.950  0.00     2 CO
                                    9.69%     1 D:x2-y2        -4.651  1.80     1 Ni
                                    3.57%     2 D:x2-y2        17.452  0.00     1 Ni
      -2.776  0.00     2 T1:1     100.04%     2 PI:x           -2.950  0.00     2 CO
                                   -0.11%     1 PI:x          -12.726  2.00     2 CO
      -2.776  0.00     2 T1:2     100.04%     2 PI:x           -2.950  0.00     2 CO
                                   -0.11%     1 PI:x          -12.726  2.00     2 CO
      -2.776  0.00     2 T1:3     100.04%     2 PI:x           -2.950  0.00     2 CO
                                   -0.11%     1 PI:x          -12.726  2.00     2 CO
      -0.445  0.00     5 A1        77.57%     3 S               2.095  0.00     1 Ni
                                   24.76%     2 S              -4.399  1.00     1 Ni
                                    7.23%     4 SIGMA           4.240  0.00     2 CO
                                   -4.86%     3 SIGMA          -9.541  2.00     2 CO
                                   -4.70%     5 SIGMA          13.261  0.00     2 CO



 =======================================================================
 Electrostatic potential at the Nuclei due to electrons and other nuclei
 =======================================================================
  
         Atom                  Potential
         ----                  ---------
     1)   Ni                128.50768412
     2)   C                  14.59663109
     3)   C                  14.59663109
     4)   C                  14.59663109
     5)   C                  14.59663109
     6)   O                  22.15532314
     7)   O                  22.15532314
     8)   O                  22.15532314
     9)   O                  22.15532314
 
 
 ========================
 No memory problems found
 ========================
 
 Maximum number of active allocate calls:         908
 
 *******************************************************************************

                             A D F   E X I T
 NORMAL TERMINATION



 =================
 Timing Statistics
 =================
  
 Total Used :                     CPU=       26.82      System=        0.40     Elapsed=       27.82

 Calls  Section                     ( Mean, Percentage )
 ---------------------------------------------------------------------------------------------------
     3  ><      ................      0.00    0.00             0.00    0.40             0.00    0.04
     1  INIT    ................      0.01    0.04             0.02    5.27             0.09    0.32
     1  GEOMET  ................      0.03    0.10             0.01    2.09             0.07    0.26
     1  FRAGM   ................      0.02    0.07             0.01    2.34             0.10    0.35
     1  INPUTA  ................      0.00    0.00             0.00    0.02             0.00    0.00
     1  ATDEN   ................      0.01    0.02             0.00    0.35             0.01    0.05
     1  MAINSY  ................      0.02    0.09             0.00    0.76             0.09    0.33
     1  SYMFIT  ................      0.00    0.00             0.00    0.02             0.00    0.00
     1  CORORT  ................      0.01    0.02             0.00    0.27             0.01    0.03
     1  SYMORB  ................      0.00    0.02             0.00    0.14             0.02    0.07
     1  CLSMAT  ................      0.01    0.05             0.00    0.06             0.02    0.06
     1  ORTHON  ................      0.01    0.03             0.00    0.05             0.01    0.05
     1  GENPT   ................      0.34    1.28             0.00    0.88             0.36    1.28
     1  PTBAS   ................      0.04    0.16             0.00    0.76             0.05    0.19
    18  FOCKY   ................      0.30   20.16             0.00   14.46             0.31   19.77
    18  FOCKTR  ................      0.00    0.16             0.00    0.42             0.00    0.16
    18  SDIIS   ................      0.00    0.21             0.00    2.39             0.01    0.54
     1  COREPS  ................      0.28    1.04             0.00    1.00             0.34    1.23
     1  TOTEN   ................      0.64    2.39             0.01    1.50             0.65    2.35
     1  POPAN   ................      0.00    0.01             0.00    0.74             0.04    0.13
     1  DEBYE   ................      0.02    0.07             0.00    0.00             0.02    0.08
     1  INPUTE  ................      0.00    0.00             0.00    0.25             0.00    0.01
     1  SYMORE  ................      0.00    0.01             0.00    0.00             0.00    0.01
     1  METS    ................      0.00    0.01             0.00    0.00             0.01    0.02
     1  CETS    ................      0.00    0.01             0.00    0.25             0.00    0.02
     1  POPUL   ................     19.82   73.92             0.26   64.57            20.17   72.50
     1  EXIT PROCEDURE .........      0.03    0.12             0.00    1.00             0.04    0.16


 Currently Open Files (EXIT00)
 ====================

 Unit    Access Format  Status   Type       Ident (file)
 -------------------------------------------------------
   3      SEQ    FORM   TRANSP  NORMAL      LOGFILE
                                          ( logfile )


 Buffered I/O statistics
 =======================
 Memory available:                     67108864
 Number of records fitting in memory:     16131
 Input :   0.1% of                       108745  *4k bytes
 Output:   5.1% of                         9295  *4k bytes
 Records from serial files evicted:           0
                    others evicted:           0
 Hash table lookups:     247964 with          0 conflicts (  0.00%)

 ***************************************************************************************************
 (LOGFILE)
 <Mar24-2020> <16:21:28>  ADF 2017  RunTime: Mar24-2020 16:21:28  Nodes: 1  Procs: 1
 <Mar24-2020> <16:21:28>  Ni(CO)4,  from fragments Ni and CO
 <Mar24-2020> <16:21:28>  RunType   : SINGLE POINT
 <Mar24-2020> <16:21:28>  Net Charge: 0 (Nuclei minus Electrons)
 <Mar24-2020> <16:21:28>  Symmetry  : T(D)
 <Mar24-2020> <16:21:28>  >>>> FRAGM
  Coordinates
    Atom         X           Y           Z   (Angstrom)
    1.Ni        0.000000    0.000000    0.000000
    2.C         1.061170    1.061170    1.061170
    3.C        -1.061170   -1.061170    1.061170
    4.C         1.061170   -1.061170   -1.061170
    5.C        -1.061170    1.061170   -1.061170
    6.O         1.719927    1.719927    1.719927
    7.O        -1.719927   -1.719927    1.719927
    8.O         1.719927   -1.719927   -1.719927
    9.O        -1.719927    1.719927   -1.719927
 <Mar24-2020> <16:21:28>  >>>> CORORT
 <Mar24-2020> <16:21:28>  >>>> CLSMAT
 <Mar24-2020> <16:21:28>  >>>> ORTHON
 <Mar24-2020> <16:21:28>  >>>> GENPT
 <Mar24-2020> <16:21:28>  Block Length= 128
 <Mar24-2020> <16:21:28>  >>>> PTBAS
 <Mar24-2020> <16:21:28>  >>>> CYCLE
 <Mar24-2020> <16:21:29>              |Error|         MaxErr       Wt(A-DIIS)
 <Mar24-2020> <16:21:29>      1      1.66558925      1.22886810
 <Mar24-2020> <16:21:29>      2      8.27579652      2.68691869    100.0
 <Mar24-2020> <16:21:30>      3      6.21332253      1.62015433    100.0
 <Mar24-2020> <16:21:30>      4      1.61342323      0.30472460    100.0
 <Mar24-2020> <16:21:30>      5      2.35487004      0.57145115    100.0
 <Mar24-2020> <16:21:30>      6      1.57245723      0.44452716    100.0
 <Mar24-2020> <16:21:31>      7      2.78526160      0.72822643    100.0
 <Mar24-2020> <16:21:31>      8      0.70259095      0.18035306    100.0
 <Mar24-2020> <16:21:31>      9      1.02770744      0.22948442    100.0
 <Mar24-2020> <16:21:32>     10      0.25155951      0.05614657     55.7
 <Mar24-2020> <16:21:32>     11      0.14641718      0.03003742     29.3
 <Mar24-2020> <16:21:32>     12      0.16660944      0.04257461    100.0
 <Mar24-2020> <16:21:33>     13      0.25488275      0.06668341    100.0
 <Mar24-2020> <16:21:33>     14      0.04069841      0.00904976      8.1
 <Mar24-2020> <16:21:33>     15      0.00748882      0.00149666      0.5
 <Mar24-2020> <16:21:34>     16      0.00024504      0.00006313      0.0
 <Mar24-2020> <16:21:34>     17      0.00000183      0.00000035      0.0
 <Mar24-2020> <16:21:34>  SCF converged
 <Mar24-2020> <16:21:34>     18      0.00000009      0.00000002      0.0
 <Mar24-2020> <16:21:35>  >>>> TOTEN
 <Mar24-2020> <16:21:35>  >>>> POPAN
 <Mar24-2020> <16:21:35>  >>>> DEBYE
 <Mar24-2020> <16:21:35>  >>>> AMETS
 <Mar24-2020> <16:21:55>   Bond Energy          -0.38927964 a.u.
 <Mar24-2020> <16:21:55>   Bond Energy         -10.59283794 eV
 <Mar24-2020> <16:21:55>   Bond Energy        -244.28       kcal/mol
 <Mar24-2020> <16:21:55>  >>>> POPUL
 <Mar24-2020> <16:21:55>  NORMAL TERMINATION
 <Mar24-2020> <16:21:55>  END
