
Create H   file=TZ2P-H
XC
 GGA Becke Perdew
End
End Input

 *******************************************************************************
 *                                                                             *
 *  -------------------------------------                                      *
 *   Amsterdam Density Functional  (ADF)         2017                          *
 *  -------------------------------------                                      *
 *                                               r65426 2018-05-03             *
 *                                                                             *
 *                                                                             *
 *                              =================                              *
 *                              |               |                              *
 *                              |     A D F     |                              *
 *                              |               |                              *
 *                              =================                              *
 *                                                                             *
 *                                                                             *
 *   Online information and documentation:  https://www.scm.com/support/       *
 *   E-mail:  support@scm.com   info@scm.com                                   *
 *                                                                             *
 *   Scientific publications using ADF results must be properly referenced     *
 *   See the User Manuals (or the web site) for recommended citations          *
 *   The terms and conditions of the End User License Agreement apply to       *
 *   the use of ADF, https://www.scm.com/license-terms/                        *
 *                                                                             *
 **********************  x86_64_linux_intel / intelmpi  ************************
 
 Licensed to: Dr. Jochen Autschbach / University at Buffalo / Buffalo / NY / USA
 SCM User ID: u7467
  
 ADF 2017  RunTime: Jun06-2019 13:53:47  Nodes: 1  Procs: 1

 Temporary files are created in /projects/academic/jochena/herbertl/projects/adf_stuff/CPL_C2H2/kid_0.ymwyUn

 Hydrogen (TZ2P)



 ===========================
 A T T A C H E D   F I L E S
 ===========================
  
 CREATE - Data File:    TZ2P-H
                        Hydrogen (TZ2P)



 ===============================
 M O D E L   P A R A M E T E R S
 ===============================
  
 DENSITY FUNCTIONAL POTENTIAL (scf)
    LDA:                               VWN                                      
    Gradient Corrections:              Becke88 Perdew86                        == Not Default ==

 SPIN  (restricted / unrestr.)
    Molecule:                          Restricted                               

 OTHER ASPECTS
    Relativistic Corrections:          ---                                      

    Nuclear Charge Density Model:      Point Charge Nuclei                      
    Core Treatment:                    Frozen Orbital(s)                        

    Hyperfine or Zeeman Interaction:   ---                                      



 =====================================
 S Y M M E T R Y ,   E L E C T R O N S
 =====================================
  
 Symmetry: ATOM

 Irreducible Representations, including subspecies
 -------------------------------------------------
 S
 P:x  P:y  P:z
 D:z2  D:x2-y2  D:xy  D:xz  D:yz
 F:z3  F:z  F:xyz  F:z2x  F:z2y  F:x  F:y


 Configuration of Valence Electrons
 ==================================

          Occupation Numbers
          -------------------------------------------------
 S        1
 P        0
 D        0
 F        0
          -------------------------------------------------

 Total:   1

 Net Charge: 0 (Nuclei minus Electrons)

 Preset values for MO occupations will be applied through SCF cycle no. 1000000
 Thereafter, the program will assign electrons to MOs that are spatially
 similar to the occupied MOs in a "reference" cycle ("KeepOrbitals").
 The reference cycle is always the PREVIOUS cycle: it will evolve with
 the SCF procedure.



 ================================
 (Slater-type)  F U N C T I O N S  ***  (Basis and Fit)  ***
 ================================
  

 Atom Type    1  (H)
 ==============

 Valence Basis Sets:   5
 -----------------------
   1 S    0.690000
   1 S    0.920000
   1 S    1.580000
   2 P    1.250000
   3 D    2.500000


 BAS: List of all Elementary Cartesian Basis Functions
 =====================================================

 The numbering in the list below (to the right of the function characteristics) is referred
 to in print-outs of MO eigenvectors and Mulliken populations in the BAS representation
 (as contrasted to the SFO representation).

 Notes:
 1. The functions are characterized by a polynomial prefactor (powers of x,y,z and r) and
    an exponential decay factor alpha.
 2. Since the basis sets are specific for an atom TYPE, the individual functions occur on
    all atoms of that type.
 3. The word 'Core' in the left margin signals that it is a Core Function (CF) : not a
    degree of freedom in the valence set, but only used to ensure orthogonalization of
    the other valence basis functions on the frozen Core Orbitals.


 (power of) X  Y  Z  R     Alpha  on Atom
            ==========     =====     ==========

 H                                    1
                                  ---------------------------------------------------------------------------
            0  0  0  0     0.690      1
            0  0  0  0     0.920      2
            0  0  0  0     1.580      3
            1  0  0  0     1.250      4
            0  1  0  0     1.250      5
            0  0  1  0     1.250      6
            2  0  0  0     2.500      7
            1  1  0  0     2.500      8
            1  0  1  0     2.500      9
            0  2  0  0     2.500     10
            0  1  1  0     2.500     11
            0  0  2  0     2.500     12

 Total number of charge fitting functions (nprimf)        50
 Total number of Cartesian basis functions (naos)         12
 Total number of Cartesian core functions  (ncos)          0



 BAS: List of all Elementary Cartesian Basis Functions
 =====================================================

 The numbering in the list below (to the right of the function characteristics) is referred
 to in print-outs of MO eigenvectors and Mulliken populations in the BAS representation
 (as contrasted to the SFO representation).

 Notes:
 1. The functions are characterized by a polynomial prefactor (powers of x,y,z and r) and
    an exponential decay factor alpha.
 2. Since the basis sets are specific for an atom TYPE, the individual functions occur on
    all atoms of that type.
 3. The word 'Core' in the left margin signals that it is a Core Function (CF) : not a
    degree of freedom in the valence set, but only used to ensure orthogonalization of
    the other valence basis functions on the frozen Core Orbitals.


 (power of) X  Y  Z  R     Alpha  on Atom
            ==========     =====     ==========

 H                                    1
                                  ---------------------------------------------------------------------------
            0  0  0  0     0.690      1
            0  0  0  0     0.920      2
            0  0  0  0     1.580      3
            1  0  0  0     1.250      4
            0  1  0  0     1.250      5
            0  0  1  0     1.250      6
            2  0  0  0     2.500      7
            1  1  0  0     2.500      8
            1  0  1  0     2.500      9
            0  2  0  0     2.500     10
            0  1  1  0     2.500     11
            0  0  2  0     2.500     12
1
 ***************************************************************************************************



                                              ***********************
                                              *  T E C H N I C A L  *
                                              ***********************
  



 =============================================================
 P A R A L L E L I Z A T I O N  and  V E C T O R I Z A T I O N
 =============================================================
  
 Nr of parallel processes:                                1
 Maximum vector length in NumInt loops:                 128

 IO buffersize (Mb):                                     64.000000



 =====================
 S C F   U P D A T E S
 =====================
  
 Max. nr. of cycles:                               300
 Convergence criterion:                              0.0000000100
   secondary criterion:                              0.0000000100

 Mix parameter (when DIIS does not apply):           0.2000000000
 Special mix parameter for the first cycle:          1.0000000000
 Mixed ADIIS+DIIS will be used
    Max number of expansion vectors:                10
    Pure ADIIS when Max([F,P]) is above              0.1000000000
    Pure DIIS when Max([F,P]) is below               0.0010000000
 Automatic ElectronSmearing (in case of problematic SCF convergence) disabled



 =================
 P R E C I S I O N  ***  (General: NumInt, NeglectFunctionTails, ...)  ***
 =================
  

 NumInt:           Target precision:                12.0000000000
 -------           Initial precision:               10.0000000000
                   Min. precision (optimization):   10.0000000000

 Neglect Functions:          Basis functions:        0.1000000000E-13
 ------------------          Fit functions:          0.1000000000E-13



 ===========================
 L I N E A R   S C A L I N G
 ===========================
  

 Cut-off radii density fit:                        0.1000000000E-97
 Overlap cut-off criterion AO matrix elements:     0.1000000000E-97
 Cut-offs for Coulomb potential and fitted density:0.1000000000E-97
 Cut-off criterion for Coulomb multipole terms:    0.1000000000E-97
 Progressive Convergence parameter:                 0.000000000    
1
 ***************************************************************************************************



                                            ***************************
                                            *  C O M P U T A T I O N  *
                                            ***************************
  

 Number of elements of the density matrix on this node (used, total):        78        78



 ===========================================
 Numerical Integration : Fuzzy Cells (Becke)
 ===========================================
  
 Becke grid quality: VERYGOOD       
  
 Lebedev angular grid order:             min:  13 max:  41
 Nr. of radial points:                   min:  64 max:  64

 Total nr. of points:         64
 Nr. of blocks:                1
 Block length:                64
 Nr. of dummy points:          0


 Test of Precision of the Numerical Integration Grid
 ===================================================

 Integral of the Total Core Density:                   0.00000000000000



 ========================
 Density Fitting (zlmFit)
 ========================
  
 ZlmFit Fit Quality: VERYGOOD       
  
 Max L-expansion:                        min:   0 max:   0
 Nr. of radial interpolation points:     min: 130 max: 130



 =====
 S C F  ***  ScaSCF  ***
 =====
  

 CYCLE    1
 SCF Error: norm([F,P])=      0.000000000000, max([F,P])=      0.000000000000
 orbitals (Q,E):
 ---------------
 S :1...3            ( 1.00    -0.5000)  ( 0.00    -0.0900)  ( 0.00     1.2939)
 P :1...1            ( 0.00     0.1562)
 D :1...1            ( 0.00     2.2917)

 CYCLE    2
 SCF Error: norm([F,P])=      0.030526162244, max([F,P])=      0.029682528591
 orbitals (Q,E):
 ---------------
 S :1...2            ( 1.00    -0.2270)  ( 0.00     0.1038)
 P :1...1            ( 0.00     0.4131)
 D :1...1            ( 0.00     2.5768)

 CYCLE    3
  SDIIS (wt  0.000):  0.1733  0.8267
 A-DIIS (wt  1.000):  0.0000  1.0000
  DIIS coefficients:  0.0000  1.0000
 SCF Error: norm([F,P])=      0.007183061946, max([F,P])=      0.006712148192
 orbitals (Q,E):
 ---------------
 S :1...2            ( 1.00    -0.2462)  ( 0.00     0.0917)
 P :1...1            ( 0.00     0.3973)
 D :1...1            ( 0.00     2.5583)

 CYCLE    4
  SDIIS (wt  0.999):  0.1398  0.8602
 A-DIIS (wt  0.001):  0.0000  1.0000
  DIIS coefficients:  0.1396  0.8604
 SCF Error: norm([F,P])=      0.001175086780, max([F,P])=      0.001143060931
 orbitals (Q,E):
 ---------------
 S :1...2            ( 1.00    -0.2434)  ( 0.00     0.0933)
 P :1...1            ( 0.00     0.3996)
 D :1...1            ( 0.00     2.5611)

 CYCLE    5
  SDIIS (wt  1.000):  0.0219  0.9781
  DIIS coefficients:  0.0219  0.9781
 SCF Error: norm([F,P])=      0.000027525369, max([F,P])=      0.000023543474
 orbitals (Q,E):
 ---------------
 S :1...2            ( 1.00    -0.2435)  ( 0.00     0.0932)
 P :1...1            ( 0.00     0.3996)
 D :1...1            ( 0.00     2.5610)

 CYCLE    6
  SDIIS (wt  1.000): -0.0582  1.0582
  DIIS coefficients: -0.0582  1.0582
 SCF Error: norm([F,P])=      0.000001514450, max([F,P])=      0.000001285214
 orbitals (Q,E):
 ---------------
 S :1...2            ( 1.00    -0.2435)  ( 0.00     0.0932)
 P :1...1            ( 0.00     0.3996)
 D :1...1            ( 0.00     2.5610)

 CYCLE    7
  SDIIS (wt  1.000): -0.0031  1.0031
  DIIS coefficients: -0.0031  1.0031
 SCF Error: norm([F,P])=      0.000000004705, max([F,P])=      0.000000004158
 orbitals (Q,E):
 ---------------
 S :1...2            ( 1.00    -0.2435)  ( 0.00     0.0932)
 P :1...1            ( 0.00     0.3996)
 D :1...1            ( 0.00     2.5610)

 SCF CONVERGED

 CYCLE    8
1
 ***************************************************************************************************



                                                *******************
                                                *  R E S U L T S  *
                                                *******************
  
 *** Setting up for NEW gradients in Focky
 *** Using FIT density in Focky

 Orbital Energies, per Irrep and Spin:
 ======================================
                        Occup              E (au)              E (eV)       Diff (eV) with prev. cycle
                        -----      --------------------        ------       --------------------------
 S
               1        1.000     -0.24350452296405E+00        -6.626               4.48E-09
               2        0.000      0.93233330888583E-01         2.537
               3        0.000      0.15154066862622E+01        41.236
 P
               1        0.000      0.39955072057198E+00        10.872
 D
               1        0.000      0.25610214787646E+01        69.689


 Partially Occupied:
               1 S                -0.24350452296405E+00
  
 LUMO :        2 S                 0.93233330888583E-01
  


 Orbital Energies, all Irreps
 ========================================

 Irrep        no.  (spin)   Occup              E (au)                E (eV)
 ---------------------------------------------------------------------------
 S             1             1.00       -0.24350452296405E+00        -6.6261
 S             2             0.00        0.93233330888583E-01         2.5370
 P             1             0.00        0.39955072057198E+00        10.8723
 S             3             0.00        0.15154066862622E+01        41.2363
 D             1             0.00        0.25610214787646E+01        69.6889


 All Electron Calculation, thus no Orbital Energies of the Core Orbitals are calculated



 =======================================
 M U L L I K E N   P O P U L A T I O N S
 =======================================
  
 The survey below gives for each atom:
 a) the total charge (Z minus electrons)
 b) the net spin polarization (nr of electrons spin-A minus spin-B)
 c) for each spin the atomic electron valence density (integrated) per L-value.

 Atom              Charge    Spin density          S         P         D         F
 ----              ------    ------------       ------    ------    ------    ------
 1 H              -0.0000                       1.0000    0.0000    0.0000    0.0000

 Populations of individual BAS functions
 ----------------------------------------
 1 H            0.1853  0.7115  0.1032  0.0000  0.0000  0.0000  0.0000  0.0000  0.0000  0.0000
                0.0000  0.0000

 Gross Charges per Atom (Z minus electrons)
 ==========================================
            -0.0000
 Net Total: -0.00000000



 =======================================================================
 Electrostatic potential at the Nuclei due to electrons and other nuclei
 =======================================================================
  
         Atom                  Potential
         ----                  ---------
     1)   H                   0.94550094
 
 
 ========================
 No memory problems found
 ========================
 
 Maximum number of active allocate calls:         363
 
 *******************************************************************************

                             A D F   E X I T
 NORMAL TERMINATION



 =================
 Timing Statistics
 =================
  
 Total Used :                     CPU=        0.24      System=        0.05     Elapsed=        0.63

 Calls  Section                     ( Mean, Percentage )
 ---------------------------------------------------------------------------------------------------
     3  ><      ................      0.00    0.32             0.00    1.58             0.00    2.15
     1  INIT    ................      0.02    6.44             0.03   61.40             0.12   19.95
     1  GEOMET  ................      0.00    1.66             0.01   10.84             0.05    7.37
     1  INPUTA  ................      0.00    0.43             0.00    0.62             0.00    0.27
     1  MAINSY  ................      0.00    1.35             0.00    6.39             0.04    5.78
     1  SYMFIT  ................      0.00    0.08             0.00    0.43             0.00    0.06
     1  CORORT  ................      0.00    0.15             0.00    0.39             0.01    1.82
     1  SYMORB  ................      0.00    0.22             0.00    0.00             0.01    1.38
     1  CLSMAT  ................      0.00    1.29             0.00    1.42             0.01    1.98
     1  ORTHON  ................      0.00    0.47             0.00    0.28             0.01    1.12
     1  GENPT   ................      0.01    2.86             0.00    0.00             0.02    3.87
     1  PTBAS   ................      0.00    0.99             0.00    1.45             0.01    1.44
     8  FOCKY   ................      0.02   66.25             0.00    9.51             0.02   28.50
     8  FOCKTR  ................      0.00    1.73             0.00    0.00             0.00    0.67
     8  SDIIS   ................      0.00    4.32             0.00    3.16             0.01   11.41
     1  COREPS  ................      0.01    4.68             0.00    0.00             0.01    1.82
     1  POPAN   ................      0.00    1.38             0.00    0.00             0.01    1.41
     1  DEBYE   ................      0.00    0.15             0.00    0.60             0.01    0.99
     1  EXIT PROCEDURE .........      0.01    5.21             0.00    1.94             0.05    7.98


 Currently Open Files (EXIT00)
 ====================

 Unit    Access Format  Status   Type       Ident (file)
 -------------------------------------------------------
   3      SEQ    FORM   TRANSP  NORMAL      LOGFILE
                                          ( logfile )


 Buffered I/O statistics
 =======================
 Memory available:                     67108864
 Number of records fitting in memory:     16131
 Input :   0.1% of                        16779  *4k bytes
 Output:  23.1% of                          687  *4k bytes
 Records from serial files evicted:           0
                    others evicted:           0
 Hash table lookups:      34172 with          0 conflicts (  0.00%)

 ***************************************************************************************************
 (LOGFILE)
 <Jun06-2019> <13:53:47>  ADF 2017  RunTime: Jun06-2019 13:53:47  Nodes: 1  Procs: 1
 <Jun06-2019> <13:53:47>  Hydrogen (TZ2P)
 <Jun06-2019> <13:53:47>  RunType   : CREATE
 <Jun06-2019> <13:53:47>  Net Charge: 0 (Nuclei minus Electrons)
 <Jun06-2019> <13:53:47>  Symmetry  : ATOM
  Coordinates
    Atom         X           Y           Z   (Angstrom)
    1.H         0.000000    0.000000    0.000000
 <Jun06-2019> <13:53:47>  >>>> CORORT
 <Jun06-2019> <13:53:47>  >>>> CLSMAT
 <Jun06-2019> <13:53:47>  >>>> ORTHON
 <Jun06-2019> <13:53:47>  >>>> GENPT
 <Jun06-2019> <13:53:47>  Block Length=  64
 <Jun06-2019> <13:53:47>  >>>> PTBAS
 <Jun06-2019> <13:53:47>  >>>> CYCLE
 <Jun06-2019> <13:53:47>              |Error|         MaxErr       Wt(A-DIIS)
 <Jun06-2019> <13:53:47>      1      0.00000000      0.00000000
 <Jun06-2019> <13:53:47>      2      0.03052616      0.02968253
 <Jun06-2019> <13:53:47>      3      0.00718306      0.00671215    100.0
 <Jun06-2019> <13:53:47>      4      0.00117509      0.00114306      0.1
 <Jun06-2019> <13:53:47>      5      0.00002753      0.00002354      0.0
 <Jun06-2019> <13:53:47>      6      0.00000151      0.00000129      0.0
 <Jun06-2019> <13:53:47>      7      0.00000000      0.00000000      0.0
 <Jun06-2019> <13:53:48>  SCF converged
 <Jun06-2019> <13:53:48>      8      0.00000000      0.00000000      0.0
 <Jun06-2019> <13:53:48>  >>>> POPAN
 <Jun06-2019> <13:53:48>  >>>> DEBYE
 <Jun06-2019> <13:53:48>  NORMAL TERMINATION
 <Jun06-2019> <13:53:48>  END

Create C   file=TZ2P-C
XC
 GGA Becke Perdew
End
End Input

 *******************************************************************************
 *                                                                             *
 *  -------------------------------------                                      *
 *   Amsterdam Density Functional  (ADF)         2017                          *
 *  -------------------------------------                                      *
 *                                               r65426 2018-05-03             *
 *                                                                             *
 *                                                                             *
 *                              =================                              *
 *                              |               |                              *
 *                              |     A D F     |                              *
 *                              |               |                              *
 *                              =================                              *
 *                                                                             *
 *                                                                             *
 *   Online information and documentation:  https://www.scm.com/support/       *
 *   E-mail:  support@scm.com   info@scm.com                                   *
 *                                                                             *
 *   Scientific publications using ADF results must be properly referenced     *
 *   See the User Manuals (or the web site) for recommended citations          *
 *   The terms and conditions of the End User License Agreement apply to       *
 *   the use of ADF, https://www.scm.com/license-terms/                        *
 *                                                                             *
 **********************  x86_64_linux_intel / intelmpi  ************************
 
 Licensed to: Dr. Jochen Autschbach / University at Buffalo / Buffalo / NY / USA
 SCM User ID: u7467
  
 ADF 2017  RunTime: Jun06-2019 13:53:48  Nodes: 1  Procs: 1

 Temporary files are created in /projects/academic/jochena/herbertl/projects/adf_stuff/CPL_C2H2/kid_0.E8v4kf

 Carbon (TZ2P)



 ===========================
 A T T A C H E D   F I L E S
 ===========================
  
 CREATE - Data File:    TZ2P-C
                        Carbon (TZ2P)



 ===============================
 M O D E L   P A R A M E T E R S
 ===============================
  
 DENSITY FUNCTIONAL POTENTIAL (scf)
    LDA:                               VWN                                      
    Gradient Corrections:              Becke88 Perdew86                        == Not Default ==

 SPIN  (restricted / unrestr.)
    Molecule:                          Restricted                               

 OTHER ASPECTS
    Relativistic Corrections:          ---                                      

    Nuclear Charge Density Model:      Point Charge Nuclei                      
    Core Treatment:                    Frozen Orbital(s)                        

    Hyperfine or Zeeman Interaction:   ---                                      



 =====================================
 S Y M M E T R Y ,   E L E C T R O N S
 =====================================
  
 Symmetry: ATOM

 Irreducible Representations, including subspecies
 -------------------------------------------------
 S
 P:x  P:y  P:z
 D:z2  D:x2-y2  D:xy  D:xz  D:yz
 F:z3  F:z  F:xyz  F:z2x  F:z2y  F:x  F:y


 Configuration of Valence Electrons
 ==================================

          Occupation Numbers
          -------------------------------------------------
 S        2*2
 P        2
 D        0
 F        0
          -------------------------------------------------

 Total:   6

 Net Charge: 0 (Nuclei minus Electrons)

 Preset values for MO occupations will be applied through SCF cycle no. 1000000
 Thereafter, the program will assign electrons to MOs that are spatially
 similar to the occupied MOs in a "reference" cycle ("KeepOrbitals").
 The reference cycle is always the PREVIOUS cycle: it will evolve with
 the SCF procedure.



 ================================
 (Slater-type)  F U N C T I O N S  ***  (Basis and Fit)  ***
 ================================
  

 Atom Type    1  (C)
 ==============

 Valence Basis Sets:  10
 -----------------------
   1 S    7.680000
   1 S    5.000000
   2 S    1.280000
   2 S    2.100000
   2 S    4.600000
   2 P    0.820000
   2 P    1.480000
   2 P    2.940000
   3 D    2.200000
   4 F    3.300000


 BAS: List of all Elementary Cartesian Basis Functions
 =====================================================

 The numbering in the list below (to the right of the function characteristics) is referred
 to in print-outs of MO eigenvectors and Mulliken populations in the BAS representation
 (as contrasted to the SFO representation).

 Notes:
 1. The functions are characterized by a polynomial prefactor (powers of x,y,z and r) and
    an exponential decay factor alpha.
 2. Since the basis sets are specific for an atom TYPE, the individual functions occur on
    all atoms of that type.
 3. The word 'Core' in the left margin signals that it is a Core Function (CF) : not a
    degree of freedom in the valence set, but only used to ensure orthogonalization of
    the other valence basis functions on the frozen Core Orbitals.


 (power of) X  Y  Z  R     Alpha  on Atom
            ==========     =====     ==========

 C                                    1
                                  ---------------------------------------------------------------------------
            0  0  0  0     7.680      1
            0  0  0  0     5.000      2
            0  0  0  1     1.280      3
            0  0  0  1     2.100      4
            0  0  0  1     4.600      5
            1  0  0  0     0.820      6
            0  1  0  0     0.820      7
            0  0  1  0     0.820      8
            1  0  0  0     1.480      9
            0  1  0  0     1.480     10
            0  0  1  0     1.480     11
            1  0  0  0     2.940     12
            0  1  0  0     2.940     13
            0  0  1  0     2.940     14
            2  0  0  0     2.200     15
            1  1  0  0     2.200     16
            1  0  1  0     2.200     17
            0  2  0  0     2.200     18
            0  1  1  0     2.200     19
            0  0  2  0     2.200     20
            3  0  0  0     3.300     21
            2  1  0  0     3.300     22
            2  0  1  0     3.300     23
            1  2  0  0     3.300     24
            1  1  1  0     3.300     25
            1  0  2  0     3.300     26
            0  3  0  0     3.300     27
            0  2  1  0     3.300     28
            0  1  2  0     3.300     29
            0  0  3  0     3.300     30

 Total number of charge fitting functions (nprimf)        84
 Total number of Cartesian basis functions (naos)         30
 Total number of Cartesian core functions  (ncos)          0



 BAS: List of all Elementary Cartesian Basis Functions
 =====================================================

 The numbering in the list below (to the right of the function characteristics) is referred
 to in print-outs of MO eigenvectors and Mulliken populations in the BAS representation
 (as contrasted to the SFO representation).

 Notes:
 1. The functions are characterized by a polynomial prefactor (powers of x,y,z and r) and
    an exponential decay factor alpha.
 2. Since the basis sets are specific for an atom TYPE, the individual functions occur on
    all atoms of that type.
 3. The word 'Core' in the left margin signals that it is a Core Function (CF) : not a
    degree of freedom in the valence set, but only used to ensure orthogonalization of
    the other valence basis functions on the frozen Core Orbitals.


 (power of) X  Y  Z  R     Alpha  on Atom
            ==========     =====     ==========

 C                                    1
                                  ---------------------------------------------------------------------------
            0  0  0  0     7.680      1
            0  0  0  0     5.000      2
            0  0  0  1     1.280      3
            0  0  0  1     2.100      4
            0  0  0  1     4.600      5
            1  0  0  0     0.820      6
            0  1  0  0     0.820      7
            0  0  1  0     0.820      8
            1  0  0  0     1.480      9
            0  1  0  0     1.480     10
            0  0  1  0     1.480     11
            1  0  0  0     2.940     12
            0  1  0  0     2.940     13
            0  0  1  0     2.940     14
            2  0  0  0     2.200     15
            1  1  0  0     2.200     16
            1  0  1  0     2.200     17
            0  2  0  0     2.200     18
            0  1  1  0     2.200     19
            0  0  2  0     2.200     20
            3  0  0  0     3.300     21
            2  1  0  0     3.300     22
            2  0  1  0     3.300     23
            1  2  0  0     3.300     24
            1  1  1  0     3.300     25
            1  0  2  0     3.300     26
            0  3  0  0     3.300     27
            0  2  1  0     3.300     28
            0  1  2  0     3.300     29
            0  0  3  0     3.300     30
1
 ***************************************************************************************************



                                              ***********************
                                              *  T E C H N I C A L  *
                                              ***********************
  



 =============================================================
 P A R A L L E L I Z A T I O N  and  V E C T O R I Z A T I O N
 =============================================================
  
 Nr of parallel processes:                                1
 Maximum vector length in NumInt loops:                 128

 IO buffersize (Mb):                                     64.000000



 =====================
 S C F   U P D A T E S
 =====================
  
 Max. nr. of cycles:                               300
 Convergence criterion:                              0.0000000100
   secondary criterion:                              0.0000000100

 Mix parameter (when DIIS does not apply):           0.2000000000
 Special mix parameter for the first cycle:          1.0000000000
 Mixed ADIIS+DIIS will be used
    Max number of expansion vectors:                10
    Pure ADIIS when Max([F,P]) is above              0.1000000000
    Pure DIIS when Max([F,P]) is below               0.0010000000
 Automatic ElectronSmearing (in case of problematic SCF convergence) disabled



 =================
 P R E C I S I O N  ***  (General: NumInt, NeglectFunctionTails, ...)  ***
 =================
  

 NumInt:           Target precision:                12.0000000000
 -------           Initial precision:               10.0000000000
                   Min. precision (optimization):   10.0000000000

 Neglect Functions:          Basis functions:        0.1000000000E-13
 ------------------          Fit functions:          0.1000000000E-13



 ===========================
 L I N E A R   S C A L I N G
 ===========================
  

 Cut-off radii density fit:                        0.1000000000E-97
 Overlap cut-off criterion AO matrix elements:     0.1000000000E-97
 Cut-offs for Coulomb potential and fitted density:0.1000000000E-97
 Cut-off criterion for Coulomb multipole terms:    0.1000000000E-97
 Progressive Convergence parameter:                 0.000000000    
1
 ***************************************************************************************************



                                            ***************************
                                            *  C O M P U T A T I O N  *
                                            ***************************
  

 Number of elements of the density matrix on this node (used, total):       465       465



 ===========================================
 Numerical Integration : Fuzzy Cells (Becke)
 ===========================================
  
 Becke grid quality: VERYGOOD       
  
 Lebedev angular grid order:             min:  13 max:  41
 Nr. of radial points:                   min:  72 max:  72

 Total nr. of points:         72
 Nr. of blocks:                1
 Block length:                72
 Nr. of dummy points:          0


 Test of Precision of the Numerical Integration Grid
 ===================================================

 Integral of the Total Core Density:                   0.00000000000000



 ========================
 Density Fitting (zlmFit)
 ========================
  
 ZlmFit Fit Quality: VERYGOOD       
  
 Max L-expansion:                        min:   0 max:   0
 Nr. of radial interpolation points:     min: 160 max: 160



 =====
 S C F  ***  ScaSCF  ***
 =====
  

 CYCLE    1
 SCF Error: norm([F,P])=      0.000000000000, max([F,P])=      0.000000000000
 orbitals (Q,E):
 ---------------
 S :1...5            ( 2.00   -17.9995)  ( 2.00    -4.4761)  ( 0.00    -1.9482)  ( 0.00     0.6812)
                     ( 0.00    42.8100)
 P :1...3            ( 2.00    -4.4994)  ( 0.00    -1.9807)  ( 0.00    -1.0849)
 D :1...1            ( 0.00    -1.9800)
 F :1...1            ( 0.00     0.4950)

 CYCLE    2
  SDIIS (wt  0.000):  1.0000 -0.0000
 A-DIIS (wt  1.000):  0.0000  1.0000
  DIIS coefficients:  0.0000  1.0000
 SCF Error: norm([F,P])=      4.483247543453, max([F,P])=      3.319692437215
 orbitals (Q,E):
 ---------------
 S :1...3            ( 2.00    -7.7796)  ( 2.00    -0.0272)  ( 0.00     0.8405)
 P :1...2            ( 2.00     0.1088)  ( 0.00     0.5815)
 D :1...1            ( 0.00     1.7650)
 F :1...1            ( 0.00     4.6321)

 CYCLE    3
  SDIIS (wt  0.000):  0.2146  0.7854
 A-DIIS (wt  1.000):  0.1002  0.8998
  DIIS coefficients:  0.1002  0.8998
 SCF Error: norm([F,P])=      1.615377071090, max([F,P])=      1.304101935147
 orbitals (Q,E):
 ---------------
 S :1...3            ( 2.00   -11.0618)  ( 2.00    -0.9719)  ( 0.00     0.1026)
 P :1...2            ( 2.00    -0.6633)  ( 0.00     0.0057)
 D :1...1            ( 0.00     0.8110)
 F :1...1            ( 0.00     3.5316)

 CYCLE    4
  SDIIS (wt  0.000): -0.0646  0.2204  0.8442
 A-DIIS (wt  1.000):  0.0000  0.0669  0.9331
  DIIS coefficients:  0.0000  0.0669  0.9331
 SCF Error: norm([F,P])=      0.727062835235, max([F,P])=      0.590531306529
 orbitals (Q,E):
 ---------------
 S :1...3            ( 2.00    -9.5928)  ( 2.00    -0.3589)  ( 0.00     0.4870)
 P :1...2            ( 2.00    -0.0657)  ( 0.00     0.2593)
 D :1...1            ( 0.00     1.3775)
 F :1...1            ( 0.00     4.1761)

 CYCLE    5
  SDIIS (wt  0.000): -0.0190 -0.0582  0.3730  0.7042
 A-DIIS (wt  1.000):  0.0000  0.0000  0.2349  0.7651
  DIIS coefficients:  0.0000  0.0000  0.2349  0.7651
 SCF Error: norm([F,P])=      0.408986877990, max([F,P])=      0.332637996056
 orbitals (Q,E):
 ---------------
 S :1...3            ( 2.00   -10.2125)  ( 2.00    -0.5796)  ( 0.00     0.3271)
 P :1...2            ( 2.00    -0.2644)  ( 0.00     0.1416)
 D :1...1            ( 0.00     1.1659)
 F :1...1            ( 0.00     3.9304)

 CYCLE    6
  SDIIS (wt  0.000):  0.0033 -0.0108 -0.0812  0.2121  0.8767
 A-DIIS (wt  1.000):  0.0000  0.0000  0.0000  0.0000  1.0000
  DIIS coefficients:  0.0000  0.0000  0.0000  0.0000  1.0000
 SCF Error: norm([F,P])=      0.135489187246, max([F,P])=      0.105944162354
 orbitals (Q,E):
 ---------------
 S :1...3            ( 2.00    -9.9299)  ( 2.00    -0.4611)  ( 0.00     0.4052)
 P :1...2            ( 2.00    -0.1536)  ( 0.00     0.1986)
 D :1...1            ( 0.00     1.2786)
 F :1...1            ( 0.00     4.0598)

 CYCLE    7
  SDIIS (wt  0.092): -0.0004  0.0033  0.0106 -0.1524  0.2655  0.8734
 A-DIIS (wt  0.908):  0.0000  0.0000  0.0000  0.0000  0.3950  0.6050
  DIIS coefficients: -0.0000  0.0003  0.0010 -0.0140  0.3831  0.6297
 SCF Error: norm([F,P])=      0.114064321572, max([F,P])=      0.090880191346
 orbitals (Q,E):
 ---------------
 S :1...3            ( 2.00   -10.0707)  ( 2.00    -0.5153)  ( 0.00     0.3674)
 P :1...2            ( 2.00    -0.2035)  ( 0.00     0.1706)
 D :1...1            ( 0.00     1.2270)
 F :1...1            ( 0.00     4.0001)

 CYCLE    8
  SDIIS (wt  0.917): -0.0001  0.0008  0.0035 -0.0258 -0.0091  0.1766  0.8542
 A-DIIS (wt  0.083):  0.0000  0.0000  0.0000  0.0000  0.0000  0.0000  1.0000
  DIIS coefficients: -0.0001  0.0008  0.0032 -0.0237 -0.0084  0.1619  0.8663
 SCF Error: norm([F,P])=      0.011703250036, max([F,P])=      0.009265507995
 orbitals (Q,E):
 ---------------
 S :1...3            ( 2.00   -10.0567)  ( 2.00    -0.5096)  ( 0.00     0.3711)
 P :1...2            ( 2.00    -0.1982)  ( 0.00     0.1732)
 D :1...1            ( 0.00     1.2325)
 F :1...1            ( 0.00     4.0064)

 CYCLE    9
  SDIIS (wt  1.000): -0.0000 -0.0000  0.0001  0.0005  0.0017 -0.0121 -0.0564  1.0662
  DIIS coefficients: -0.0000 -0.0000  0.0001  0.0005  0.0017 -0.0121 -0.0564  1.0662
 SCF Error: norm([F,P])=      0.000780147843, max([F,P])=      0.000617910358
 orbitals (Q,E):
 ---------------
 S :1...3            ( 2.00   -10.0576)  ( 2.00    -0.5099)  ( 0.00     0.3708)
 P :1...2            ( 2.00    -0.1985)  ( 0.00     0.1730)
 D :1...1            ( 0.00     1.2321)
 F :1...1            ( 0.00     4.0060)

 CYCLE   10
  SDIIS (wt  1.000): -0.0000  0.0000  0.0000 -0.0001  0.0000  0.0004  0.0021  0.0101  0.9875
  DIIS coefficients: -0.0000  0.0000  0.0000 -0.0001  0.0000  0.0004  0.0021  0.0101  0.9875
 SCF Error: norm([F,P])=      0.000001779707, max([F,P])=      0.000001066206
 orbitals (Q,E):
 ---------------
 S :1...3            ( 2.00   -10.0576)  ( 2.00    -0.5099)  ( 0.00     0.3708)
 P :1...2            ( 2.00    -0.1985)  ( 0.00     0.1730)
 D :1...1            ( 0.00     1.2321)
 F :1...1            ( 0.00     4.0060)

 CYCLE   11
  SDIIS (wt  1.000): -0.0000  0.0000  0.0000 -0.0003 -0.0294  1.0296
  DIIS coefficients: -0.0000  0.0000  0.0000 -0.0003 -0.0294  1.0296
 SCF Error: norm([F,P])=      0.000000243303, max([F,P])=      0.000000187858
 orbitals (Q,E):
 ---------------
 S :1...3            ( 2.00   -10.0576)  ( 2.00    -0.5099)  ( 0.00     0.3708)
 P :1...2            ( 2.00    -0.1985)  ( 0.00     0.1730)
 D :1...1            ( 0.00     1.2321)
 F :1...1            ( 0.00     4.0060)

 CYCLE   12
  SDIIS (wt  1.000): -0.0000  0.0000 -0.0010  0.0337  0.9674
  DIIS coefficients: -0.0000  0.0000 -0.0010  0.0337  0.9674
 SCF Error: norm([F,P])=      0.000000000721, max([F,P])=      0.000000000394
 orbitals (Q,E):
 ---------------
 S :1...3            ( 2.00   -10.0576)  ( 2.00    -0.5099)  ( 0.00     0.3708)
 P :1...2            ( 2.00    -0.1985)  ( 0.00     0.1730)
 D :1...1            ( 0.00     1.2321)
 F :1...1            ( 0.00     4.0060)

 SCF CONVERGED

 CYCLE   13
1
 ***************************************************************************************************



                                                *******************
                                                *  R E S U L T S  *
                                                *******************
  
 *** Setting up for NEW gradients in Focky
 *** Using FIT density in Focky

 Orbital Energies, per Irrep and Spin:
 ======================================
                        Occup              E (au)              E (eV)       Diff (eV) with prev. cycle
                        -----      --------------------        ------       --------------------------
 S
               1        2.000     -0.10057606152104E+02      -273.681               4.28E-11
               2        2.000     -0.50994760171307E+00       -13.876               3.00E-11
               3        0.000      0.37082872313775E+00        10.091
               4        0.000      0.54281205268454E+01       147.707
               5        0.000      0.50180681036970E+02      1365.486
 P
               1        2.000     -0.19854276084073E+00        -5.403               3.94E-11
               2        0.000      0.17303455321757E+00         4.709
               3        0.000      0.20264846286165E+01        55.143
 D
               1        0.000      0.12321250634418E+01        33.528
 F
               1        0.000      0.40060208332447E+01       109.009


 Partially Occupied:
               1 P                -0.19854276084073E+00
  
 HOMO :        2 S                -0.50994760171307E+00
 LUMO :        2 P                 0.17303455321757E+00
  


 Orbital Energies, all Irreps
 ========================================

 Irrep        no.  (spin)   Occup              E (au)                E (eV)
 ---------------------------------------------------------------------------
 S             1             2.00       -0.10057606152104E+02      -273.6814
 S             2             2.00       -0.50994760171307E+00       -13.8764
 P             1             2.00       -0.19854276084073E+00        -5.4026
 P             2             0.00        0.17303455321757E+00         4.7085
 S             3             0.00        0.37082872313775E+00        10.0908
 D             1             0.00        0.12321250634418E+01        33.5278
 P             3             0.00        0.20264846286165E+01        55.1435
 F             1             0.00        0.40060208332447E+01       109.0094
 S             4             0.00        0.54281205268454E+01       147.7067
 S             5             0.00        0.50180681036970E+02      1365.4858


 All Electron Calculation, thus no Orbital Energies of the Core Orbitals are calculated



 =======================================
 M U L L I K E N   P O P U L A T I O N S
 =======================================
  
 The survey below gives for each atom:
 a) the total charge (Z minus electrons)
 b) the net spin polarization (nr of electrons spin-A minus spin-B)
 c) for each spin the atomic electron valence density (integrated) per L-value.

 Atom              Charge    Spin density          S         P         D         F
 ----              ------    ------------       ------    ------    ------    ------
 1 C              -0.0000                       4.0000    2.0000    0.0000    0.0000

 Populations of individual BAS functions
 ----------------------------------------
 1 C            0.4834  1.5186  0.9350  1.1213 -0.0582  0.1723  0.1723  0.1723  0.3913  0.3913
                0.3913  0.1031  0.1031  0.1031  0.0000  0.0000  0.0000  0.0000  0.0000  0.0000
                0.0000  0.0000  0.0000  0.0000  0.0000  0.0000  0.0000  0.0000  0.0000  0.0000

 Gross Charges per Atom (Z minus electrons)
 ==========================================
            -0.0000
 Net Total: -0.00000000



 =======================================================================
 Electrostatic potential at the Nuclei due to electrons and other nuclei
 =======================================================================
  
         Atom                  Potential
         ----                  ---------
     1)   C                  14.66972860
 
 
 ========================
 No memory problems found
 ========================
 
 Maximum number of active allocate calls:         447
 
 *******************************************************************************

                             A D F   E X I T
 NORMAL TERMINATION



 =================
 Timing Statistics
 =================
  
 Total Used :                     CPU=        0.37      System=        0.06     Elapsed=        0.85

 Calls  Section                     ( Mean, Percentage )
 ---------------------------------------------------------------------------------------------------
     3  ><      ................      0.00    0.24             0.00    0.01             0.01    1.99
     1  INIT    ................      0.01    3.92             0.03   50.04             0.17   20.41
     1  GEOMET  ................      0.01    1.93             0.00    6.02             0.05    5.76
     1  INPUTA  ................      0.00    0.33             0.00    0.43             0.00    0.21
     1  MAINSY  ................      0.00    1.35             0.00    2.57             0.03    4.00
     1  SYMFIT  ................      0.00    0.03             0.00    0.50             0.00    0.05
     1  CORORT  ................      0.00    0.17             0.00    0.36             0.03    3.18
     1  SYMORB  ................      0.00    0.19             0.00    0.09             0.00    0.49
     1  CLSMAT  ................      0.00    0.92             0.00    2.25             0.01    1.25
     1  ORTHON  ................      0.00    0.36             0.00    0.00             0.01    0.86
     1  GENPT   ................      0.01    2.28             0.00    2.42             0.02    2.33
     1  PTBAS   ................      0.00    0.85             0.00    0.37             0.01    0.91
    13  FOCKY   ................      0.02   71.73             0.00   25.38             0.02   33.97
    13  FOCKTR  ................      0.00    2.21             0.00    1.06             0.00    1.03
    13  SDIIS   ................      0.00    5.03             0.00    3.26             0.01   10.73
     1  COREPS  ................      0.01    3.54             0.00    1.63             0.01    1.65
     1  POPAN   ................      0.00    1.23             0.00    0.00             0.01    1.04
     1  DEBYE   ................      0.00    0.20             0.00    0.06             0.01    0.70
     1  EXIT PROCEDURE .........      0.01    3.47             0.00    3.55             0.08    9.44


 Currently Open Files (EXIT00)
 ====================

 Unit    Access Format  Status   Type       Ident (file)
 -------------------------------------------------------
   3      SEQ    FORM   TRANSP  NORMAL      LOGFILE
                                          ( logfile )


 Buffered I/O statistics
 =======================
 Memory available:                     67108864
 Number of records fitting in memory:     16131
 Input :   0.1% of                        26024  *4k bytes
 Output:  20.4% of                          918  *4k bytes
 Records from serial files evicted:           0
                    others evicted:           0
 Hash table lookups:      52859 with          0 conflicts (  0.00%)

 ***************************************************************************************************
 (LOGFILE)
 <Jun06-2019> <13:53:47>  ADF 2017  RunTime: Jun06-2019 13:53:47  Nodes: 1  Procs: 1
 <Jun06-2019> <13:53:47>  Hydrogen (TZ2P)
 <Jun06-2019> <13:53:47>  RunType   : CREATE
 <Jun06-2019> <13:53:47>  Net Charge: 0 (Nuclei minus Electrons)
 <Jun06-2019> <13:53:47>  Symmetry  : ATOM
  Coordinates
    Atom         X           Y           Z   (Angstrom)
    1.H         0.000000    0.000000    0.000000
 <Jun06-2019> <13:53:47>  >>>> CORORT
 <Jun06-2019> <13:53:47>  >>>> CLSMAT
 <Jun06-2019> <13:53:47>  >>>> ORTHON
 <Jun06-2019> <13:53:47>  >>>> GENPT
 <Jun06-2019> <13:53:47>  Block Length=  64
 <Jun06-2019> <13:53:47>  >>>> PTBAS
 <Jun06-2019> <13:53:47>  >>>> CYCLE
 <Jun06-2019> <13:53:47>              |Error|         MaxErr       Wt(A-DIIS)
 <Jun06-2019> <13:53:47>      1      0.00000000      0.00000000
 <Jun06-2019> <13:53:47>      2      0.03052616      0.02968253
 <Jun06-2019> <13:53:47>      3      0.00718306      0.00671215    100.0
 <Jun06-2019> <13:53:47>      4      0.00117509      0.00114306      0.1
 <Jun06-2019> <13:53:47>      5      0.00002753      0.00002354      0.0
 <Jun06-2019> <13:53:47>      6      0.00000151      0.00000129      0.0
 <Jun06-2019> <13:53:47>      7      0.00000000      0.00000000      0.0
 <Jun06-2019> <13:53:48>  SCF converged
 <Jun06-2019> <13:53:48>      8      0.00000000      0.00000000      0.0
 <Jun06-2019> <13:53:48>  >>>> POPAN
 <Jun06-2019> <13:53:48>  >>>> DEBYE
 <Jun06-2019> <13:53:48>  NORMAL TERMINATION
 <Jun06-2019> <13:53:48>  END
 <Jun06-2019> <13:53:48>  ADF 2017  RunTime: Jun06-2019 13:53:48  Nodes: 1  Procs: 1
 <Jun06-2019> <13:53:48>  Carbon (TZ2P)
 <Jun06-2019> <13:53:48>  RunType   : CREATE
 <Jun06-2019> <13:53:48>  Net Charge: 0 (Nuclei minus Electrons)
 <Jun06-2019> <13:53:48>  Symmetry  : ATOM
  Coordinates
    Atom         X           Y           Z   (Angstrom)
    1.C         0.000000    0.000000    0.000000
 <Jun06-2019> <13:53:48>  >>>> CORORT
 <Jun06-2019> <13:53:48>  >>>> CLSMAT
 <Jun06-2019> <13:53:48>  >>>> ORTHON
 <Jun06-2019> <13:53:48>  >>>> GENPT
 <Jun06-2019> <13:53:48>  Block Length=  72
 <Jun06-2019> <13:53:48>  >>>> PTBAS
 <Jun06-2019> <13:53:48>  >>>> CYCLE
 <Jun06-2019> <13:53:48>              |Error|         MaxErr       Wt(A-DIIS)
 <Jun06-2019> <13:53:48>      1      0.00000000      0.00000000
 <Jun06-2019> <13:53:48>      2      4.48324754      3.31969244    100.0
 <Jun06-2019> <13:53:48>      3      1.61537707      1.30410194    100.0
 <Jun06-2019> <13:53:48>      4      0.72706284      0.59053131    100.0
 <Jun06-2019> <13:53:48>      5      0.40898688      0.33263800    100.0
 <Jun06-2019> <13:53:48>      6      0.13548919      0.10594416    100.0
 <Jun06-2019> <13:53:48>      7      0.11406432      0.09088019     90.8
 <Jun06-2019> <13:53:48>      8      0.01170325      0.00926551      8.3
 <Jun06-2019> <13:53:48>      9      0.00078015      0.00061791      0.0
 <Jun06-2019> <13:53:48>     10      0.00000178      0.00000107      0.0
 <Jun06-2019> <13:53:48>     11      0.00000024      0.00000019      0.0
 <Jun06-2019> <13:53:49>     12      0.00000000      0.00000000      0.0
 <Jun06-2019> <13:53:49>  SCF converged
 <Jun06-2019> <13:53:49>     13      0.00000000      0.00000000      0.0
 <Jun06-2019> <13:53:49>  >>>> POPAN
 <Jun06-2019> <13:53:49>  >>>> DEBYE
 <Jun06-2019> <13:53:49>  NORMAL TERMINATION
 <Jun06-2019> <13:53:49>  END

TITLE C2H2 nrel

ATOMS
C 0.0  0.0  0.0
C 0.0  0.0  1.20692
H 0.0  0.0  2.26672
H 0.0  0.0 -1.0598
END

XC
 GGA Becke Perdew
END

BeckeGrid
 Quality good
end

SYMMETRY NOSYM
SAVE TAPE10

Fragments
H t21.H
C t21.C
End
end input

 *******************************************************************************
 *                                                                             *
 *  -------------------------------------                                      *
 *   Amsterdam Density Functional  (ADF)         2017                          *
 *  -------------------------------------                                      *
 *                                               r65426 2018-05-03             *
 *                                                                             *
 *                                                                             *
 *                              =================                              *
 *                              |               |                              *
 *                              |     A D F     |                              *
 *                              |               |                              *
 *                              =================                              *
 *                                                                             *
 *                                                                             *
 *   Online information and documentation:  https://www.scm.com/support/       *
 *   E-mail:  support@scm.com   info@scm.com                                   *
 *                                                                             *
 *   Scientific publications using ADF results must be properly referenced     *
 *   See the User Manuals (or the web site) for recommended citations          *
 *   The terms and conditions of the End User License Agreement apply to       *
 *   the use of ADF, https://www.scm.com/license-terms/                        *
 *                                                                             *
 **********************  x86_64_linux_intel / intelmpi  ************************
 
 Licensed to: Dr. Jochen Autschbach / University at Buffalo / Buffalo / NY / USA
 SCM User ID: u7467
  
 ADF 2017  RunTime: Jun06-2019 13:53:49  Nodes: 1  Procs: 1

 Temporary files are created in /projects/academic/jochena/herbertl/projects/adf_stuff/CPL_C2H2/kid_0.iSlgSj

 C2H2 nrel



 ===========================
 A T T A C H E D   F I L E S
 ===========================
  



 ===============================
 M O D E L   P A R A M E T E R S
 ===============================
  
 DENSITY FUNCTIONAL POTENTIAL (scf)
    LDA:                               VWN                                      
    Gradient Corrections:              Becke88 Perdew86                        == Not Default ==

 SPIN  (restricted / unrestr.)
    Molecule:                          Restricted                               
    Fragments:                         Restricted                               

 OTHER ASPECTS
    Relativistic Corrections:          ---                                      

    Nuclear Charge Density Model:      Point Charge Nuclei                      
    Core Treatment:                    Frozen Orbital(s)                        

    Hyperfine or Zeeman Interaction:   ---                                      


 Fragment File(s)
 ----------------
 C:
         file : t21.C
         jobid: ADF 2017  RunTime: Jun06-2019 13:53:48  Nodes: 1  Procs: 1
         title: Carbon (TZ2P)
 H:
         file : t21.H
         jobid: ADF 2017  RunTime: Jun06-2019 13:53:47  Nodes: 1  Procs: 1
         title: Hydrogen (TZ2P)



                                        ************************************
                                        *  R U N   T Y P E : SINGLE POINT  *
                                        ************************************
  



 ===============
 G E O M E T R Y  ***  Linear Molecule  ***
 ===============
  

 ATOMS
 =====                            X Y Z                    CHARGE
                                (Angstrom)             Nucl     +Core       At.Mass
                       --------------------------    ----------------       -------
    1  C               0.0000    0.0000    0.0000      6.00      6.00       12.0000
    2  C               0.0000    0.0000    1.2069      6.00      6.00       12.0000
    3  H               0.0000    0.0000    2.2667      1.00      1.00        1.0078
    4  H               0.0000    0.0000   -1.0598      1.00      1.00        1.0078


 FRAGMENTS
 =========                                     Atoms in this Fragment     Cart. coord.s (Angstrom)
                                               -------------------------------------------------------
    1  C                                                 1  C            0.0000    0.0000    0.0000
    2  C                                                 2  C            0.0000    0.0000    1.2069
    3  H                                                 3  H            0.0000    0.0000    2.2667
    4  H                                                 4  H            0.0000    0.0000   -1.0598


 Interatomic Distance Matrix (Angstrom)
 --------------------------------------

   1)     0.000
   2)     1.207   0.000
   3)     2.267   1.060   0.000
   4)     1.060   2.267   3.327   0.000

 Min. Distance =    1.0598
 Max. Distance =    3.3265



 =====================================
 S Y M M E T R Y ,   E L E C T R O N S
 =====================================
  
 Symmetry: NOSYM

 Irreducible Representations, including subspecies
 -------------------------------------------------
 A


 Configuration of Valence Electrons
 ==================================
 ( determined in the SCF procedure )

 Total:   14

 Net Charge: 0 (Nuclei minus Electrons)

 Aufbau principle for MO occupations will be applied through SCF cycle no.     150
 Thereafter, the program will assign electrons to MOs that are spatially
 similar to the occupied MOs in a "reference" cycle ("KeepOrbitals").
 The reference cycle is always the PREVIOUS cycle: it will evolve with
 the SCF procedure.
1
 ***************************************************************************************************



                                      ****************************************
                                      *  B U I L D : (Fragments, Functions)  *
                                      ****************************************
  



 =======
 S F O s  ***  (Symmetrized Fragment Orbitals)  ***
 =======
  
 SFOs are linear combinations of (valence) Fragment Orbitals (FOs), such that the SFOs transform as the
 irreducible representations of the (molecular) symmetry group. Each SFO is therefore characterized by
 an irrep of the molecule and by a few (or only one) generating FOs.
 The SFOs constitute a symmetry-adapted basis for the Fock matrix. The MO eigenvector coefficients in
 this basis provide a direct interpretation of the MOs in terms of Frontier Orbital Theory.

 The SFOs are combined with auxiliary Core Functions (CFs) to ensure orthogonalization on the (frozen)
 Core Orbitals (COs). The Core-orthogonalized SFOs (CSFOs) constitute the true Fock basis.

 The FOs, and hence also the (C)SFOs are combinations of the elementary basis functions (BAS). The basis
 functions that participate in the description of the SFOs depend on the irrep. The indices of the
 involved functions are printed below for each irrep.
 (The complete list of primitive basis functions is printed in another section)

 Total nr. of (C)SFOs (summation over all irreps) :    74

 NOTE: a (C)SFO that is defined as a combination of more than one FO is usually NOT normalized.



                                       === A ===
 Nr. of SFOs :   74
 Cartesian basis functions that participate in this irrep (total number =    84) :
      1     2     3     4     5     6     9    12     7    10
     13     8    11    14    15    16    17    18    19    20
     21    22    23    24    25    26    27    28    29    30
     31    32    33    34    35    36    39    42    37    40
     43    38    41    44    45    46    47    48    49    50
     51    52    53    54    55    56    57    58    59    60
     61    62    63    64    65    66    67    68    69    70
     71    72    73    74    75    76    77    78    79    80
     81    82    83    84

    SFO  (index         Fragment          Generating    Expansion in Fragment Orbitals
  indx  incl.CFs)   Occup   Orb.Energy   FragmentType  Coeff.   Orbital     on Fragment
 --------------------------------------------------------------------------------------
     1       1      2.000     -10.058 au  C             1.00      1 S               1
                        (    -273.681 eV)
     2       2      2.000      -0.510 au  C             1.00      2 S               1
                        (     -13.876 eV)
     3       3       --         0.371 au  C             1.00      3 S               1
                        (      10.091 eV)
     4       4       --         5.428 au  C             1.00      4 S               1
                        (     147.707 eV)
     5       5       --        50.181 au  C             1.00      5 S               1
                        (    1365.486 eV)
     6       6      0.667      -0.199 au  C             1.00      1 P:x             1
                        (      -5.403 eV)
     7       7       --         0.173 au  C             1.00      2 P:x             1
                        (       4.709 eV)
     8       8       --         2.026 au  C             1.00      3 P:x             1
                        (      55.143 eV)
     9       9      0.667      -0.199 au  C             1.00      1 P:y             1
                        (      -5.403 eV)
    10      10       --         0.173 au  C             1.00      2 P:y             1
                        (       4.709 eV)
    11      11       --         2.026 au  C             1.00      3 P:y             1
                        (      55.143 eV)
    12      12      0.667      -0.199 au  C             1.00      1 P:z             1
                        (      -5.403 eV)
    13      13       --         0.173 au  C             1.00      2 P:z             1
                        (       4.709 eV)
    14      14       --         2.026 au  C             1.00      3 P:z             1
                        (      55.143 eV)
    15      15       --         1.232 au  C             1.00      1 D:z2            1
                        (      33.528 eV)
    16      16       --         1.232 au  C             1.00      1 D:x2-y2         1
                        (      33.528 eV)
    17      17       --         1.232 au  C             1.00      1 D:xy            1
                        (      33.528 eV)
    18      18       --         1.232 au  C             1.00      1 D:xz            1
                        (      33.528 eV)
    19      19       --         1.232 au  C             1.00      1 D:yz            1
                        (      33.528 eV)
    20      20       --         4.006 au  C             1.00      1 F:z3            1
                        (     109.009 eV)
    21      21       --         4.006 au  C             1.00      1 F:z             1
                        (     109.009 eV)
    22      22       --         4.006 au  C             1.00      1 F:xyz           1
                        (     109.009 eV)
    23      23       --         4.006 au  C             1.00      1 F:z2x           1
                        (     109.009 eV)
    24      24       --         4.006 au  C             1.00      1 F:z2y           1
                        (     109.009 eV)
    25      25       --         4.006 au  C             1.00      1 F:x             1
                        (     109.009 eV)
    26      26       --         4.006 au  C             1.00      1 F:y             1
                        (     109.009 eV)
    27      27      2.000     -10.058 au  C             1.00      1 S               2
                        (    -273.681 eV)
    28      28      2.000      -0.510 au  C             1.00      2 S               2
                        (     -13.876 eV)
    29      29       --         0.371 au  C             1.00      3 S               2
                        (      10.091 eV)
    30      30       --         5.428 au  C             1.00      4 S               2
                        (     147.707 eV)
    31      31       --        50.181 au  C             1.00      5 S               2
                        (    1365.486 eV)
    32      32      0.667      -0.199 au  C             1.00      1 P:x             2
                        (      -5.403 eV)
    33      33       --         0.173 au  C             1.00      2 P:x             2
                        (       4.709 eV)
    34      34       --         2.026 au  C             1.00      3 P:x             2
                        (      55.143 eV)
    35      35      0.667      -0.199 au  C             1.00      1 P:y             2
                        (      -5.403 eV)
    36      36       --         0.173 au  C             1.00      2 P:y             2
                        (       4.709 eV)
    37      37       --         2.026 au  C             1.00      3 P:y             2
                        (      55.143 eV)
    38      38      0.667      -0.199 au  C             1.00      1 P:z             2
                        (      -5.403 eV)
    39      39       --         0.173 au  C             1.00      2 P:z             2
                        (       4.709 eV)
    40      40       --         2.026 au  C             1.00      3 P:z             2
                        (      55.143 eV)
    41      41       --         1.232 au  C             1.00      1 D:z2            2
                        (      33.528 eV)
    42      42       --         1.232 au  C             1.00      1 D:x2-y2         2
                        (      33.528 eV)
    43      43       --         1.232 au  C             1.00      1 D:xy            2
                        (      33.528 eV)
    44      44       --         1.232 au  C             1.00      1 D:xz            2
                        (      33.528 eV)
    45      45       --         1.232 au  C             1.00      1 D:yz            2
                        (      33.528 eV)
    46      46       --         4.006 au  C             1.00      1 F:z3            2
                        (     109.009 eV)
    47      47       --         4.006 au  C             1.00      1 F:z             2
                        (     109.009 eV)
    48      48       --         4.006 au  C             1.00      1 F:xyz           2
                        (     109.009 eV)
    49      49       --         4.006 au  C             1.00      1 F:z2x           2
                        (     109.009 eV)
    50      50       --         4.006 au  C             1.00      1 F:z2y           2
                        (     109.009 eV)
    51      51       --         4.006 au  C             1.00      1 F:x             2
                        (     109.009 eV)
    52      52       --         4.006 au  C             1.00      1 F:y             2
                        (     109.009 eV)
    53      53      1.000      -0.244 au  H             1.00      1 S               3
                        (      -6.626 eV)
    54      54       --         0.093 au  H             1.00      2 S               3
                        (       2.537 eV)
    55      55       --         1.515 au  H             1.00      3 S               3
                        (      41.236 eV)
    56      56       --         0.400 au  H             1.00      1 P:x             3
                        (      10.872 eV)
    57      57       --         0.400 au  H             1.00      1 P:y             3
                        (      10.872 eV)
    58      58       --         0.400 au  H             1.00      1 P:z             3
                        (      10.872 eV)
    59      59       --         2.561 au  H             1.00      1 D:z2            3
                        (      69.689 eV)
    60      60       --         2.561 au  H             1.00      1 D:x2-y2         3
                        (      69.689 eV)
    61      61       --         2.561 au  H             1.00      1 D:xy            3
                        (      69.689 eV)
    62      62       --         2.561 au  H             1.00      1 D:xz            3
                        (      69.689 eV)
    63      63       --         2.561 au  H             1.00      1 D:yz            3
                        (      69.689 eV)
    64      64      1.000      -0.244 au  H             1.00      1 S               4
                        (      -6.626 eV)
    65      65       --         0.093 au  H             1.00      2 S               4
                        (       2.537 eV)
    66      66       --         1.515 au  H             1.00      3 S               4
                        (      41.236 eV)
    67      67       --         0.400 au  H             1.00      1 P:x             4
                        (      10.872 eV)
    68      68       --         0.400 au  H             1.00      1 P:y             4
                        (      10.872 eV)
    69      69       --         0.400 au  H             1.00      1 P:z             4
                        (      10.872 eV)
    70      70       --         2.561 au  H             1.00      1 D:z2            4
                        (      69.689 eV)
    71      71       --         2.561 au  H             1.00      1 D:x2-y2         4
                        (      69.689 eV)
    72      72       --         2.561 au  H             1.00      1 D:xy            4
                        (      69.689 eV)
    73      73       --         2.561 au  H             1.00      1 D:xz            4
                        (      69.689 eV)
    74      74       --         2.561 au  H             1.00      1 D:yz            4
                        (      69.689 eV)



 ================================
 (Slater-type)  F U N C T I O N S  ***  (Basis and Fit)  ***
 ================================
  

 Atom Type    1  (C)
 ==============

 Valence Basis Sets:  10
 -----------------------
   1 S    7.680000
   1 S    5.000000
   2 S    1.280000
   2 S    2.100000
   2 S    4.600000
   2 P    0.820000
   2 P    1.480000
   2 P    2.940000
   3 D    2.200000
   4 F    3.300000

 Atom Type    2  (H)
 ==============

 Valence Basis Sets:   5
 -----------------------
   1 S    0.690000
   1 S    0.920000
   1 S    1.580000
   2 P    1.250000
   3 D    2.500000


 BAS: List of all Elementary Cartesian Basis Functions
 =====================================================

 The numbering in the list below (to the right of the function characteristics) is referred
 to in print-outs of MO eigenvectors and Mulliken populations in the BAS representation
 (as contrasted to the SFO representation).

 Notes:
 1. The functions are characterized by a polynomial prefactor (powers of x,y,z and r) and
    an exponential decay factor alpha.
 2. Since the basis sets are specific for an atom TYPE, the individual functions occur on
    all atoms of that type.
 3. The word 'Core' in the left margin signals that it is a Core Function (CF) : not a
    degree of freedom in the valence set, but only used to ensure orthogonalization of
    the other valence basis functions on the frozen Core Orbitals.


 (power of) X  Y  Z  R     Alpha  on Atom
            ==========     =====     ==========

 C                                    1    2
                                  ---------------------------------------------------------------------------
            0  0  0  0     7.680      1   31
            0  0  0  0     5.000      2   32
            0  0  0  1     1.280      3   33
            0  0  0  1     2.100      4   34
            0  0  0  1     4.600      5   35
            1  0  0  0     0.820      6   36
            0  1  0  0     0.820      7   37
            0  0  1  0     0.820      8   38
            1  0  0  0     1.480      9   39
            0  1  0  0     1.480     10   40
            0  0  1  0     1.480     11   41
            1  0  0  0     2.940     12   42
            0  1  0  0     2.940     13   43
            0  0  1  0     2.940     14   44
            2  0  0  0     2.200     15   45
            1  1  0  0     2.200     16   46
            1  0  1  0     2.200     17   47
            0  2  0  0     2.200     18   48
            0  1  1  0     2.200     19   49
            0  0  2  0     2.200     20   50
            3  0  0  0     3.300     21   51
            2  1  0  0     3.300     22   52
            2  0  1  0     3.300     23   53
            1  2  0  0     3.300     24   54
            1  1  1  0     3.300     25   55
            1  0  2  0     3.300     26   56
            0  3  0  0     3.300     27   57
            0  2  1  0     3.300     28   58
            0  1  2  0     3.300     29   59
            0  0  3  0     3.300     30   60

 H                                    3    4
                                  ---------------------------------------------------------------------------
            0  0  0  0     0.690     61   73
            0  0  0  0     0.920     62   74
            0  0  0  0     1.580     63   75
            1  0  0  0     1.250     64   76
            0  1  0  0     1.250     65   77
            0  0  1  0     1.250     66   78
            2  0  0  0     2.500     67   79
            1  1  0  0     2.500     68   80
            1  0  1  0     2.500     69   81
            0  2  0  0     2.500     70   82
            0  1  1  0     2.500     71   83
            0  0  2  0     2.500     72   84

 Total number of charge fitting functions (nprimf)       268
 Total number of Cartesian basis functions (naos)         84
 Total number of Cartesian core functions  (ncos)          0

1
 ***************************************************************************************************



                                              ***********************
                                              *  T E C H N I C A L  *
                                              ***********************
  



 =============================================================
 P A R A L L E L I Z A T I O N  and  V E C T O R I Z A T I O N
 =============================================================
  
 Nr of parallel processes:                                1
 Maximum vector length in NumInt loops:                 128

 IO buffersize (Mb):                                     64.000000



 =====================
 S C F   U P D A T E S
 =====================
  
 Max. nr. of cycles:                               300
 Convergence criterion:                              0.0000010000
   secondary criterion:                              0.0010000000

 Mix parameter (when DIIS does not apply):           0.2000000000
 Mixed ADIIS+DIIS will be used
    Max number of expansion vectors:                10
    Pure ADIIS when Max([F,P]) is above              0.1000000000
    Pure DIIS when Max([F,P]) is below               0.0010000000
 Automatic ElectronSmearing (in case of problematic SCF convergence) disabled



 =================
 P R E C I S I O N  ***  (General: NumInt, NeglectFunctionTails, ...)  ***
 =================
  

 NumInt:           Target precision:                 6.0000000000
 -------           Initial precision:                6.0000000000
                   Min. precision (optimization):    6.0000000000

 Neglect Functions:          Basis functions:        0.1000000000E-07
 ------------------          Fit functions:          0.1000000000E-07



 ===========================
 L I N E A R   S C A L I N G
 ===========================
  

 Cut-off radii density fit:                        0.1000000000E-09
 Overlap cut-off criterion AO matrix elements:     0.1000000000E-07
 Cut-offs for Coulomb potential and fitted density:0.1000000000E-09
 Cut-off criterion for Coulomb multipole terms:    0.1000000000E-09
 Progressive Convergence parameter:                 0.000000000    
1
 ***************************************************************************************************



                                            ***************************
                                            *  C O M P U T A T I O N  *
                                            ***************************
  

 Number of elements of the density matrix on this node (used, total):      3570      3570



 ===========================================
 Numerical Integration : Fuzzy Cells (Becke)
 ===========================================
  
 Becke grid quality: GOOD           
  
 Lebedev angular grid order:             min:  11 max:  31
 Nr. of radial points:                   min:  54 max:  61

 Total nr. of points:      49954
 Nr. of blocks:              391
 Block length:               128
 Nr. of dummy points:         94


 Test of Precision of the Numerical Integration Grid
 ===================================================

 Integral of the Total Core Density:                   0.00000000000000



 ========================
 Density Fitting (zlmFit)
 ========================
  
 ZlmFit Fit Quality: NORMAL         
  
 Max L-expansion:                        min:   6 max:   7
 Nr. of radial interpolation points:     min:  39 max:  48



 =====
 S C F  ***  ScaSCF  ***
 =====
  
 Initial density matrix is calculated as sum of fragments

 CYCLE    1
 SCF Error: norm([F,P])=      2.987978932015, max([F,P])=      1.235555286405
 orbitals (Q,E):
 ---------------
 A :1...17           ( 2.00   -10.1849)  ( 2.00   -10.1827)  ( 2.00    -0.9183)  ( 2.00    -0.6602)
                     ( 2.00    -0.6184)  ( 2.00    -0.4358)  ( 2.00    -0.4358)  ( 0.00    -0.1481)
                     ( 0.00    -0.1481)  ( 0.00    -0.0335)  ( 0.00    -0.0119)  ( 0.00     0.0302)
                     ( 0.00     0.0917)  ( 0.00     0.0932)  ( 0.00     0.0932)  ( 0.00     0.2255)
                     ( 0.00     0.2255)

 CYCLE    2
  SDIIS (wt  0.000):  0.0757  0.9243
 A-DIIS (wt  1.000):  0.9795  0.0205
  DIIS coefficients:  0.9795  0.0205
 SCF Error: norm([F,P])=      0.651213042349, max([F,P])=      0.156799326863
 orbitals (Q,E):
 ---------------
 A :1...8            ( 2.00   -10.1728)  ( 2.00   -10.1707)  ( 2.00    -0.9089)  ( 2.00    -0.6554)
                     ( 2.00    -0.6128)  ( 2.00    -0.4290)  ( 2.00    -0.4290)  ( 0.00    -0.1426)

 CYCLE    3
  SDIIS (wt  0.000):  0.0665 -2.0000  2.9335
 A-DIIS (wt  1.000):  0.9789  0.0000  0.0211
  DIIS coefficients:  0.9789  0.0000  0.0211
 SCF Error: norm([F,P])=      0.625668357917, max([F,P])=      0.150561344621
 orbitals (Q,E):
 ---------------
 A :1...8            ( 2.00   -10.1728)  ( 2.00   -10.1706)  ( 2.00    -0.9088)  ( 2.00    -0.6554)
                     ( 2.00    -0.6127)  ( 2.00    -0.4289)  ( 2.00    -0.4289)  ( 0.00    -0.1426)

 CYCLE    4
  SDIIS (wt  0.000): -2.0000  3.0000
 A-DIIS (wt  1.000):  0.0000  1.0000
  DIIS coefficients:  0.0000  1.0000
 SCF Error: norm([F,P])=      0.625494576801, max([F,P])=      0.150527623985
 orbitals (Q,E):
 ---------------
 A :1...8            ( 2.00    -9.6107)  ( 2.00    -9.6086)  ( 2.00    -0.5285)  ( 2.00    -0.4441)
                     ( 2.00    -0.3279)  ( 2.00    -0.1383)  ( 2.00    -0.1383)  ( 0.00     0.0471)

 CYCLE    5
  SDIIS (wt  0.000): -2.0000  2.5975  0.4025
 A-DIIS (wt  1.000): -0.0000  0.6266  0.3734
  DIIS coefficients: -0.0000  0.6266  0.3734
 SCF Error: norm([F,P])=      0.798133116173, max([F,P])=      0.227524994812
 orbitals (Q,E):
 ---------------
 A :1...8            ( 2.00    -9.8791)  ( 2.00    -9.8770)  ( 2.00    -0.6708)  ( 2.00    -0.5141)
                     ( 2.00    -0.4412)  ( 2.00    -0.2556)  ( 2.00    -0.2556)  ( 0.00    -0.0075)

 CYCLE    6
  SDIIS (wt  0.811):  0.5557 -0.4935 -0.0335  0.9713
 A-DIIS (wt  0.189):  0.0000  0.0000  0.0000  1.0000
  DIIS coefficients:  0.4508 -0.4003 -0.0272  0.9767
[...]
      -0.000     -18.041      -0.000             -0.000     -13.708      -0.000
      -0.000       0.000      59.237             -0.000       0.000      45.009

 fermi-contact + spin-dipolar contribution                               
  isotropic    k=     275.967                              j=     209.683
     277.017       0.000      -0.000            210.481       0.000      -0.000
       0.000     277.017       0.000              0.000     210.481       0.000
      -0.000       0.000     273.866             -0.000       0.000     208.087

 total calculated spin-spin coupling:                                    
  isotropic    k=     283.692                              j=     215.553
     255.997      -0.000       0.000            194.510      -0.000       0.000
      -0.000     255.997      -0.000             -0.000     194.510      -0.000
      -0.000       0.000     339.083             -0.000       0.000     257.640
 
 Principal Axis System (u,v,w) expressed in Cartesians:
 (taken as eigenvectors of the symmetric part of the coupling tensor,
  sorted in ascending order of eigenvalues = principal values)
        u         v         w
       -0.383     0.924     0.000
       -0.924    -0.383     0.000
        0.000    -0.000     1.000



 =======================================
  Nucleus 1 (C) perturbing nucleus 3 (H)
 =======================================
  
 Internal CPL numbering of atoms:  C(1) perturbing  H(3)
 Atom input numbers in the ADF calculation:  C(1) perturbing  H(3)
  
 ---------------------------------
   Cartesian Axis Representation  
 ---------------------------------

 ----- k (10^19 kg m-2 s-2 A-2) ----         ------------- j (hz) -------------

 diamagnetic orbital contribution:                                       
  isotropic    k=      -0.445                              j=      -1.345
      -0.958       0.000       0.000             -2.893       0.000       0.000
       0.000      -0.958       0.000              0.000      -2.893       0.000
       0.000       0.000       0.580              0.000       0.000       1.752

 paramagnetic orbital contribution:                                      
  isotropic    k=       1.805                              j=       5.453
       0.556      -0.000      -0.000              1.680      -0.000      -0.000
      -0.000       0.556      -0.000             -0.000       1.680      -0.000
      -0.000      -0.000       4.303             -0.000      -0.000      12.999

 fermi-contact + spin-dipolar contribution                               
  isotropic    k=      15.209                              j=      45.946
      13.936       0.000       0.000             42.102       0.000       0.000
       0.000      13.936       0.000              0.000      42.102       0.000
      -0.000      -0.000      17.754             -0.000      -0.000      53.634

 total calculated spin-spin coupling:                                    
  isotropic    k=      16.569                              j=      50.055
      13.535       0.000       0.000             40.890       0.000       0.000
       0.000      13.535       0.000              0.000      40.890       0.000
      -0.000      -0.000      22.636             -0.000      -0.000      68.385
 
 ---------------------------------
   Principal Axis Representation  
 ---------------------------------

 ----- k (10^19 kg m-2 s-2 A-2) ----         ------------- j (hz) -------------

 diamagnetic orbital contribution:                                       
  isotropic    k=      -0.445                              j=      -1.345
      -0.958       0.000       0.000             -2.893       0.000       0.000
       0.000      -0.958      -0.000              0.000      -2.893      -0.000
       0.000      -0.000       0.580              0.000      -0.000       1.752

 paramagnetic orbital contribution:                                      
  isotropic    k=       1.805                              j=       5.453
       0.556      -0.000      -0.000              1.680      -0.000      -0.000
      -0.000       0.556      -0.000             -0.000       1.680      -0.000
      -0.000       0.000       4.303             -0.000       0.000      12.999

 fermi-contact + spin-dipolar contribution                               
  isotropic    k=      15.209                              j=      45.946
      13.936       0.000      -0.000             42.102       0.000      -0.000
       0.000      13.936      -0.000              0.000      42.102      -0.000
       0.000       0.000      17.754              0.000       0.000      53.634

 total calculated spin-spin coupling:                                    
  isotropic    k=      16.569                              j=      50.055
      13.535       0.000      -0.000             40.890       0.000      -0.000
      -0.000      13.535      -0.000             -0.000      40.890      -0.000
       0.000       0.000      22.636              0.000       0.000      68.385
 
 Principal Axis System (u,v,w) expressed in Cartesians:
 (taken as eigenvectors of the symmetric part of the coupling tensor,
  sorted in ascending order of eigenvalues = principal values)
        u         v         w
        0.528    -0.850    -0.000
       -0.850    -0.528    -0.000
        0.000    -0.000     1.000



 =======================================
  Nucleus 1 (C) perturbing nucleus 4 (H)
 =======================================
  
 Internal CPL numbering of atoms:  C(1) perturbing  H(4)
 Atom input numbers in the ADF calculation:  C(1) perturbing  H(4)
  
 ---------------------------------
   Cartesian Axis Representation  
 ---------------------------------

 ----- k (10^19 kg m-2 s-2 A-2) ----         ------------- j (hz) -------------

 diamagnetic orbital contribution:                                       
  isotropic    k=       0.109                              j=       0.329
      -2.204       0.000      -0.000             -6.658       0.000      -0.000
       0.000      -2.204      -0.000              0.000      -6.658      -0.000
       0.000      -0.000       4.735              0.000      -0.000      14.305

 paramagnetic orbital contribution:                                      
  isotropic    k=      -0.028                              j=      -0.085
       2.526       0.000       0.000              7.631       0.000       0.000
       0.000       2.526       0.000              0.000       7.631       0.000
       0.000       0.000      -5.136              0.000       0.000     -15.517

 fermi-contact + spin-dipolar contribution                               
  isotropic    k=      87.442                              j=     264.167
      92.420      -0.000       0.000            279.204      -0.000       0.000
      -0.000      92.420       0.000             -0.000     279.204       0.000
       0.000       0.000      77.487              0.000       0.000     234.093

 total calculated spin-spin coupling:                                    
  isotropic    k=      87.523                              j=     264.411
      92.742      -0.000       0.000            280.177      -0.000       0.000
      -0.000      92.742       0.000             -0.000     280.177       0.000
       0.000       0.000      77.086              0.000       0.000     232.881
 
 ---------------------------------
   Principal Axis Representation  
 ---------------------------------

 ----- k (10^19 kg m-2 s-2 A-2) ----         ------------- j (hz) -------------

 diamagnetic orbital contribution:                                       
  isotropic    k=       0.109                              j=       0.329
       4.735      -0.000      -0.000             14.305      -0.000      -0.000
      -0.000      -2.204       0.000             -0.000      -6.658       0.000
      -0.000       0.000      -2.204             -0.000       0.000      -6.658

 paramagnetic orbital contribution:                                      
  isotropic    k=      -0.028                              j=      -0.085
      -5.136       0.000       0.000            -15.517       0.000       0.000
       0.000       2.526       0.000              0.000       7.631       0.000
       0.000       0.000       2.526              0.000       0.000       7.631

 fermi-contact + spin-dipolar contribution                               
  isotropic    k=      87.442                              j=     264.167
      77.487       0.000      -0.000            234.093       0.000      -0.000
      -0.000      92.420      -0.000             -0.000     279.204      -0.000
       0.000      -0.000      92.420              0.000      -0.000     279.204

 total calculated spin-spin coupling:                                    
  isotropic    k=      87.523                              j=     264.411
      77.086       0.000      -0.000            232.881       0.000      -0.000
      -0.000      92.742      -0.000             -0.000     280.177      -0.000
       0.000      -0.000      92.742              0.000      -0.000     280.177
 
 Principal Axis System (u,v,w) expressed in Cartesians:
 (taken as eigenvectors of the symmetric part of the coupling tensor,
  sorted in ascending order of eigenvalues = principal values)
        u         v         w
       -0.000    -0.244    -0.970
       -0.000    -0.970     0.244
        1.000    -0.000    -0.000



 =======================================
 Computation for perturbing nucleus 3(H)
 =======================================
  
 
 *** running ZDSO calculation
 *** running ZSO and/or ZPSO calculation
     computing
     ... basis integrals for perturbing nucleus   3
     ... basis integrals for responding nucleus   4
     transforming
     ... basis integrals for perturbing nucleus   3
     ... basis integrals for responding nucleus   4



 ==================================
 SCF routine for spin-spin coupling  ***  Version 11/07 (spinorbit)  ***
 ==================================
  
 Using new AO based algorithms for CPKS
    using first order VWN potential for LDA kernel
 
    Will use LDA kernel
 
 iter.  1 V(1) measurement   0.1097152E+01  0.1097152E+01  0.9868491E+00
 iter.  2 V(1) measurement   0.1600056E+01  0.1600056E+01  0.1367958E+01
        2            delta   0.5029038E+00  0.5029038E+00  0.3811093E+00
 iter.  3 V(1) measurement   0.1660676E+01  0.1660676E+01  0.1410449E+01
        3            delta   0.6062044E-01  0.6062044E-01  0.4249100E-01
 iter.  4 V(1) measurement   0.1662604E+01  0.1662604E+01  0.1412020E+01
        4            delta   0.1927270E-02  0.1927270E-02  0.1570542E-02
 iter.  5 V(1) measurement   0.1662557E+01  0.1662557E+01  0.1411962E+01
        5            delta   0.4642702E-04  0.4642702E-04  0.5845691E-04
 iter.  6 V(1) measurement   0.1662558E+01  0.1662558E+01  0.1411963E+01
        6            delta   0.7646263E-06  0.7646263E-06  0.1085221E-05
 iter.  7 V(1) measurement   0.1662558E+01  0.1662558E+01  0.1411963E+01
        7            delta   0.3983892E-06  0.3983892E-06  0.2896230E-06
 iter.  8 V(1) measurement   0.1662558E+01  0.1662558E+01  0.1411963E+01
        8            delta   0.2183010E-07  0.2183010E-07  0.1998670E-07
 *** convergence reached



                 *******************
                 *  R E S U L T S  *
                 *******************
  



 =======================================
  Nucleus 3 (H) perturbing nucleus 4 (H)
 =======================================
  
 Internal CPL numbering of atoms:  H(3) perturbing  H(4)
 Atom input numbers in the ADF calculation:  H(3) perturbing  H(4)
  
 ---------------------------------
   Cartesian Axis Representation  
 ---------------------------------

 ----- k (10^19 kg m-2 s-2 A-2) ----         ------------- j (hz) -------------

 diamagnetic orbital contribution:                                       
  isotropic    k=      -0.299                              j=      -3.586
      -0.478       0.000       0.000             -5.743       0.000       0.000
       0.000      -0.478      -0.000              0.000      -5.743      -0.000
       0.000       0.000       0.061              0.000       0.000       0.729

 paramagnetic orbital contribution:                                      
  isotropic    k=       0.358                              j=       4.297
       0.380       0.000      -0.000              4.566       0.000      -0.000
       0.000       0.380      -0.000              0.000       4.566      -0.000
       0.000       0.000       0.313              0.000       0.000       3.760

 fermi-contact + spin-dipolar contribution                               
  isotropic    k=       0.443                              j=       5.319
       0.420       0.000       0.000              5.045       0.000       0.000
       0.000       0.420      -0.000              0.000       5.045      -0.000
       0.000      -0.000       0.489              0.000      -0.000       5.868

 total calculated spin-spin coupling:                                    
  isotropic    k=       0.502                              j=       6.031
       0.322       0.000      -0.000              3.867       0.000      -0.000
       0.000       0.322      -0.000              0.000       3.867      -0.000
       0.000      -0.000       0.862              0.000      -0.000      10.357
 
 ---------------------------------
   Principal Axis Representation  
 ---------------------------------

 ----- k (10^19 kg m-2 s-2 A-2) ----         ------------- j (hz) -------------

 diamagnetic orbital contribution:                                       
  isotropic    k=      -0.299                              j=      -3.586
      -0.478      -0.000       0.000             -5.743      -0.000       0.000
      -0.000      -0.478      -0.000             -0.000      -5.743      -0.000
       0.000      -0.000       0.061              0.000      -0.000       0.729

 paramagnetic orbital contribution:                                      
  isotropic    k=       0.358                              j=       4.297
       0.380      -0.000      -0.000              4.566      -0.000      -0.000
      -0.000       0.380       0.000             -0.000       4.566       0.000
       0.000      -0.000       0.313              0.000      -0.000       3.760

 fermi-contact + spin-dipolar contribution                               
  isotropic    k=       0.443                              j=       5.319
       0.420       0.000       0.000              5.045       0.000       0.000
       0.000       0.420       0.000              0.000       5.045       0.000
       0.000       0.000       0.489              0.000       0.000       5.868

 total calculated spin-spin coupling:                                    
  isotropic    k=       0.502                              j=       6.031
       0.322       0.000      -0.000              3.867       0.000      -0.000
      -0.000       0.322       0.000             -0.000       3.867       0.000
       0.000      -0.000       0.862              0.000      -0.000      10.357
 
 Principal Axis System (u,v,w) expressed in Cartesians:
 (taken as eigenvectors of the symmetric part of the coupling tensor,
  sorted in ascending order of eigenvalues = principal values)
        u         v         w
        0.939    -0.345    -0.000
       -0.345    -0.939    -0.000
        0.000    -0.000     1.000
 *******************************************************************************

                             N M R   E X I T
 NORMAL TERMINATION



 =================
 Timing Statistics
 =================
  
 Total Used :                     CPU=       14.34      System=        0.29     Elapsed=       15.88

 Calls  Section                     ( Mean, Percentage )
 ---------------------------------------------------------------------------------------------------
     3  ><      ................      0.00    0.03             0.00    0.28             0.01    0.18
     2  ODIA    ................      0.06    0.86             0.02   13.77             0.22    2.82
     6  CALBSO  ................      0.17    7.01             0.00    1.61             0.18    6.89
     6  CALPSO  ................      0.12    5.00             0.00    1.52             0.13    4.85
     6  TRBSO   ................      0.00    0.12             0.00    2.76             0.03    1.03
     6  TRZPSO  ................      0.00    0.05             0.00    0.69             0.01    0.43
     6  TRAOMO  ................      0.00    0.00             0.00    0.00             0.00    0.00
     2  SOPT1   ................      6.23   86.93             0.11   78.32             6.63   83.56
     1  SOCPL   ................      0.00    0.00             0.00    0.16             0.01    0.04
     1  EXIT PROCEDURE .........      0.00    0.00             0.00    0.88             0.03    0.20


 Currently Open Files (EXIT00)
 ====================

 Unit    Access Format  Status   Type       Ident (file)
 -------------------------------------------------------
   3      SEQ    FORM   TRANSP  NORMAL      LOGFILE
                                          ( logfile )


 Buffered I/O statistics
 =======================
 Memory available:                     67108864
 Number of records fitting in memory:     16131
 Input :   4.7% of                       211613  *4k bytes
 Output:  72.7% of                        12042  *4k bytes
 Records from serial files evicted:           0
                    others evicted:           0
 Hash table lookups:     569184 with          0 conflicts (  0.00%)

 ***************************************************************************************************
 (LOGFILE)
 <Jun06-2019> <13:53:54>  CPL 2017  RunTime: Jun06-2019 13:53:54  Nodes: 1  Procs: 1
 <Jun06-2019> <13:53:54>  >>>> SOCPL
 <Jun06-2019> <13:53:54>  Computation for perturbing nucleus 1(C)
 <Jun06-2019> <13:53:54>  >>>> ODIA
 <Jun06-2019> <13:53:54>  >>>> RDEIGX
 <Jun06-2019> <13:53:54>  >>>> INTEGRALS
 <Jun06-2019> <13:53:56>  >>>> INTTRAFO
 <Jun06-2019> <13:53:56>  >>>> SOPT1
 <Jun06-2019> <13:53:57>     1 V(1)  0.39144E+01  0.39144E+01  0.36743E+01
 <Jun06-2019> <13:53:58>     2 V(1)  0.65974E+01  0.65974E+01  0.52853E+01
 <Jun06-2019> <13:53:59>     3 V(1)  0.69867E+01  0.69867E+01  0.55045E+01
 <Jun06-2019> <13:54:00>     4 V(1)  0.69894E+01  0.69894E+01  0.55066E+01
 <Jun06-2019> <13:54:01>     5 V(1)  0.69905E+01  0.69905E+01  0.55072E+01
 <Jun06-2019> <13:54:02>     6 V(1)  0.69905E+01  0.69905E+01  0.55072E+01
 <Jun06-2019> <13:54:03>     7 V(1)  0.69905E+01  0.69905E+01  0.55072E+01
 <Jun06-2019> <13:54:03>   convergence reached
 <Jun06-2019> <13:54:03>  C  ( 1) - C  ( 2) : k=     283.692 , j=     215.553
 <Jun06-2019> <13:54:03>  C  ( 1) - H  ( 3) : k=      16.569 , j=      50.055
 <Jun06-2019> <13:54:03>  C  ( 1) - H  ( 4) : k=      87.523 , j=     264.411
 <Jun06-2019> <13:54:03>  Computation for perturbing nucleus 3(H)
 <Jun06-2019> <13:54:03>  >>>> ODIA
 <Jun06-2019> <13:54:03>  >>>> RDEIGX
 <Jun06-2019> <13:54:03>  >>>> INTEGRALS
 <Jun06-2019> <13:54:03>  >>>> INTTRAFO
 <Jun06-2019> <13:54:03>  >>>> SOPT1
 <Jun06-2019> <13:54:04>     1 V(1)  0.10972E+01  0.10972E+01  0.98685E+00
 <Jun06-2019> <13:54:05>     2 V(1)  0.16001E+01  0.16001E+01  0.13680E+01
 <Jun06-2019> <13:54:05>     3 V(1)  0.16607E+01  0.16607E+01  0.14104E+01
 <Jun06-2019> <13:54:06>     4 V(1)  0.16626E+01  0.16626E+01  0.14120E+01
 <Jun06-2019> <13:54:07>     5 V(1)  0.16626E+01  0.16626E+01  0.14120E+01
 <Jun06-2019> <13:54:08>     6 V(1)  0.16626E+01  0.16626E+01  0.14120E+01
 <Jun06-2019> <13:54:09>     7 V(1)  0.16626E+01  0.16626E+01  0.14120E+01
 <Jun06-2019> <13:54:09>     8 V(1)  0.16626E+01  0.16626E+01  0.14120E+01
 <Jun06-2019> <13:54:10>   convergence reached
 <Jun06-2019> <13:54:10>  H  ( 3) - H  ( 4) : k=       0.502 , j=       6.031
 <Jun06-2019> <13:54:10>  NORMAL TERMINATION
 <Jun06-2019> <13:54:10>  END
