 argument  1 = dimer.inp
 


============================== echo of input deck ==============================
echo
# Taken from http://www.nwchem-sw.org/index.php/Release66:Hartree-Fock_Theory_for_Molecules
start dimer
title "Water dimer SCF using fragment initial guess"

geometry dimer
O   -0.595   1.165  -0.048
H    0.110   1.812  -0.170
H   -1.452   1.598  -0.154
O    0.724  -1.284   0.034
H    0.175  -2.013   0.348
H    0.177  -0.480   0.010
end

geometry h2o1
O   -0.595   1.165  -0.048
H    0.110   1.812  -0.170
H   -1.452   1.598  -0.154
end

geometry h2o2
O    0.724  -1.284   0.034
H    0.175  -2.013   0.348
H    0.177  -0.480   0.010
end

basis
    o library 3-21g
    h library 3-21g
end

set geometry h2o1
scf
    vectors input atomic output h2o1.movecs
    print "final vectors"
end
task scf

set geometry h2o2
scf
    vectors input atomic output h2o2.movecs
    print "final vectors"
end
task scf

set geometry dimer
scf
    vectors input fragment h2o1.movecs h2o2.movecs \
    output dimer.movecs
    print "final vectors"
    #print "final vectors analysis"    # For MO coefficient matrix
end

task scf
================================================================================


                                         
                                         
 
 
              Northwest Computational Chemistry Package (NWChem) 6.6
              ------------------------------------------------------
 
 
                    Environmental Molecular Sciences Laboratory
                       Pacific Northwest National Laboratory
                                Richland, WA 99352
 
                              Copyright (c) 1994-2015
                       Pacific Northwest National Laboratory
                            Battelle Memorial Institute
 
             NWChem is an open-source computational chemistry package
                        distributed under the terms of the
                      Educational Community License (ECL) 2.0
             A copy of the license is included with this distribution
                              in the LICENSE.TXT file
 
                                  ACKNOWLEDGMENT
                                  --------------

            This software and its documentation were developed at the
            EMSL at Pacific Northwest National Laboratory, a multiprogram
            national laboratory, operated for the U.S. Department of Energy
            by Battelle under Contract Number DE-AC05-76RL01830. Support
            for this work was provided by the Department of Energy Office
            of Biological and Environmental Research, Office of Basic
            Energy Sciences, and the Office of Advanced Scientific Computing.


           Job information
           ---------------

    hostname        = hostname
    program         = nwchem
    date            = Tue Oct 24 14:12:41 2017

    compiled        = Wed_Sep_14_13:31:52_2016
    source          = source
    nwchem branch   = Development
    nwchem revision = 28323
    ga revision     = 10664
    input           = dimer.inp
    prefix          = dimer.
    data base       = ./dimer.db
    status          = startup
    nproc           =       16
    time left       =     -1s



           Memory information
           ------------------

    heap     =   13107198 doubles =    100.0 Mbytes
    stack    =   13107195 doubles =    100.0 Mbytes
    global   =   26214400 doubles =    200.0 Mbytes (distinct from heap & stack)
    total    =   52428793 doubles =    400.0 Mbytes
    verify   = yes
    hardfail = no 


           Directory information
           ---------------------
 
  0 permanent = .
  0 scratch   = .
 
 
 
 
                                NWChem Input Module
                                -------------------
 
 
                   Water dimer SCF using fragment initial guess
                   --------------------------------------------

 Scaling coordinates for geometry "dimer" by  1.889725989
 (inverse scale =  0.529177249)

 C1  symmetry detected

          ------
          auto-z
          ------
  autoz: The atoms group into disjoint clusters
 cluster   1:    1    2    3 
 cluster   2:    4    5    6 
 Connecting clusters   1   2 via atoms    1    6 r = 1.82
  autoz: regenerating connections with new bonds
 
 
                              Geometry "dimer" -> ""
                              ----------------------
 
 Output coordinates in angstroms (scale by  1.889725989 to convert to a.u.)
 
  No.       Tag          Charge          X              Y              Z
 ---- ---------------- ---------- -------------- -------------- --------------
    1 O                    8.0000    -0.00887942     1.31133521     0.00999567
    2 H                    1.0000     0.91790721     1.57606847     0.04873628
    3 H                    1.0000    -0.55952529     2.08790412    -0.15402824
    4 O                    8.0000     0.06953501    -1.47028287    -0.01320046
    5 H                    1.0000    -0.78618267    -1.88650636     0.14786862
    6 H                    1.0000    -0.05744395    -0.50588494    -0.01693835
 
      Atomic Mass 
      ----------- 
 
      O                 15.994910
      H                  1.007825
 

 Effective nuclear repulsion energy (a.u.)      37.1751338074

            Nuclear Dipole moment (a.u.) 
            ----------------------------
        X                 Y               Z
 ---------------- ---------------- ----------------
     0.0000000000    -0.0000000000    -0.0000000000
 


                                Z-matrix (autoz)
                                -------- 

 Units are Angstrom for bonds and degrees for angles
 
      Type          Name      I     J     K     L     M      Value
      ----------- --------  ----- ----- ----- ----- ----- ----------
    1 Stretch                  1     6                       1.81807
    2 Stretch                  1     2                       0.96463
    3 Stretch                  1     3                       0.96601
    4 Stretch                  4     5                       0.96511
    5 Stretch                  4     6                       0.97273
    6 Bend                     1     6     4               170.90558
    7 Bend                     2     1     6               107.49185
    8 Bend                     2     1     3               109.50298
    9 Bend                     3     1     6               141.79258
   10 Bend                     5     4     6               108.20848
   11 Torsion                  1     6     4     5         163.19340
   12 Torsion                  2     1     6     4           4.56580
   13 Torsion                  3     1     6     4         169.65145
 
 
            XYZ format geometry
            -------------------
     6
 dimer
 O                    -0.00887942     1.31133521     0.00999567
 H                     0.91790721     1.57606847     0.04873628
 H                    -0.55952529     2.08790412    -0.15402824
 O                     0.06953501    -1.47028287    -0.01320046
 H                    -0.78618267    -1.88650636     0.14786862
 H                    -0.05744395    -0.50588494    -0.01693835
 
 ==============================================================================
                                internuclear distances
 ------------------------------------------------------------------------------
       center one      |      center two      | atomic units |  angstroms
 ------------------------------------------------------------------------------
    2 H                |   1 O                |     1.82289  |     0.96463
    3 H                |   1 O                |     1.82549  |     0.96601
    5 H                |   4 O                |     1.82379  |     0.96511
    6 H                |   4 O                |     1.83819  |     0.97273
 ------------------------------------------------------------------------------
                         number of included internuclear distances:          4
 ==============================================================================



 ==============================================================================
                                 internuclear angles
 ------------------------------------------------------------------------------
        center 1       |       center 2       |       center 3       |  degrees
 ------------------------------------------------------------------------------
    2 H                |   1 O                |   3 H                |   109.50
    5 H                |   4 O                |   6 H                |   108.21
 ------------------------------------------------------------------------------
                            number of included internuclear angles:          2
 ==============================================================================




 Scaling coordinates for geometry "h2o1" by  1.889725989
 (inverse scale =  0.529177249)

 C2V symmetry detected

          ------
          auto-z
          ------
 
 
                            Geometry "h2o1" -> "     "
                            --------------------------
 
 Output coordinates in angstroms (scale by  1.889725989 to convert to a.u.)
 
  No.       Tag          Charge          X              Y              Z
 ---- ---------------- ---------- -------------- -------------- --------------
    1 O                    8.0000     0.00000000     0.00000000    -0.11142167
    2 H                    1.0000    -0.78833565     0.00000000     0.44568668
    3 H                    1.0000     0.78833565     0.00000000     0.44568668
 
      Atomic Mass 
      ----------- 
 
      O                 15.994910
      H                  1.007825
 

 Effective nuclear repulsion energy (a.u.)       9.1066436895

            Nuclear Dipole moment (a.u.) 
            ----------------------------
        X                 Y               Z
 ---------------- ---------------- ----------------
     0.0000000000     0.0000000000     0.0000000000
 
      Symmetry information
      --------------------
 
 Group name             C2v       
 Group number             16
 Group order               4
 No. of unique centers     2
 
      Symmetry unique atoms
 
     1    2
 


                                Z-matrix (autoz)
                                -------- 

 Units are Angstrom for bonds and degrees for angles
 
      Type          Name      I     J     K     L     M      Value
      ----------- --------  ----- ----- ----- ----- ----- ----------
    1 Stretch                  1     2                       0.96532
    2 Stretch                  1     3                       0.96532
    3 Bend                     2     1     3               109.50312
 
 
            XYZ format geometry
            -------------------
     3
 h2o1
 O                     0.00000000     0.00000000    -0.11142167
 H                    -0.78833565     0.00000000     0.44568668
 H                     0.78833565     0.00000000     0.44568668
 
 ==============================================================================
                                internuclear distances
 ------------------------------------------------------------------------------
       center one      |      center two      | atomic units |  angstroms
 ------------------------------------------------------------------------------
    2 H                |   1 O                |     1.82419  |     0.96532
    3 H                |   1 O                |     1.82419  |     0.96532
 ------------------------------------------------------------------------------
                         number of included internuclear distances:          2
 ==============================================================================



 ==============================================================================
                                 internuclear angles
 ------------------------------------------------------------------------------
        center 1       |       center 2       |       center 3       |  degrees
 ------------------------------------------------------------------------------
    2 H                |   1 O                |   3 H                |   109.50
 ------------------------------------------------------------------------------
                            number of included internuclear angles:          1
 ==============================================================================




 Scaling coordinates for geometry "h2o2" by  1.889725989
 (inverse scale =  0.529177249)

 CS  symmetry detected

          ------
          auto-z
          ------
 
 
                             Geometry "h2o2" -> "    "
                             -------------------------
 
 Output coordinates in angstroms (scale by  1.889725989 to convert to a.u.)
 
  No.       Tag          Charge          X              Y              Z
 ---- ---------------- ---------- -------------- -------------- --------------
    1 O                    8.0000     0.11360598    -0.00175830     0.00000000
    2 H                    1.0000    -0.46007431    -0.77785682     0.00000000
    3 H                    1.0000    -0.44877352     0.79192319     0.00000000
 
      Atomic Mass 
      ----------- 
 
      O                 15.994910
      H                  1.007825
 

 Effective nuclear repulsion energy (a.u.)       9.0756599442

            Nuclear Dipole moment (a.u.) 
            ----------------------------
        X                 Y               Z
 ---------------- ---------------- ----------------
     0.0000000000     0.0000000000     0.0000000000
 
      Symmetry information
      --------------------
 
 Group name             Cs        
 Group number              2
 Group order               2
 No. of unique centers     3
 
      Symmetry unique atoms
 
     1    2    3
 


                                Z-matrix (autoz)
                                -------- 

 Units are Angstrom for bonds and degrees for angles
 
      Type          Name      I     J     K     L     M      Value
      ----------- --------  ----- ----- ----- ----- ----- ----------
    1 Stretch                  1     2                       0.96511
    2 Stretch                  1     3                       0.97273
    3 Bend                     2     1     3               108.20848
 
 
            XYZ format geometry
            -------------------
     3
 h2o2
 O                     0.11360598    -0.00175830     0.00000000
 H                    -0.46007431    -0.77785682     0.00000000
 H                    -0.44877352     0.79192319     0.00000000
 
 ==============================================================================
                                internuclear distances
 ------------------------------------------------------------------------------
       center one      |      center two      | atomic units |  angstroms
 ------------------------------------------------------------------------------
    2 H                |   1 O                |     1.82379  |     0.96511
    3 H                |   1 O                |     1.83819  |     0.97273
 ------------------------------------------------------------------------------
                         number of included internuclear distances:          2
 ==============================================================================



 ==============================================================================
                                 internuclear angles
 ------------------------------------------------------------------------------
        center 1       |       center 2       |       center 3       |  degrees
 ------------------------------------------------------------------------------
    2 H                |   1 O                |   3 H                |   108.21
 ------------------------------------------------------------------------------
                            number of included internuclear angles:          1
 ==============================================================================



  library name resolved from: environment
  library file name is: <
 libraryfilename>
  
                      Basis "ao basis" -> "" (cartesian)
                      -----
  o (Oxygen)
  ----------
            Exponent  Coefficients 
       -------------- ---------------------------------------------------------
  1 S  3.22037000E+02  0.059239
  1 S  4.84308000E+01  0.351500
  1 S  1.04206000E+01  0.707658
 
  2 S  7.40294000E+00 -0.404453
  2 S  1.57620000E+00  1.221560
 
  3 P  7.40294000E+00  0.244586
  3 P  1.57620000E+00  0.853955
 
  4 S  3.73684000E-01  1.000000
 
  5 P  3.73684000E-01  1.000000
 
  h (Hydrogen)
  ------------
            Exponent  Coefficients 
       -------------- ---------------------------------------------------------
  1 S  5.44717800E+00  0.156285
  1 S  8.24547000E-01  0.904691
 
  2 S  1.83192000E-01  1.000000
 


 Summary of "ao basis" -> "" (cartesian)
 ------------------------------------------------------------------------------
       Tag                 Description            Shells   Functions and Types
 ---------------- ------------------------------  ------  ---------------------
 o                           3-21g                   5        9   3s2p
 h                           3-21g                   2        2   2s


                                 NWChem SCF Module
                                 -----------------
 
 
                   Water dimer SCF using fragment initial guess
 
 

  ao basis        = "ao basis"
  functions       =    13
  atoms           =     3
  closed shells   =     5
  open shells     =     0
  charge          =   0.00
  wavefunction    = RHF 
  input vectors   = atomic
  output vectors  = ./h2o1.movecs
  use symmetry    = T
  symmetry adapt  = T


 Summary of "ao basis" -> "ao basis" (cartesian)
 ------------------------------------------------------------------------------
       Tag                 Description            Shells   Functions and Types
 ---------------- ------------------------------  ------  ---------------------
 o                           3-21g                   5        9   3s2p
 h                           3-21g                   2        2   2s


      Symmetry analysis of basis
      --------------------------
 
        a1          7
        a2          0
        b1          4
        b2          2
 

 Forming initial guess at       0.2s

 
      Superposition of Atomic Density Guess
      -------------------------------------
 
 Sum of atomic energies:         -75.36108718
 
      Non-variational initial energy
      ------------------------------

 Total energy =     -75.515721
 1-e energy   =    -121.318693
 2-e energy   =      36.696329
 HOMO         =      -0.435169
 LUMO         =       0.159490
 
 
      Symmetry analysis of molecular orbitals - initial
      -------------------------------------------------
 
  Numbering of irreducible representations: 
 
     1 a1          2 a2          3 b1          4 b2      
 
  Orbital symmetries:
 
     1 a1          2 a1          3 b1          4 a1          5 b2      
     6 a1          7 b1          8 b1          9 a1         10 b2      
    11 a1         12 b1         13 a1      
 

 Starting SCF solution at       0.3s



 ----------------------------------------------
         Quadratically convergent ROHF

 Convergence threshold     :          1.000E-04
 Maximum no. of iterations :           30
 Final Fock-matrix accuracy:          1.000E-07
 ----------------------------------------------


 #quartets = 6.670D+02 #integrals = 1.513D+03 #direct =  0.0% #cached =100.0%


 Integral file          = ./dimer.aoints.00
 Record size in doubles =    65536    No. of integs per rec  =    43688
 Max. records in memory =        2    Max. records in file   = ********
 No. of bits per label  =        8    No. of bits per value  =       64


File balance: exchanges=     0  moved=     0  time=   0.0


              iter       energy          gnorm     gmax       time
             ----- ------------------- --------- --------- --------
                 1      -75.5511829270  7.97D-01  3.80D-01      0.2
                 2      -75.5831083903  2.11D-01  1.21D-01      0.3
                 3      -75.5857922448  3.00D-02  2.03D-02      0.3
                 4      -75.5858645108  1.18D-04  4.21D-05      0.5
                 5      -75.5858645120  9.59D-06  4.28D-06      0.5


       Final RHF  results 
       ------------------ 

         Total SCF energy =    -75.585864511957
      One-electron energy =   -122.512822316639
      Two-electron energy =     37.820314115140
 Nuclear repulsion energy =      9.106643689541

        Time for solution =      0.4s


 
       Symmetry analysis of molecular orbitals - final
       -----------------------------------------------
 
  Numbering of irreducible representations: 
 
     1 a1          2 a2          3 b1          4 b2      
 
  Orbital symmetries:
 
     1 a1          2 a1          3 b1          4 a1          5 b2      
     6 a1          7 b1          8 b1          9 a1         10 b2      
    11 a1         12 b1         13 a1      
 
             Final eigenvalues
             -----------------

              1      
    1  -20.4252
    2   -1.3195
    3   -0.6890
    4   -0.5263
    5   -0.4761
    6    0.2615
    7    0.3616
    8    1.2181
    9    1.2668
   10    1.7850
   11    1.8597
   12    2.0298
   13    3.1013
 
                       ROHF Final Molecular Orbital Analysis
                       -------------------------------------
 
 Vector    2  Occ=2.000000D+00  E=-1.319450D+00  Symmetry=a1
              MO Center= -3.2D-16, -1.0D-17,  6.9D-02, r^2= 5.1D-01
   Bfn.  Coefficient  Atom+Function         Bfn.  Coefficient  Atom+Function  
  ----- ------------  ---------------      ----- ------------  ---------------
     6      0.709891  1 O  s                  1     -0.229931  1 O  s          
     2      0.218132  1 O  s          
 
 Vector    3  Occ=2.000000D+00  E=-6.889997D-01  Symmetry=b1
              MO Center=  2.9D-16, -1.0D-48,  1.0D-01, r^2= 8.2D-01
   Bfn.  Coefficient  Atom+Function         Bfn.  Coefficient  Atom+Function  
  ----- ------------  ---------------      ----- ------------  ---------------
     3      0.395459  1 O  px                 7      0.368444  1 O  px         
    10     -0.232714  2 H  s                 12      0.232714  3 H  s          
    11     -0.179613  2 H  s                 13      0.179613  3 H  s          
 
 Vector    4  Occ=2.000000D+00  E=-5.263121D-01  Symmetry=a1
              MO Center= -2.3D-17,  8.4D-20, -2.0D-01, r^2= 6.4D-01
   Bfn.  Coefficient  Atom+Function         Bfn.  Coefficient  Atom+Function  
  ----- ------------  ---------------      ----- ------------  ---------------
     9      0.519146  1 O  pz                 5      0.446602  1 O  pz         
     6     -0.388726  1 O  s          
 
 Vector    5  Occ=2.000000D+00  E=-4.761355D-01  Symmetry=b2
              MO Center=  5.3D-31,  1.3D-18, -1.1D-01, r^2= 5.4D-01
   Bfn.  Coefficient  Atom+Function         Bfn.  Coefficient  Atom+Function  
  ----- ------------  ---------------      ----- ------------  ---------------
     8      0.632690  1 O  py                 4      0.520668  1 O  py         
 
 Vector    6  Occ=0.000000D+00  E= 2.615446D-01  Symmetry=a1
              MO Center=  0.0D+00, -1.6D-17,  5.3D-01, r^2= 2.2D+00
   Bfn.  Coefficient  Atom+Function         Bfn.  Coefficient  Atom+Function  
  ----- ------------  ---------------      ----- ------------  ---------------
     6      1.047937  1 O  s                 11     -0.862646  2 H  s          
    13     -0.862646  3 H  s                  9      0.451407  1 O  pz         
     5      0.204758  1 O  pz         
 
 Vector    7  Occ=0.000000D+00  E= 3.616315D-01  Symmetry=b1
              MO Center=  1.1D-16, -2.0D-31,  4.9D-01, r^2= 2.4D+00
   Bfn.  Coefficient  Atom+Function         Bfn.  Coefficient  Atom+Function  
  ----- ------------  ---------------      ----- ------------  ---------------
    11      1.155324  2 H  s                 13     -1.155324  3 H  s          
     7      0.780719  1 O  px                 3      0.302930  1 O  px         
 
 Vector    8  Occ=0.000000D+00  E= 1.218141D+00  Symmetry=b1
              MO Center=  0.0D+00, -2.5D-32,  2.5D-01, r^2= 1.5D+00
   Bfn.  Coefficient  Atom+Function         Bfn.  Coefficient  Atom+Function  
  ----- ------------  ---------------      ----- ------------  ---------------
    10      0.971338  2 H  s                 12     -0.971338  3 H  s          
    11     -0.670523  2 H  s                 13      0.670523  3 H  s          
     7      0.446941  1 O  px                 3      0.207465  1 O  px         
 
 Vector    9  Occ=0.000000D+00  E= 1.266758D+00  Symmetry=a1
              MO Center= -1.1D-16, -3.8D-17,  4.7D-01, r^2= 1.1D+00
   Bfn.  Coefficient  Atom+Function         Bfn.  Coefficient  Atom+Function  
  ----- ------------  ---------------      ----- ------------  ---------------
    10      0.974766  2 H  s                 12      0.974766  3 H  s          
    11     -0.499927  2 H  s                 13     -0.499927  3 H  s          
     9     -0.287483  1 O  pz                 5     -0.240773  1 O  pz         
 
 Vector   10  Occ=0.000000D+00  E= 1.785045D+00  Symmetry=b2
              MO Center=  1.2D-32, -6.3D-18, -1.1D-01, r^2= 7.2D-01
   Bfn.  Coefficient  Atom+Function         Bfn.  Coefficient  Atom+Function  
  ----- ------------  ---------------      ----- ------------  ---------------
     4      1.029588  1 O  py                 8     -0.964806  1 O  py         
 
 Vector   11  Occ=0.000000D+00  E= 1.859716D+00  Symmetry=a1
              MO Center=  5.2D-17,  6.2D-18, -2.7D-01, r^2= 7.2D-01
   Bfn.  Coefficient  Atom+Function         Bfn.  Coefficient  Atom+Function  
  ----- ------------  ---------------      ----- ------------  ---------------
     9      1.122955  1 O  pz                 5     -1.018307  1 O  pz         
    10     -0.223274  2 H  s                 12     -0.223274  3 H  s          
     6      0.161229  1 O  s          
 
 Vector   12  Occ=0.000000D+00  E= 2.029839D+00  Symmetry=b1
              MO Center= -2.9D-17,  8.6D-32, -1.7D-01, r^2= 8.7D-01
   Bfn.  Coefficient  Atom+Function         Bfn.  Coefficient  Atom+Function  
  ----- ------------  ---------------      ----- ------------  ---------------
     7      1.428100  1 O  px                 3     -1.065954  1 O  px         
    11      0.484401  2 H  s                 13     -0.484401  3 H  s          
    10      0.175567  2 H  s                 12     -0.175567  3 H  s          
 
 Vector   13  Occ=0.000000D+00  E= 3.101314D+00  Symmetry=a1
              MO Center= -4.2D-17,  6.3D-17,  5.8D-02, r^2= 7.4D-01
   Bfn.  Coefficient  Atom+Function         Bfn.  Coefficient  Atom+Function  
  ----- ------------  ---------------      ----- ------------  ---------------
     6      1.967751  1 O  s                  2     -1.638930  1 O  s          
     9      0.445872  1 O  pz                11     -0.362403  2 H  s          
    13     -0.362403  3 H  s                 10     -0.256579  2 H  s          
    12     -0.256579  3 H  s          
 
 
                                 Final MO vectors
                                 ----------------
 

 global array: scf_init: MOs[1:13,1:13],  handle: -1000 

            1           2           3           4           5           6  
       ----------- ----------- ----------- ----------- ----------- -----------
   1       0.98322    -0.22993     0.00000     0.08449    -0.00000    -0.11123
   2       0.09578     0.21813     0.00000    -0.07875     0.00000     0.03658
   3      -0.00000    -0.00000     0.39546     0.00000    -0.00000    -0.00000
   4       0.00000    -0.00000    -0.00000     0.00000     0.52067     0.00000
   5       0.00339     0.07807     0.00000     0.44660     0.00000     0.20476
   6      -0.03770     0.70989     0.00000    -0.38873    -0.00000     1.04794
   7       0.00000    -0.00000     0.36844     0.00000    -0.00000    -0.00000
   8       0.00000    -0.00000    -0.00000    -0.00000     0.63269     0.00000
   9      -0.00627     0.08828     0.00000     0.51915    -0.00000     0.45141
  10       0.00238     0.11524    -0.23271     0.12578    -0.00000    -0.05457
  11       0.00692     0.02056    -0.17961     0.10586    -0.00000    -0.86265
  12       0.00238     0.11524     0.23271     0.12578     0.00000    -0.05457
  13       0.00692     0.02056     0.17961     0.10586     0.00000    -0.86265

            7           8           9          10          11          12  
       ----------- ----------- ----------- ----------- ----------- -----------
   1      -0.00000    -0.00000     0.06561     0.00000    -0.04027    -0.00000
   2      -0.00000    -0.00000    -0.08933    -0.00000     0.11867     0.00000
   3       0.30293     0.20747     0.00000    -0.00000     0.00000    -1.06595
   4       0.00000     0.00000     0.00000     1.02959     0.00000    -0.00000
   5      -0.00000    -0.00000    -0.24077     0.00000    -1.01831    -0.00000
   6      -0.00000    -0.00000    -0.09663    -0.00000     0.16123    -0.00000
   7       0.78072     0.44694     0.00000     0.00000    -0.00000     1.42810
   8       0.00000     0.00000     0.00000    -0.96481     0.00000     0.00000
   9      -0.00000    -0.00000    -0.28748    -0.00000     1.12296     0.00000
  10       0.03164     0.97134     0.97477     0.00000    -0.22327     0.17557
  11       1.15532    -0.67052    -0.49993     0.00000    -0.09604     0.48440
  12      -0.03164    -0.97134     0.97477    -0.00000    -0.22327    -0.17557
  13      -1.15532     0.67052    -0.49993    -0.00000    -0.09604    -0.48440

           13  
       -----------
   1       0.08728
   2      -1.63893
   3      -0.00000
   4       0.00000
   5      -0.14813
   6       1.96775
   7      -0.00000
   8       0.00000
   9       0.44587
  10      -0.25658
  11      -0.36240
  12      -0.25658
  13      -0.36240

 center of mass
 --------------
 x =   0.00000000 y =   0.00000000 z =  -0.09273442

 moments of inertia (a.u.)
 ------------------
           1.984023024449           0.000000000000           0.000000000000
           0.000000000000           6.457396188324           0.000000000000
           0.000000000000           0.000000000000           4.473373163875
 
  Mulliken analysis of the total density
  --------------------------------------

    Atom       Charge   Shell Charges
 -----------   ------   -------------------------------------------------------
    1 O    8     8.74   1.99  0.42  2.11  1.48  2.75
    2 H    1     0.63   0.43  0.20
    3 H    1     0.63   0.43  0.20
 
       Multipole analysis of the density wrt the origin
       ------------------------------------------------
 
     L   x y z        total         open         nuclear
     -   - - -        -----         ----         -------
     0   0 0 0     -0.000000      0.000000     10.000000
 
     1   1 0 0      0.000000      0.000000      0.000000
     1   0 1 0      0.000000      0.000000      0.000000
     1   0 0 1      0.927770      0.000000      0.000000
 
     2   2 0 0     -2.891962      0.000000      4.438641
     2   1 1 0      0.000000      0.000000      0.000000
     2   1 0 1      0.000000      0.000000      0.000000
     2   0 2 0     -5.081349      0.000000      0.000000
     2   0 1 1      0.000000      0.000000      0.000000
     2   0 0 2     -4.401497      0.000000      1.773360
 

 Parallel integral file used      16 records with       0 large values


 Task  times  cpu:        0.5s     wall:        2.5s
 
 
                                NWChem Input Module
                                -------------------
 
 
                                 NWChem SCF Module
                                 -----------------
 
 
                   Water dimer SCF using fragment initial guess
 
 

  ao basis        = "ao basis"
  functions       =    13
  atoms           =     3
  closed shells   =     5
  open shells     =     0
  charge          =   0.00
  wavefunction    = RHF 
  input vectors   = atomic
  output vectors  = ./h2o2.movecs
  use symmetry    = T
  symmetry adapt  = T


 Summary of "ao basis" -> "ao basis" (cartesian)
 ------------------------------------------------------------------------------
       Tag                 Description            Shells   Functions and Types
 ---------------- ------------------------------  ------  ---------------------
 o                           3-21g                   5        9   3s2p
 h                           3-21g                   2        2   2s


      Symmetry analysis of basis
      --------------------------
 
        a'         11
        a"          2
 

 Forming initial guess at       2.8s

 
      Superposition of Atomic Density Guess
      -------------------------------------
 
 Sum of atomic energies:         -75.36108718
 
      Non-variational initial energy
      ------------------------------

 Total energy =     -75.509568
 1-e energy   =    -121.268975
 2-e energy   =      36.683747
 HOMO         =      -0.434098
 LUMO         =       0.158520
 
 
      Symmetry analysis of molecular orbitals - initial
      -------------------------------------------------
 
  Numbering of irreducible representations: 
 
     1 a'          2 a"      
 
  Orbital symmetries:
 
     1 a'          2 a'          3 a'          4 a'          5 a"      
     6 a'          7 a'          8 a'          9 a'         10 a"      
    11 a'         12 a'         13 a'      
 

 Starting SCF solution at       2.8s



 ----------------------------------------------
         Quadratically convergent ROHF

 Convergence threshold     :          1.000E-04
 Maximum no. of iterations :           30
 Final Fock-matrix accuracy:          1.000E-07
 ----------------------------------------------


 #quartets = 1.035D+03 #integrals = 2.447D+03 #direct =  0.0% #cached =100.0%


 Integral file          = ./dimer.aoints.00
 Record size in doubles =    65536    No. of integs per rec  =    43688
 Max. records in memory =        2    Max. records in file   = ********
 No. of bits per label  =        8    No. of bits per value  =       64


File balance: exchanges=     0  moved=     0  time=   0.0


              iter       energy          gnorm     gmax       time
             ----- ------------------- --------- --------- --------
                 1      -75.5507856701  7.98D-01  3.77D-01      2.1
                 2      -75.5830985956  2.14D-01  1.23D-01      2.2
                 3      -75.5858368565  3.03D-02  2.05D-02      2.3
                 4      -75.5859104131  1.07D-04  4.15D-05      2.4
                 5      -75.5859104137  6.36D-06  3.32D-06      2.4


       Final RHF  results 
       ------------------ 

         Total SCF energy =    -75.585910413747
      One-electron energy =   -122.449575394989
      Two-electron energy =     37.788005037039
 Nuclear repulsion energy =      9.075659944204

        Time for solution =      1.8s


 
       Symmetry analysis of molecular orbitals - final
       -----------------------------------------------
 
  Numbering of irreducible representations: 
 
     1 a'          2 a"      
 
  Orbital symmetries:
 
     1 a'          2 a'          3 a'          4 a'          5 a"      
     6 a'          7 a'          8 a'          9 a'         10 a"      
    11 a'         12 a'         13 a'      
 
             Final eigenvalues
             -----------------

              1      
    1  -20.4272
    2   -1.3193
    3   -0.6851
    4   -0.5284
    5   -0.4768
    6    0.2603
    7    0.3598
    8    1.2084
    9    1.2708
   10    1.7842
   11    1.8630
   12    2.0265
   13    3.1012
 
                       ROHF Final Molecular Orbital Analysis
                       -------------------------------------
 
 Vector    2  Occ=2.000000D+00  E=-1.319260D+00  Symmetry=a'
              MO Center= -6.8D-02, -2.7D-03, -7.7D-18, r^2= 5.1D-01
   Bfn.  Coefficient  Atom+Function         Bfn.  Coefficient  Atom+Function  
  ----- ------------  ---------------      ----- ------------  ---------------
     6      0.710426  1 O  s                  1     -0.229899  1 O  s          
     2      0.218120  1 O  s          
 
 Vector    3  Occ=2.000000D+00  E=-6.850967D-01  Symmetry=a'
              MO Center= -1.1D-01,  4.1D-03,  1.6D-18, r^2= 8.2D-01
   Bfn.  Coefficient  Atom+Function         Bfn.  Coefficient  Atom+Function  
  ----- ------------  ---------------      ----- ------------  ---------------
     4      0.395280  1 O  py                 8      0.369821  1 O  py         
    10     -0.232969  2 H  s                 12      0.230672  3 H  s          
    13      0.182903  3 H  s                 11     -0.181406  2 H  s          
 
 Vector    4  Occ=2.000000D+00  E=-5.284446D-01  Symmetry=a'
              MO Center=  2.0D-01, -6.0D-04, -3.6D-16, r^2= 6.5D-01
   Bfn.  Coefficient  Atom+Function         Bfn.  Coefficient  Atom+Function  
  ----- ------------  ---------------      ----- ------------  ---------------
     7      0.515922  1 O  px                 3      0.444800  1 O  px         
     6      0.391922  1 O  s          
 
 Vector    5  Occ=2.000000D+00  E=-4.767977D-01  Symmetry=a"
              MO Center=  1.1D-01, -1.8D-03,  3.6D-16, r^2= 5.4D-01
   Bfn.  Coefficient  Atom+Function         Bfn.  Coefficient  Atom+Function  
  ----- ------------  ---------------      ----- ------------  ---------------
     9      0.632348  1 O  pz                 5      0.521032  1 O  pz         
 
 Vector    6  Occ=0.000000D+00  E= 2.603272D-01  Symmetry=a'
              MO Center= -5.4D-01,  2.7D-02,  7.2D-19, r^2= 2.1D+00
   Bfn.  Coefficient  Atom+Function         Bfn.  Coefficient  Atom+Function  
  ----- ------------  ---------------      ----- ------------  ---------------
     6      1.039273  1 O  s                 13     -0.869870  3 H  s          
    11     -0.848593  2 H  s                  7     -0.457222  1 O  px         
     3     -0.207688  1 O  px         
 
 Vector    7  Occ=0.000000D+00  E= 3.598190D-01  Symmetry=a'
              MO Center= -4.9D-01, -1.9D-02, -8.6D-19, r^2= 2.3D+00
   Bfn.  Coefficient  Atom+Function         Bfn.  Coefficient  Atom+Function  
  ----- ------------  ---------------      ----- ------------  ---------------
    11      1.165835  2 H  s                 13     -1.136502  3 H  s          
     8      0.778104  1 O  py                 4      0.304254  1 O  py         
 
 Vector    8  Occ=0.000000D+00  E= 1.208361D+00  Symmetry=a'
              MO Center= -2.6D-01,  8.3D-02,  1.7D-18, r^2= 1.5D+00
   Bfn.  Coefficient  Atom+Function         Bfn.  Coefficient  Atom+Function  
  ----- ------------  ---------------      ----- ------------  ---------------
    12      1.015649  3 H  s                 10     -0.916406  2 H  s          
    13     -0.712917  3 H  s                 11      0.650782  2 H  s          
     8     -0.431215  1 O  py                 4     -0.202466  1 O  py         
 
 Vector    9  Occ=0.000000D+00  E= 1.270837D+00  Symmetry=a'
              MO Center= -4.8D-01, -6.5D-02,  3.1D-17, r^2= 1.1D+00
   Bfn.  Coefficient  Atom+Function         Bfn.  Coefficient  Atom+Function  
  ----- ------------  ---------------      ----- ------------  ---------------
    10      1.025880  2 H  s                 12      0.918575  3 H  s          
    11     -0.531339  2 H  s                 13     -0.471552  3 H  s          
     7      0.281645  1 O  px                 3      0.249666  1 O  px         
 
 Vector   10  Occ=0.000000D+00  E= 1.784245D+00  Symmetry=a"
              MO Center=  1.1D-01, -1.8D-03,  2.8D-18, r^2= 7.2D-01
   Bfn.  Coefficient  Atom+Function         Bfn.  Coefficient  Atom+Function  
  ----- ------------  ---------------      ----- ------------  ---------------
     5      1.029404  1 O  pz                 9     -0.965030  1 O  pz         
 
 Vector   11  Occ=0.000000D+00  E= 1.862962D+00  Symmetry=a'
              MO Center=  2.7D-01, -1.1D-03, -2.4D-17, r^2= 7.2D-01
   Bfn.  Coefficient  Atom+Function         Bfn.  Coefficient  Atom+Function  
  ----- ------------  ---------------      ----- ------------  ---------------
     7      1.128670  1 O  px                 3     -1.016220  1 O  px         
    10      0.233347  2 H  s                 12      0.233949  3 H  s          
     6     -0.157078  1 O  s          
 
 Vector   12  Occ=0.000000D+00  E= 2.026543D+00  Symmetry=a'
              MO Center=  1.7D-01, -4.2D-03,  1.1D-18, r^2= 8.6D-01
   Bfn.  Coefficient  Atom+Function         Bfn.  Coefficient  Atom+Function  
  ----- ------------  ---------------      ----- ------------  ---------------
     8      1.416937  1 O  py                 4     -1.065779  1 O  py         
    11      0.483770  2 H  s                 13     -0.477789  3 H  s          
    12     -0.174525  3 H  s                 10      0.165948  2 H  s          
 
 Vector   13  Occ=0.000000D+00  E= 3.101186D+00  Symmetry=a'
              MO Center= -5.9D-02, -1.1D-03, -1.3D-17, r^2= 7.4D-01
   Bfn.  Coefficient  Atom+Function         Bfn.  Coefficient  Atom+Function  
  ----- ------------  ---------------      ----- ------------  ---------------
     6      1.963419  1 O  s                  2     -1.637636  1 O  s          
     7     -0.456525  1 O  px                11     -0.363255  2 H  s          
    13     -0.352706  3 H  s                 10     -0.262984  2 H  s          
    12     -0.262460  3 H  s                  3      0.152774  1 O  px         
 
 
                                 Final MO vectors
                                 ----------------
 

 global array: scf_init: MOs[1:13,1:13],  handle: -1000 

            1           2           3           4           5           6  
       ----------- ----------- ----------- ----------- ----------- -----------
   1       0.98322    -0.22990    -0.00113    -0.08528    -0.00000    -0.11045
   2       0.09574     0.21812     0.00071     0.07961     0.00000     0.03639
   3      -0.00342    -0.07836     0.00673     0.44480     0.00000    -0.20769
   4       0.00002    -0.00073     0.39528    -0.00602    -0.00000     0.00711
   5       0.00000    -0.00000    -0.00000    -0.00000     0.52103     0.00000
   6      -0.03761     0.71043     0.00572     0.39192     0.00000     1.03927
   7       0.00636    -0.08922     0.00564     0.51592     0.00000    -0.45722
   8      -0.00000     0.00013     0.36982    -0.00726     0.00000     0.01508
   9       0.00000    -0.00000     0.00000    -0.00000     0.63235     0.00000
  10       0.00243     0.11589    -0.23297    -0.12630    -0.00000    -0.05261
  11       0.00693     0.02057    -0.18141    -0.10567    -0.00000    -0.84859
  12       0.00244     0.11308     0.23067    -0.12819    -0.00000    -0.05509
  13       0.00677     0.02106     0.18290    -0.10972    -0.00000    -0.86987

            7           8           9          10          11          12  
       ----------- ----------- ----------- ----------- ----------- -----------
   1       0.00167     0.00283     0.06520    -0.00000     0.04146    -0.00018
   2      -0.00030    -0.00574    -0.09209     0.00000    -0.12523     0.00177
   3       0.00483     0.01170     0.24967     0.00000    -1.01622    -0.00350
   4       0.30425    -0.20247     0.00752    -0.00000     0.00251    -1.06578
   5       0.00000    -0.00000     0.00000     1.02940     0.00000    -0.00000
   6      -0.02056     0.00539    -0.08673     0.00000    -0.15708    -0.00465
   7       0.01279     0.00345     0.28165    -0.00000     1.12867     0.00660
   8       0.77810    -0.43122     0.03174     0.00000     0.00044     1.41694
   9      -0.00000    -0.00000    -0.00000    -0.96503    -0.00000     0.00000
  10       0.03368    -0.91641     1.02588    -0.00000     0.23335     0.16595
  11       1.16583     0.65078    -0.53134     0.00000     0.09861     0.48377
  12      -0.03517     1.01565     0.91858    -0.00000     0.23395    -0.17452
  13      -1.13650    -0.71292    -0.47155    -0.00000     0.08568    -0.47779

           13  
       -----------
   1       0.08706
   2      -1.63764
   3       0.15277
   4      -0.00155
   5      -0.00000
   6       1.96342
   7      -0.45652
   8       0.00003
   9      -0.00000
  10      -0.26298
  11      -0.36325
  12      -0.26246
  13      -0.35271

 center of mass
 --------------
 x =   0.09455238 y =  -0.00146340 z =   0.00000000

 moments of inertia (a.u.)
 ------------------
           4.434848415769           0.000000000000           0.000000000000
           0.000000000000           2.062804871389           0.000000000000
           0.000000000000           0.000000000000           6.497653287158
 
  Mulliken analysis of the total density
  --------------------------------------

    Atom       Charge   Shell Charges
 -----------   ------   -------------------------------------------------------
    1 O    8     8.73   1.99  0.42  2.10  1.48  2.74
    2 H    1     0.63   0.43  0.20
    3 H    1     0.63   0.43  0.21
 
       Multipole analysis of the density wrt the origin
       ------------------------------------------------
 
     L   x y z        total         open         nuclear
     -   - - -        -----         ----         -------
     0   0 0 0     -0.000000      0.000000     10.000000
 
     1   1 0 0     -0.936045      0.000000      0.000000
     1   0 1 0      0.010179      0.000000      0.000000
     1   0 0 1     -0.000000      0.000000      0.000000
 
     2   2 0 0     -4.382582      0.000000      1.843800
     2   1 1 0      0.007749      0.000000      0.003142
     2   1 0 1     -0.000000      0.000000      0.000000
     2   0 2 0     -2.932257      0.000000      4.400367
     2   0 1 1     -0.000000      0.000000      0.000000
     2   0 0 2     -5.087433      0.000000      0.000000
 

 Parallel integral file used      16 records with       0 large values


 Task  times  cpu:        1.9s     wall:        2.6s
 
 
                                NWChem Input Module
                                -------------------
 
 
                                 NWChem SCF Module
                                 -----------------
 
 
                   Water dimer SCF using fragment initial guess
 
 

  ao basis        = "ao basis"
  functions       =    26
  atoms           =     6
  closed shells   =    10
  open shells     =     0
  charge          =   0.00
  wavefunction    = RHF 
  input vectors   = fragment
  output vectors  = ./dimer.movecs
  use symmetry    = F
  symmetry adapt  = F


 Summary of "ao basis" -> "ao basis" (cartesian)
 ------------------------------------------------------------------------------
       Tag                 Description            Shells   Functions and Types
 ---------------- ------------------------------  ------  ---------------------
 o                           3-21g                   5        9   3s2p
 h                           3-21g                   2        2   2s



 Forming initial guess at       5.4s

 
   Fragment Molecular Orbital Initial Guess
   ----------------------------------------
 
 title    Water dimer SCF using fragment initial guess
 basis    ao basis
 scftype  scf                 
 nbf          13
 nsets         1
 nmo          13
 nclosed       5
 nopen         0
 nvirtual      8

 title    Water dimer SCF using fragment initial guess
 basis    ao basis
 scftype  scf                 
 nbf          13
 nsets         1
 nmo          13
 nclosed       5
 nopen         0
 nvirtual      8


 Starting SCF solution at       5.4s



 ----------------------------------------------
         Quadratically convergent ROHF

 Convergence threshold     :          1.000E-04
 Maximum no. of iterations :           30
 Final Fock-matrix accuracy:          1.000E-07
 ----------------------------------------------


 #quartets = 1.158D+04 #integrals = 4.669D+04 #direct =  0.0% #cached =100.0%


 Integral file          = ./dimer.aoints.00
 Record size in doubles =    65536    No. of integs per rec  =    43688
 Max. records in memory =        2    Max. records in file   = ********
 No. of bits per label  =        8    No. of bits per value  =       64


File balance: exchanges=     0  moved=     0  time=   0.0


              iter       energy          gnorm     gmax       time
             ----- ------------------- --------- --------- --------
                 1     -149.2664420984  2.92D+00  1.40D+00      3.7
                 2     -150.5079926087  2.42D+00  1.31D+00      3.8
                 3     -150.9823824697  1.73D+00  1.25D+00      3.9
                 4     -151.1554318818  7.67D-01  3.02D-01      4.0
                 5     -151.1855088776  1.56D-01  7.02D-02      4.0
                 6     -151.1879138158  1.49D-02  6.84D-03      4.1
                 7     -151.1879521495  8.01D-05  2.39D-05      4.3


       Final RHF  results 
       ------------------ 

         Total SCF energy =   -151.187952149465
      One-electron energy =   -283.055718630611
      Two-electron energy =     94.692632673751
 Nuclear repulsion energy =     37.175133807395

        Time for solution =      1.8s


             Final eigenvalues
             -----------------

              1      
    1  -20.4688
    2  -20.3709
    3   -1.3586
    4   -1.2696
    5   -0.7285
    6   -0.6525
    7   -0.5646
    8   -0.5173
    9   -0.4763
   10   -0.4282
   11    0.2302
   12    0.3286
   13    0.3353
   14    0.5054
   15    1.1898
   16    1.2273
   17    1.2855
   18    1.3356
   19    1.7440
   20    1.8338
 
                       ROHF Final Molecular Orbital Analysis
                       -------------------------------------
 
 Vector    2  Occ=2.000000D+00  E=-2.037094D+01
              MO Center=  6.9D-02, -1.5D+00, -1.3D-02, r^2= 1.5D-02
   Bfn.  Coefficient  Atom+Function         Bfn.  Coefficient  Atom+Function  
  ----- ------------  ---------------      ----- ------------  ---------------
    14      0.983279  4 O  s          
 
 Vector    3  Occ=2.000000D+00  E=-1.358606D+00
              MO Center=  4.9D-02,  1.5D+00, -1.0D-02, r^2= 5.5D-01
   Bfn.  Coefficient  Atom+Function         Bfn.  Coefficient  Atom+Function  
  ----- ------------  ---------------      ----- ------------  ---------------
     6      0.712010  1 O  s                  1     -0.230173  1 O  s          
     2      0.218628  1 O  s          
 
 Vector    4  Occ=2.000000D+00  E=-1.269552D+00
              MO Center= -8.9D-02, -1.4D+00,  1.2D-02, r^2= 5.6D-01
   Bfn.  Coefficient  Atom+Function         Bfn.  Coefficient  Atom+Function  
  ----- ------------  ---------------      ----- ------------  ---------------
    19      0.715599  4 O  s                 14     -0.229744  4 O  s          
    15      0.215291  4 O  s          
 
 Vector    5  Occ=2.000000D+00  E=-7.284562D-01
              MO Center=  5.0D-02,  1.5D+00, -1.4D-02, r^2= 8.9D-01
   Bfn.  Coefficient  Atom+Function         Bfn.  Coefficient  Atom+Function  
  ----- ------------  ---------------      ----- ------------  ---------------
     3      0.368184  1 O  px                 7      0.347810  1 O  px         
    12     -0.231503  3 H  s                 10      0.221827  2 H  s          
    13     -0.169137  3 H  s                 11      0.161760  2 H  s          
 
 Vector    6  Occ=2.000000D+00  E=-6.525420D-01
              MO Center= -8.9D-02, -8.1D-01,  1.5D-02, r^2= 1.9D+00
   Bfn.  Coefficient  Atom+Function         Bfn.  Coefficient  Atom+Function  
  ----- ------------  ---------------      ----- ------------  ---------------
    17      0.311323  4 O  py                21      0.291116  4 O  py         
    25      0.206850  6 H  s                 23     -0.199563  5 H  s          
     8     -0.188632  1 O  py                26      0.180978  6 H  s          
     4     -0.165277  1 O  py                24     -0.163117  5 H  s          
 
 Vector    7  Occ=2.000000D+00  E=-5.645803D-01
              MO Center= -5.3D-02,  5.1D-01,  2.1D-02, r^2= 2.1D+00
   Bfn.  Coefficient  Atom+Function         Bfn.  Coefficient  Atom+Function  
  ----- ------------  ---------------      ----- ------------  ---------------
     8      0.411965  1 O  py                 4      0.361075  1 O  py         
     6     -0.323838  1 O  s                 19      0.181279  4 O  s          
    20      0.172937  4 O  px                16      0.165937  4 O  px         
 
 Vector    8  Occ=2.000000D+00  E=-5.172689D-01
              MO Center= -8.8D-03,  1.3D+00,  1.4D-02, r^2= 6.1D-01
   Bfn.  Coefficient  Atom+Function         Bfn.  Coefficient  Atom+Function  
  ----- ------------  ---------------      ----- ------------  ---------------
     9      0.619874  1 O  pz                 5      0.513121  1 O  pz         
 
 Vector    9  Occ=2.000000D+00  E=-4.763464D-01
              MO Center=  1.3D-01, -1.4D+00, -2.5D-02, r^2= 1.1D+00
   Bfn.  Coefficient  Atom+Function         Bfn.  Coefficient  Atom+Function  
  ----- ------------  ---------------      ----- ------------  ---------------
    20      0.425432  4 O  px                16      0.360025  4 O  px         
    19      0.335297  4 O  s                 21     -0.296725  4 O  py         
    17     -0.244603  4 O  py         
 
 Vector   10  Occ=2.000000D+00  E=-4.281521D-01
              MO Center=  6.9D-02, -1.5D+00, -1.4D-02, r^2= 5.5D-01
   Bfn.  Coefficient  Atom+Function         Bfn.  Coefficient  Atom+Function  
  ----- ------------  ---------------      ----- ------------  ---------------
    22      0.626257  4 O  pz                18      0.508822  4 O  pz         
 
 Vector   11  Occ=0.000000D+00  E= 2.301643D-01
              MO Center=  1.1D-01,  1.7D+00, -6.4D-02, r^2= 2.7D+00
   Bfn.  Coefficient  Atom+Function         Bfn.  Coefficient  Atom+Function  
  ----- ------------  ---------------      ----- ------------  ---------------
     6      1.040120  1 O  s                 13     -0.862532  3 H  s          
    11     -0.773213  2 H  s                  8      0.364968  1 O  py         
    19      0.247148  4 O  s                 26     -0.211578  6 H  s          
    24     -0.171417  5 H  s                  4      0.160923  1 O  py         
 
 Vector   12  Occ=0.000000D+00  E= 3.286383D-01
              MO Center= -8.0D-01, -1.6D+00,  1.4D-01, r^2= 2.4D+00
   Bfn.  Coefficient  Atom+Function         Bfn.  Coefficient  Atom+Function  
  ----- ------------  ---------------      ----- ------------  ---------------
    24      1.259242  5 H  s                 19     -0.926169  4 O  s          
    20      0.505955  4 O  px                26      0.282429  6 H  s          
    13     -0.253552  3 H  s                 16      0.215113  4 O  px         
     6      0.174497  1 O  s                  8      0.160021  1 O  py         
 
 Vector   13  Occ=0.000000D+00  E= 3.353431D-01
              MO Center=  2.8D-01,  1.8D+00, -4.5D-02, r^2= 2.4D+00
   Bfn.  Coefficient  Atom+Function         Bfn.  Coefficient  Atom+Function  
  ----- ------------  ---------------      ----- ------------  ---------------
    11      1.197003  2 H  s                 13     -1.099295  3 H  s          
     7     -0.735912  1 O  px                 3     -0.287679  1 O  px         
     8      0.217844  1 O  py         
 
 Vector   14  Occ=0.000000D+00  E= 5.053666D-01
              MO Center= -1.6D-01, -5.0D-01, -6.8D-03, r^2= 2.2D+00
   Bfn.  Coefficient  Atom+Function         Bfn.  Coefficient  Atom+Function  
  ----- ------------  ---------------      ----- ------------  ---------------
    26      1.522387  6 H  s                 21     -0.719498  4 O  py         
    24     -0.699561  5 H  s                 19     -0.474099  4 O  s          
     8      0.330565  1 O  py                17     -0.291679  4 O  py         
    13     -0.269587  3 H  s                 11     -0.193415  2 H  s          
     4      0.186529  1 O  py                20     -0.178728  4 O  px         
 
 Vector   15  Occ=0.000000D+00  E= 1.189773D+00
              MO Center=  6.9D-02,  1.4D+00, -2.4D-02, r^2= 2.2D+00
   Bfn.  Coefficient  Atom+Function         Bfn.  Coefficient  Atom+Function  
  ----- ------------  ---------------      ----- ------------  ---------------
    10      0.936255  2 H  s                 12     -0.925099  3 H  s          
    11     -0.652001  2 H  s                 13      0.647558  3 H  s          
     7     -0.403666  1 O  px                23     -0.324334  5 H  s          
    25      0.195167  6 H  s                  3     -0.171112  1 O  px         
    24      0.165684  5 H  s          
 
 Vector   16  Occ=0.000000D+00  E= 1.227325D+00
              MO Center=  4.1D-02,  1.5D+00, -6.4D-02, r^2= 2.1D+00
   Bfn.  Coefficient  Atom+Function         Bfn.  Coefficient  Atom+Function  
  ----- ------------  ---------------      ----- ------------  ---------------
    12      0.994098  3 H  s                 10      0.808093  2 H  s          
    13     -0.515634  3 H  s                 25      0.445878  6 H  s          
    11     -0.366808  2 H  s                 26     -0.336606  6 H  s          
     8     -0.319136  1 O  py                23     -0.245503  5 H  s          
     4     -0.200903  1 O  py                24      0.199580  5 H  s          
 
 Vector   17  Occ=0.000000D+00  E= 1.285501D+00
              MO Center= -3.6D-01, -1.3D+00,  9.5D-02, r^2= 2.8D+00
   Bfn.  Coefficient  Atom+Function         Bfn.  Coefficient  Atom+Function  
  ----- ------------  ---------------      ----- ------------  ---------------
    23      1.216573  5 H  s                 24     -0.796011  5 H  s          
    10      0.541534  2 H  s                 26      0.461141  6 H  s          
    11     -0.384623  2 H  s                 25     -0.367564  6 H  s          
    20      0.274684  4 O  px                21      0.233340  4 O  py         
    16      0.176896  4 O  px         
 
 Vector   18  Occ=0.000000D+00  E= 1.335560D+00
              MO Center= -1.5D-01, -5.9D-01,  6.6D-03, r^2= 1.5D+00
   Bfn.  Coefficient  Atom+Function         Bfn.  Coefficient  Atom+Function  
  ----- ------------  ---------------      ----- ------------  ---------------
    25      1.255434  6 H  s                 26     -0.899401  6 H  s          
    23      0.492909  5 H  s                 10     -0.309888  2 H  s          
    11      0.243886  2 H  s                 21     -0.233620  4 O  py         
    12     -0.179650  3 H  s                 16      0.157294  4 O  px         
 
 Vector   19  Occ=0.000000D+00  E= 1.744031D+00
              MO Center= -8.4D-03,  1.2D+00,  2.0D-02, r^2= 9.0D-01
   Bfn.  Coefficient  Atom+Function         Bfn.  Coefficient  Atom+Function  
  ----- ------------  ---------------      ----- ------------  ---------------
     5      1.009242  1 O  pz                 9     -0.948757  1 O  pz         
    18      0.156473  4 O  pz         
 
 Vector   20  Occ=0.000000D+00  E= 1.833818D+00
              MO Center=  6.7D-02, -1.4D+00, -1.5D-02, r^2= 9.1D-01
   Bfn.  Coefficient  Atom+Function         Bfn.  Coefficient  Atom+Function  
  ----- ------------  ---------------      ----- ------------  ---------------
    18      1.000800  4 O  pz                22     -0.934309  4 O  pz         
    16      0.191997  4 O  px                20     -0.179941  4 O  px         
 
 
                                 Final MO vectors
                                 ----------------
 

 global array: scf_init: MOs[1:26,1:26],  handle: -1000 

            1           2           3           4           5           6  
       ----------- ----------- ----------- ----------- ----------- -----------
   1       0.98324    -0.00221    -0.23017     0.01601    -0.00157    -0.02433
   2       0.09617     0.00066     0.21863    -0.01646     0.00106     0.02264
   3       0.00104    -0.00007     0.02570    -0.00229     0.36818    -0.10784
   4       0.00248    -0.00099     0.06845    -0.01091    -0.14268    -0.16528
   5      -0.00038     0.00001    -0.00891     0.00066     0.05082    -0.00525
   6      -0.03829    -0.00149     0.71201    -0.04934     0.00810     0.10825
   7      -0.00206     0.00009     0.02892    -0.00251     0.34781    -0.11117
   8      -0.00412     0.00356     0.07799    -0.01977    -0.13943    -0.18863
   9       0.00068    -0.00005    -0.01006     0.00088     0.04796    -0.00534
  10       0.00256     0.00034     0.11349    -0.01035     0.22183    -0.08504
  11       0.00631    -0.00113     0.01573     0.00184     0.16176    -0.06052
  12       0.00210    -0.00054     0.11315    -0.00946    -0.23150    -0.02415
  13       0.00658    -0.00069     0.01781    -0.00086    -0.16914    -0.01404
  14       0.00238     0.98328    -0.01387    -0.22974     0.00375     0.00576
  15       0.00114     0.09647     0.01466     0.21529    -0.00422    -0.00452
  16       0.00005    -0.00291    -0.00382    -0.06761     0.01487     0.14352
  17       0.00046     0.00186     0.00557     0.03563     0.03466     0.31132
  18      -0.00002     0.00045     0.00055     0.01089    -0.00244    -0.03325
  19      -0.00281    -0.03971     0.03475     0.71560    -0.01222    -0.02558
  20      -0.00013     0.00547    -0.00409    -0.07475     0.01572     0.13125
  21      -0.00202    -0.00444     0.00106     0.04473     0.03538     0.29112
  22       0.00007    -0.00083     0.00084     0.01186    -0.00180    -0.03039
  23       0.00028     0.00265     0.00640     0.11642    -0.02199    -0.19956
  24      -0.00116     0.00602    -0.00127     0.02681    -0.01576    -0.16312
  25      -0.00038     0.00205     0.01577     0.10932     0.02745     0.20685
  26       0.00471     0.01055     0.01911     0.00874     0.01563     0.18098

            7           8           9          10          11          12  
       ----------- ----------- ----------- ----------- ----------- -----------
   1       0.07043    -0.00174    -0.02523     0.00073    -0.11481    -0.01207
   2      -0.06532     0.00201     0.02452    -0.00062     0.04569    -0.00623
   3       0.12583    -0.04643    -0.03090     0.00069     0.04860     0.01147
   4       0.36108     0.07013    -0.11354     0.00034     0.16092     0.09217
   5      -0.05751     0.51312    -0.02408    -0.01968    -0.02402    -0.00539
   6      -0.32384     0.00690     0.11722    -0.00413     1.04012     0.17450
   7       0.14859    -0.05591    -0.03651     0.00185     0.10832     0.01270
   8       0.41197     0.08483    -0.12461    -0.00173     0.36497     0.16002
   9      -0.06709     0.61987    -0.03094    -0.01947    -0.05275    -0.01318
  10       0.10129    -0.00183    -0.02776    -0.00114    -0.05647    -0.01850
  11       0.09154     0.00025    -0.02502     0.00276    -0.77321    -0.14011
  12       0.11231    -0.00148    -0.03558     0.00281    -0.06403     0.00121
  13       0.08903    -0.00165    -0.03762     0.00175    -0.86253    -0.25355
  14      -0.03430    -0.00817    -0.07564     0.00011    -0.02905     0.09796
  15       0.02491     0.00686     0.07239    -0.00021     0.01349    -0.03372
  16       0.16594     0.03836     0.36003     0.08818    -0.03650     0.21511
  17       0.12876     0.00590    -0.24460     0.01417     0.05780     0.03680
  18      -0.03467     0.00817    -0.05597     0.50882     0.00688    -0.03801
  19       0.18128     0.03980     0.33530     0.00003     0.24715    -0.92617
  20       0.17294     0.04193     0.42543     0.10886    -0.08722     0.50596
  21       0.13779     0.00491    -0.29672     0.01803     0.09039     0.11479
  22      -0.03735     0.01440    -0.06582     0.62626     0.01404    -0.09144
  23      -0.13728    -0.02183    -0.10675     0.00040    -0.01618     0.04578
  24      -0.11056    -0.01754    -0.09918     0.00064    -0.17142     1.25924
  25       0.05785    -0.00073    -0.12899     0.00035    -0.01990     0.04134
  26      -0.02936    -0.00776    -0.05750    -0.00176    -0.21158     0.28243

           13          14          15          16          17          18  
       ----------- ----------- ----------- ----------- ----------- -----------
   1       0.00392     0.02071     0.00245     0.05683     0.02700    -0.02611
   2      -0.00001    -0.04439    -0.01111    -0.07894    -0.04784     0.03596
   3      -0.28768     0.03999    -0.17111    -0.06105    -0.06942     0.00182
   4       0.08012     0.18653     0.11799    -0.20090     0.01601     0.08852
   5      -0.03791     0.00073    -0.02505     0.02636     0.00861    -0.00236
   6      -0.04744     0.00534     0.00257    -0.06609    -0.04736     0.07371
   7      -0.73591     0.06552    -0.40367    -0.05789    -0.11465     0.05457
   8       0.21784     0.33056     0.10015    -0.31914    -0.01751    -0.11020
   9      -0.09744    -0.00427    -0.05411     0.03484    -0.00900    -0.00599
  10       0.04651    -0.04902     0.93625     0.80809     0.54153    -0.30989
  11       1.19700    -0.19341    -0.65200    -0.36681    -0.38462     0.24389
  12      -0.04138     0.04274    -0.92510     0.99410     0.03996    -0.17965
  13      -1.09929    -0.26959     0.64756    -0.51563     0.01902     0.13693
  14      -0.00511     0.05289     0.00012     0.00438     0.03507     0.04972
  15       0.00043    -0.03478    -0.00289    -0.00339    -0.05503    -0.05747
  16      -0.01200    -0.06088    -0.01651    -0.00434     0.17690     0.15729
  17       0.00749    -0.29168    -0.05543    -0.06409     0.05503    -0.11877
  18       0.00085     0.01981     0.01324     0.00193    -0.02868    -0.02737
  19       0.05376    -0.47410    -0.03214     0.00643    -0.08477    -0.02569
  20      -0.01893    -0.17873    -0.09674    -0.05086     0.27468     0.14907
  21       0.02019    -0.71950    -0.13345    -0.14223     0.23334    -0.23362
  22       0.00173     0.05094     0.01551     0.01324    -0.05674    -0.01785
  23       0.00168    -0.03004    -0.32433    -0.24550     1.21657     0.49291
  24      -0.03458    -0.69956     0.16568     0.19958    -0.79601    -0.13291
  25      -0.01418     0.09804     0.19517     0.44588    -0.36756     1.25543
  26      -0.05765     1.52239    -0.00692    -0.33661     0.46114    -0.89940

           19          20          21          22          23          24  
       ----------- ----------- ----------- ----------- ----------- -----------
   1      -0.00424    -0.00037    -0.01906    -0.02214     0.01015    -0.00040
   2       0.01306     0.00002     0.05589     0.05607    -0.02420     0.08678
   3      -0.10722     0.03294    -0.23802    -0.70330    -0.74964    -0.01736
   4       0.05632    -0.04920    -0.43887    -0.45845     0.56937     0.56037
   5       1.00924    -0.14806     0.02843    -0.06361    -0.11355    -0.03159
   6       0.01419     0.00315     0.08285     0.12480    -0.06339    -0.18366
   7       0.10417    -0.03589     0.28028     0.87188     1.04201     0.06084
   8      -0.04331     0.05376     0.50447     0.53334    -0.73617    -0.85542
   9      -0.94876     0.14314    -0.03393     0.07111     0.16110     0.05665
  10      -0.02500    -0.00789    -0.11483    -0.16737    -0.12062     0.03947
  11       0.00268     0.01740    -0.09784    -0.38244    -0.33577     0.10127
  12      -0.01897    -0.00226    -0.10475    -0.10029     0.23856     0.20807
  13      -0.01385    -0.02006    -0.01909     0.17352     0.43951     0.21392
  14      -0.00074     0.00054    -0.02195     0.03696    -0.02457    -0.03229
  15       0.00354    -0.00317     0.04403    -0.15174     0.11122     0.21676
  16      -0.00045     0.19200     0.67294    -0.58053     0.34083    -0.34908
  17       0.02094     0.00862    -0.58433    -0.08962     0.29634    -0.81884
  18       0.15647     1.00080    -0.13252     0.10149    -0.03457     0.09690
  19      -0.00063     0.00022     0.10332    -0.10163     0.04268    -0.03426
  20      -0.00032    -0.17994    -0.72952     0.66302    -0.42428     0.50679
  21      -0.01302    -0.01253     0.59378     0.06221    -0.30537     1.21702
  22      -0.14033    -0.93431     0.14108    -0.11503     0.04939    -0.13613
  23      -0.00969     0.00092    -0.15031     0.17796    -0.14599     0.09380
  24       0.02022    -0.00708    -0.07391     0.10293    -0.09939     0.58862
  25      -0.00004     0.00064    -0.19807     0.04817    -0.03020    -0.09674
  26      -0.01875     0.01094     0.04415     0.17788    -0.04265    -0.87029

           25          26  
       ----------- -----------
   1       0.07690     0.03673
   2      -1.44365    -0.79759
   3      -0.04542    -0.01123
   4      -0.14755     0.15245
   5       0.01492     0.00396
   6       1.73742     0.95910
   7       0.13338     0.07386
   8       0.41304    -0.26030
   9      -0.04553    -0.00919
  10      -0.22886    -0.14285
  11      -0.32447    -0.05829
  12      -0.23707    -0.02143
  13      -0.32901    -0.07866
  14      -0.04354     0.06368
  15       0.75001    -1.45982
  16      -0.07627     0.08770
  17      -0.01082    -0.17859
  18       0.01266    -0.00871
  19      -0.86026     1.91698
  20       0.21012    -0.29763
  21      -0.00870     0.46667
  22      -0.03518     0.03709
  23       0.11935    -0.25380
  24       0.21878    -0.14554
  25       0.13861    -0.18252
  26       0.03566    -0.81929

 center of mass
 --------------
 x =   0.02524132 y =  -0.06614476 z =  -0.00133365

 moments of inertia (a.u.)
 ------------------
         260.087678710197           0.000000000000           0.000000000000
           0.000000000000           6.842440823089           0.000000000000
           0.000000000000           0.000000000000         266.551609254611
 
  Mulliken analysis of the total density
  --------------------------------------

    Atom       Charge   Shell Charges
 -----------   ------   -------------------------------------------------------
    1 O    8     8.73   1.99  0.41  2.12  1.47  2.75
    2 H    1     0.60   0.42  0.18
    3 H    1     0.61   0.42  0.18
    4 O    8     8.80   1.99  0.41  2.11  1.49  2.80
    5 H    1     0.66   0.44  0.22
    6 H    1     0.60   0.40  0.19
 
       Multipole analysis of the density wrt the origin
       ------------------------------------------------
 
     L   x y z        total         open         nuclear
     -   - - -        -----         ----         -------
     0   0 0 0     -0.000000      0.000000     20.000000
 
     1   1 0 0     -0.468064      0.000000      0.000000
     1   0 1 0      1.643991      0.000000     -0.000000
     1   0 0 1      0.016250      0.000000     -0.000000
 
     2   2 0 0     -7.008478      0.000000      6.486184
     2   1 1 0      3.128571      0.000000      3.141136
     2   1 0 1      0.048777      0.000000      0.027091
     2   0 2 0     -5.470185      0.000000    148.944861
     2   0 1 1     -0.949670      0.000000     -0.910772
     2   0 0 2    -10.085352      0.000000      0.180143
 

 Parallel integral file used      16 records with       0 large values


 Task  times  cpu:        1.8s     wall:        2.7s
 
 
                                NWChem Input Module
                                -------------------
 
 
 Summary of allocated global arrays
-----------------------------------
  No active global arrays



                         GA Statistics for process    0
                         ------------------------------

       create   destroy   get      put      acc     scatter   gather  read&inc
calls:  887      887     3889     1685     3953        0        0      138     
number of processes/call 1.78e+00 1.65e+00 1.33e+00 0.00e+00 0.00e+00
bytes total:             3.28e+06 2.09e+06 7.05e+05 0.00e+00 0.00e+00 1.10e+03
bytes remote:            4.42e+05 1.50e+05 2.30e+05 0.00e+00 0.00e+00 0.00e+00
Max memory consumed for GA by this process: 41000 bytes
 
MA_summarize_allocated_blocks: starting scan ...
MA_summarize_allocated_blocks: scan completed: 0 heap blocks, 0 stack blocks
MA usage statistics:

	allocation statistics:
					      heap	     stack
					      ----	     -----
	current number of blocks	         0	         0
	maximum number of blocks	        18	        14
	current total bytes		         0	         0
	maximum total bytes		   1059768	  22509432
	maximum total K-bytes		      1060	     22510
	maximum total M-bytes		         2	        23
 
 
                                     CITATION
                                     --------
                Please cite the following reference when publishing
                           results obtained with NWChem:
 
                 M. Valiev, E.J. Bylaska, N. Govind, K. Kowalski,
              T.P. Straatsma, H.J.J. van Dam, D. Wang, J. Nieplocha,
                        E. Apra, T.L. Windus, W.A. de Jong
                 "NWChem: a comprehensive and scalable open-source
                  solution for large scale molecular simulations"
                      Comput. Phys. Commun. 181, 1477 (2010)
                           doi:10.1016/j.cpc.2010.04.018
 
                                      AUTHORS
                                      -------
          E. Apra, E. J. Bylaska, W. A. de Jong, N. Govind, K. Kowalski,
       T. P. Straatsma, M. Valiev, H. J. J. van Dam, D. Wang, T. L. Windus,
        J. Hammond, J. Autschbach, K. Bhaskaran-Nair, J. Brabec, K. Lopata,
       S. A. Fischer, S. Krishnamoorthy, W. Ma, M. Klemm, O. Villa, Y. Chen,
    V. Anisimov, F. Aquino, S. Hirata, M. T. Hackler, T. Risthaus, M. Malagoli,
       A. Marenich, A. Otero-de-la-Roza, J. Mullin, P. Nichols, R. Peverati,
     J. Pittner, Y. Zhao, P.-D. Fan, A. Fonari, M. Williamson, R. J. Harrison,
       J. R. Rehr, M. Dupuis, D. Silverstein, D. M. A. Smith, J. Nieplocha,
        V. Tipparaju, M. Krishnan, B. E. Van Kuiken, A. Vazquez-Mayagoitia,
        L. Jensen, M. Swart, Q. Wu, T. Van Voorhis, A. A. Auer, M. Nooijen,
      L. D. Crosby, E. Brown, G. Cisneros, G. I. Fann, H. Fruchtl, J. Garza,
        K. Hirao, R. A. Kendall, J. A. Nichols, K. Tsemekhman, K. Wolinski,
     J. Anchell, D. E. Bernholdt, P. Borowski, T. Clark, D. Clerc, H. Dachsel,
   M. J. O. Deegan, K. Dyall, D. Elwood, E. Glendening, M. Gutowski, A. C. Hess,
         J. Jaffe, B. G. Johnson, J. Ju, R. Kobayashi, R. Kutteh, Z. Lin,
   R. Littlefield, X. Long, B. Meng, T. Nakajima, S. Niu, L. Pollack, M. Rosing,
   K. Glaesemann, G. Sandrone, M. Stave, H. Taylor, G. Thomas, J. H. van Lenthe,
                               A. T. Wong, Z. Zhang.

 Total times  cpu:        4.3s     wall:        8.1s
