 argument  1 = naproxen_355.9_139.inp
 


============================== echo of input deck ==============================
echo
start naproxen_355.9_139.inp
title "naproxen roa calculations at 355.9 nm"
charge 0



geometry units angstrom nocenter noautoz noautosym nucleus point;symmetry c1
 O -2.052486 -0.722196 -0.456021
 C -0.670504 -0.647436 -0.541410
 C -0.120087  0.624979 -0.436892
 C  1.280283  0.811762 -0.510717
 C  1.888466  2.102010 -0.404457
 C  3.258268  2.246366 -0.480122
 C  4.122993  1.120755 -0.673298
 C  3.550496 -0.134898 -0.772194
 C  2.136723 -0.334359 -0.697657
 C  0.170442 -1.777051 -0.724119
 C  5.635436  1.351756 -0.763320
 C  6.329406  0.807963  0.491714
 O  6.541379 -0.550427  0.437612
 O  6.660021  1.475200  1.450930
 C  6.257624  0.812497 -2.075515
 H  5.790178  2.436218 -0.714500
 H  5.784874  1.305490 -2.933962
 H  6.122101 -0.269022 -2.178425
 H  7.334413  1.025227 -2.107700
 H  6.954614 -0.798132  1.292094
 H  1.250051  2.973954 -0.260437
 H  3.693222  3.242204 -0.391080
 H  4.198293 -1.001975 -0.901984
 C  1.539200 -1.608870 -0.798535
 H -0.243261 -2.778081 -0.807256
 H  2.186075 -2.474652 -0.938937
 H -0.791793  1.470944 -0.296039
 C -2.678369 -2.008156 -0.553277
 H -2.366524 -2.682991  0.258561
 H -2.489818 -2.488118 -1.525834
 H -3.749492 -1.805979 -0.457208
end

basis spherical
* library def2-TZVP
end

 set prop:newaoresp 1
 set aor:roadata T
 set cphf:maxsub 100
 set cphf:acc 1.0d-10
 set cphf:maxiter 100

property
    response 1   0.128023
    bdtensor
    convergence 1e-7
    damping 0.0037
    giao
end

dft
 direct
 mult 1
 xc becke88 lyp
 iterations 250
 tolerances tight
 grid xfine
 convergence nolevelshifting
 convergence energy 1e-6
 convergence gradient 1e-6


end

task dft gradient
task dft property
================================================================================


                                         
                                         
 
 
              Northwest Computational Chemistry Package (NWChem) 6.8
              ------------------------------------------------------
 
 
                    Environmental Molecular Sciences Laboratory
                       Pacific Northwest National Laboratory
                                Richland, WA 99352
 
                              Copyright (c) 1994-2017
                       Pacific Northwest National Laboratory
                            Battelle Memorial Institute
 
             NWChem is an open-source computational chemistry package
                        distributed under the terms of the
                      Educational Community License (ECL) 2.0
             A copy of the license is included with this distribution
                              in the LICENSE.TXT file
 
                                  ACKNOWLEDGMENT
                                  --------------

            This software and its documentation were developed at the
            EMSL at Pacific Northwest National Laboratory, a multiprogram
            national laboratory, operated for the U.S. Department of Energy
            by Battelle under Contract Number DE-AC05-76RL01830. Support
            for this work was provided by the Department of Energy Office
            of Biological and Environmental Research, Office of Basic
            Energy Sciences, and the Office of Advanced Scientific Computing.


           Job information
           ---------------

    hostname        = cpn-f15-37.cbls.ccr.buffalo.edu
    program         = /util/academic/nwchem/nwchem-6.8/bin/LINUX64/nwchem
    date            = Thu Feb 28 14:58:29 2019

    compiled        = Tue_Nov_06_14:59:08_2018
    source          = /util/academic/nwchem/nwchem-6.8
    nwchem branch   = 6.8
    nwchem revision = v6.8-47-gdf6c956
    ga revision     = ga-5.6.3
    use scalapack   = F
    input           = naproxen_355.9_139.inp
    prefix          = naproxen_355.9_139.inp.
    data base       = ./naproxen_355.9_139.inp.db
    status          = startup
    nproc           =       11
    time left       =     -1s



           Memory information
           ------------------

    heap     =   13107194 doubles =    100.0 Mbytes
    stack    =   13107199 doubles =    100.0 Mbytes
    global   =   26214400 doubles =    200.0 Mbytes (distinct from heap & stack)
    total    =   52428793 doubles =    400.0 Mbytes
    verify   = yes
    hardfail = no 


           Directory information
           ---------------------
 
  0 permanent = .
  0 scratch   = .
 
 
 
 
                                NWChem Input Module
                                -------------------
 
 
                       naproxen roa calculations at 355.9 nm
                       -------------------------------------

 Scaling coordinates for geometry "geometry" by  1.889725989
 (inverse scale =  0.529177249)

 
 
                             Geometry "geometry" -> ""
                             -------------------------
 
 Output coordinates in angstroms (scale by  1.889725989 to convert to a.u.)
 
  No.       Tag          Charge          X              Y              Z
 ---- ---------------- ---------- -------------- -------------- --------------
    1 O                    8.0000    -2.05248600    -0.72219600    -0.45602100
    2 C                    6.0000    -0.67050400    -0.64743600    -0.54141000
    3 C                    6.0000    -0.12008700     0.62497900    -0.43689200
    4 C                    6.0000     1.28028300     0.81176200    -0.51071700
    5 C                    6.0000     1.88846600     2.10201000    -0.40445700
    6 C                    6.0000     3.25826800     2.24636600    -0.48012200
    7 C                    6.0000     4.12299300     1.12075500    -0.67329800
    8 C                    6.0000     3.55049600    -0.13489800    -0.77219400
    9 C                    6.0000     2.13672300    -0.33435900    -0.69765700
   10 C                    6.0000     0.17044200    -1.77705100    -0.72411900
   11 C                    6.0000     5.63543600     1.35175600    -0.76332000
   12 C                    6.0000     6.32940600     0.80796300     0.49171400
   13 O                    8.0000     6.54137900    -0.55042700     0.43761200
   14 O                    8.0000     6.66002100     1.47520000     1.45093000
   15 C                    6.0000     6.25762400     0.81249700    -2.07551500
   16 H                    1.0000     5.79017800     2.43621800    -0.71450000
   17 H                    1.0000     5.78487400     1.30549000    -2.93396200
   18 H                    1.0000     6.12210100    -0.26902200    -2.17842500
   19 H                    1.0000     7.33441300     1.02522700    -2.10770000
   20 H                    1.0000     6.95461400    -0.79813200     1.29209400
   21 H                    1.0000     1.25005100     2.97395400    -0.26043700
   22 H                    1.0000     3.69322200     3.24220400    -0.39108000
   23 H                    1.0000     4.19829300    -1.00197500    -0.90198400
   24 C                    6.0000     1.53920000    -1.60887000    -0.79853500
   25 H                    1.0000    -0.24326100    -2.77808100    -0.80725600
   26 H                    1.0000     2.18607500    -2.47465200    -0.93893700
   27 H                    1.0000    -0.79179300     1.47094400    -0.29603900
   28 C                    6.0000    -2.67836900    -2.00815600    -0.55327700
   29 H                    1.0000    -2.36652400    -2.68299100     0.25856100
   30 H                    1.0000    -2.48981800    -2.48811800    -1.52583400
   31 H                    1.0000    -3.74949200    -1.80597900    -0.45720800
 
      Atomic Mass 
      ----------- 
 
      O                 15.994910
      C                 12.000000
      H                  1.007825
 

 Effective nuclear repulsion energy (a.u.)    1121.0539270364

            Nuclear Dipole moment (a.u.) 
            ----------------------------
        X                 Y               Z
 ---------------- ---------------- ----------------
   602.9482703633    37.7559901484  -102.3122840265
 
 
            XYZ format geometry
            -------------------
    31
 geometry
 O                    -2.05248600    -0.72219600    -0.45602100
 C                    -0.67050400    -0.64743600    -0.54141000
 C                    -0.12008700     0.62497900    -0.43689200
 C                     1.28028300     0.81176200    -0.51071700
 C                     1.88846600     2.10201000    -0.40445700
 C                     3.25826800     2.24636600    -0.48012200
 C                     4.12299300     1.12075500    -0.67329800
 C                     3.55049600    -0.13489800    -0.77219400
 C                     2.13672300    -0.33435900    -0.69765700
 C                     0.17044200    -1.77705100    -0.72411900
 C                     5.63543600     1.35175600    -0.76332000
 C                     6.32940600     0.80796300     0.49171400
 O                     6.54137900    -0.55042700     0.43761200
 O                     6.66002100     1.47520000     1.45093000
 C                     6.25762400     0.81249700    -2.07551500
 H                     5.79017800     2.43621800    -0.71450000
 H                     5.78487400     1.30549000    -2.93396200
 H                     6.12210100    -0.26902200    -2.17842500
 H                     7.33441300     1.02522700    -2.10770000
 H                     6.95461400    -0.79813200     1.29209400
 H                     1.25005100     2.97395400    -0.26043700
 H                     3.69322200     3.24220400    -0.39108000
 H                     4.19829300    -1.00197500    -0.90198400
 C                     1.53920000    -1.60887000    -0.79853500
 H                    -0.24326100    -2.77808100    -0.80725600
 H                     2.18607500    -2.47465200    -0.93893700
 H                    -0.79179300     1.47094400    -0.29603900
 C                    -2.67836900    -2.00815600    -0.55327700
 H                    -2.36652400    -2.68299100     0.25856100
 H                    -2.48981800    -2.48811800    -1.52583400
 H                    -3.74949200    -1.80597900    -0.45720800
 
 ==============================================================================
                                internuclear distances
 ------------------------------------------------------------------------------
       center one      |      center two      | atomic units |  angstroms
 ------------------------------------------------------------------------------
    2 C                |   1 O                |     2.62036  |     1.38663
    3 C                |   2 C                |     2.62728  |     1.39030
    4 C                |   3 C                |     2.67339  |     1.41470
    5 C                |   4 C                |     2.70298  |     1.43036
    6 C                |   5 C                |     2.60681  |     1.37946
    7 C                |   6 C                |     2.70704  |     1.43250
    8 C                |   7 C                |     2.61452  |     1.38355
    9 C                |   4 C                |     2.72673  |     1.44292
    9 C                |   8 C                |     2.70178  |     1.42972
   10 C                |   2 C                |     2.68355  |     1.42007
   11 C                |   7 C                |     2.89625  |     1.53263
   12 C                |  11 C                |     2.89838  |     1.53376
   13 O                |  12 C                |     2.60006  |     1.37589
   14 O                |  12 C                |     2.29476  |     1.21433
   15 C                |  11 C                |     2.92741  |     1.54912
   16 H                |  11 C                |     2.07215  |     1.09653
   17 H                |  15 C                |     2.07308  |     1.09703
   18 H                |  15 C                |     2.06892  |     1.09482
   19 H                |  15 C                |     2.07506  |     1.09807
   20 H                |  13 O                |     1.85372  |     0.98095
   21 H                |   5 C                |     2.06024  |     1.09023
   22 H                |   6 C                |     2.06041  |     1.09032
   23 H                |   8 C                |     2.05998  |     1.09010
   24 C                |   9 C                |     2.66685  |     1.41124
   24 C                |  10 C                |     2.60982  |     1.38106
   25 H                |  10 C                |     2.05287  |     1.08633
   26 H                |  24 C                |     2.05949  |     1.08983
   27 H                |   3 C                |     2.05857  |     1.08935
   28 C                |   1 O                |     2.70890  |     1.43349
   29 H                |  28 C                |     2.08018  |     1.10079
   30 H                |  28 C                |     2.08023  |     1.10081
   31 H                |  28 C                |     2.06786  |     1.09426
 ------------------------------------------------------------------------------
                         number of included internuclear distances:         32
 ==============================================================================



 ==============================================================================
                                 internuclear angles
 ------------------------------------------------------------------------------
        center 1       |       center 2       |       center 3       |  degrees
 ------------------------------------------------------------------------------
    2 C                |   1 O                |  28 C                |   118.64
    1 O                |   2 C                |   3 C                |   116.06
    1 O                |   2 C                |  10 C                |   123.73
    3 C                |   2 C                |  10 C                |   120.21
    2 C                |   3 C                |   4 C                |   120.58
    2 C                |   3 C                |  27 H                |   118.45
    4 C                |   3 C                |  27 H                |   120.97
    3 C                |   4 C                |   5 C                |   122.42
    3 C                |   4 C                |   9 C                |   119.30
    5 C                |   4 C                |   9 C                |   118.28
    4 C                |   5 C                |   6 C                |   120.83
    4 C                |   5 C                |  21 H                |   118.83
    6 C                |   5 C                |  21 H                |   120.33
    5 C                |   6 C                |   7 C                |   121.64
    5 C                |   6 C                |  22 H                |   119.16
    7 C                |   6 C                |  22 H                |   119.20
    6 C                |   7 C                |   8 C                |   118.23
    6 C                |   7 C                |  11 C                |   119.02
    8 C                |   7 C                |  11 C                |   122.75
    7 C                |   8 C                |   9 C                |   122.14
    7 C                |   8 C                |  23 H                |   118.98
    9 C                |   8 C                |  23 H                |   118.87
    4 C                |   9 C                |   8 C                |   118.87
    4 C                |   9 C                |  24 C                |   118.38
    8 C                |   9 C                |  24 C                |   122.75
    2 C                |  10 C                |  24 C                |   119.80
    2 C                |  10 C                |  25 H                |   121.15
   24 C                |  10 C                |  25 H                |   119.05
    7 C                |  11 C                |  12 C                |   110.18
    7 C                |  11 C                |  15 C                |   113.18
    7 C                |  11 C                |  16 H                |   106.60
   12 C                |  11 C                |  15 C                |   112.83
   12 C                |  11 C                |  16 H                |   104.50
   15 C                |  11 C                |  16 H                |   108.98
   11 C                |  12 C                |  13 O                |   112.80
   11 C                |  12 C                |  14 O                |   125.08
   13 O                |  12 C                |  14 O                |   122.11
   12 C                |  13 O                |  20 H                |   106.26
   11 C                |  15 C                |  17 H                |   109.47
   11 C                |  15 C                |  18 H                |   111.95
   11 C                |  15 C                |  19 H                |   110.56
   17 H                |  15 C                |  18 H                |   108.48
   17 H                |  15 C                |  19 H                |   108.22
   18 H                |  15 C                |  19 H                |   108.06
    9 C                |  24 C                |  10 C                |   121.72
    9 C                |  24 C                |  26 H                |   118.38
   10 C                |  24 C                |  26 H                |   119.90
    1 O                |  28 C                |  29 H                |   112.10
    1 O                |  28 C                |  30 H                |   112.10
    1 O                |  28 C                |  31 H                |   104.81
   29 H                |  28 C                |  30 H                |   109.62
   29 H                |  28 C                |  31 H                |   109.02
   30 H                |  28 C                |  31 H                |   109.01
 ------------------------------------------------------------------------------
                            number of included internuclear angles:         53
 ==============================================================================



  warning:::::::::::::: from_environment
  NWCHEM_BASIS_LIBRARY set to: <
 /util/academic/nwchem/nwchem-6.8/src/basis/libraries>
  but file does not exist !
  using .nwchemrc or compiled library


 Summary of "ao basis" -> "" (spherical)
 ------------------------------------------------------------------------------
       Tag                 Description            Shells   Functions and Types
 ---------------- ------------------------------  ------  ---------------------
 *                         def2-TZVP                  on all atoms 


 
                                 NWChem DFT Module
                                 -----------------
 
 
                       naproxen roa calculations at 355.9 nm
 
 
                      Basis "ao basis" -> "ao basis" (spherical)
                      -----
  O (Oxygen)
  ----------
            Exponent  Coefficients 
       -------------- ---------------------------------------------------------
  1 S  2.70323826E+04  0.000217
  1 S  4.05238714E+03  0.001684
  1 S  9.22327227E+02  0.008740
  1 S  2.61240710E+02  0.035240
  1 S  8.53546414E+01  0.111535
  1 S  3.10350352E+01  0.255890
 
  2 S  1.22608607E+01  0.397687
  2 S  4.99870760E+00  0.246278
 
  3 S  1.17031082E+00  1.000000
 
  4 S  4.64747410E-01  1.000000
 
  5 S  1.85045364E-01  1.000000
 
  6 P  6.32749548E+01  0.006069
  6 P  1.46270494E+01  0.041913
  6 P  4.45012235E+00  0.161538
  6 P  1.52757996E+00  0.357070
 
  7 P  5.29351179E-01  1.000000
 
  8 P  1.74784213E-01  1.000000
 
  9 D  2.31400000E+00  1.000000
 
 10 D  6.45000000E-01  1.000000
 
 11 F  1.42800000E+00  1.000000
 
  C (Carbon)
  ----------
            Exponent  Coefficients 
       -------------- ---------------------------------------------------------
  1 S  1.35753497E+04  0.000222
  1 S  2.03523337E+03  0.001723
  1 S  4.63225624E+02  0.008926
  1 S  1.31200196E+02  0.035728
  1 S  4.28530159E+01  0.110763
  1 S  1.55841858E+01  0.242956
 
  2 S  6.20671385E+00  0.414403
  2 S  2.57648965E+00  0.237450
 
  3 S  5.76963394E-01  1.000000
 
  4 S  2.29728314E-01  1.000000
 
  5 S  9.51644400E-02  1.000000
 
  6 P  3.46972322E+01  0.005333
  6 P  7.95826228E+00  0.035864
  6 P  2.37808269E+00  0.142159
  6 P  8.14332082E-01  0.342705
 
  7 P  2.88875473E-01  1.000000
 
  8 P  1.00568237E-01  1.000000
 
  9 D  1.09700000E+00  1.000000
 
 10 D  3.18000000E-01  1.000000
 
 11 F  7.61000000E-01  1.000000
 
  H (Hydrogen)
  ------------
            Exponent  Coefficients 
       -------------- ---------------------------------------------------------
  1 S  3.40613410E+01  0.006025
  1 S  5.12357460E+00  0.045021
  1 S  1.16466260E+00  0.201897
 
  2 S  3.27230410E-01  1.000000
 
  3 S  1.03072410E-01  1.000000
 
  4 P  8.00000000E-01  1.000000
 


 Summary of "ao basis" -> "ao basis" (spherical)
 ------------------------------------------------------------------------------
       Tag                 Description            Shells   Functions and Types
 ---------------- ------------------------------  ------  ---------------------
 O                         def2-TZVP                11       31   5s3p2d1f
 C                         def2-TZVP                11       31   5s3p2d1f
 H                         def2-TZVP                 4        6   3s1p




 Summary of "ao basis" -> "ao basis" (spherical)
 ------------------------------------------------------------------------------
       Tag                 Description            Shells   Functions and Types
 ---------------- ------------------------------  ------  ---------------------
 O                         def2-TZVP                11       31   5s3p2d1f
 C                         def2-TZVP                11       31   5s3p2d1f
 H                         def2-TZVP                 4        6   3s1p


  Caching 1-el integrals 
 
            General Information
            -------------------
          SCF calculation type: DFT
          Wavefunction type:  closed shell.
          No. of atoms     :    31
          No. of electrons :   122
           Alpha electrons :    61
            Beta electrons :    61
          Charge           :     0
          Spin multiplicity:     1
          Use of symmetry is: off; symmetry adaption is: off
          Maximum number of iterations: 250
          This is a Direct SCF calculation.
          AO basis - number of functions:   611
                     number of shells:   243
          Convergence on energy requested:  1.00D-06
          Convergence on density requested:  1.00D-05
          Convergence on gradient requested:  1.00D-06
 
              XC Information
              --------------
                    Becke 1988 Exchange Functional  1.000          
              Lee-Yang-Parr Correlation Functional  1.000          
 
             Grid Information
             ----------------
          Grid used for XC integration:  xfine     
          Radial quadrature: Mura-Knowles        
          Angular quadrature: Lebedev. 
          Tag              B.-S. Rad. Rad. Pts. Rad. Cut. Ang. Pts.
          ---              ---------- --------- --------- ---------
          O                   0.60      100          18.0      1454
          C                   0.70      100          20.0      1454
          H                   0.35      100          19.0      1202
          Grid pruning is: on 
          Number of quadrature shells:  3100
          Spatial weights used:  Erf1
 
          Convergence Information
          -----------------------
          Convergence aids based upon iterative change in 
          total energy or number of iterations. 
          Levelshifting, if invoked, occurs when the 
          HOMO/LUMO gap drops below (HL_TOL):  1.00D-02
          DIIS, if invoked, will attempt to extrapolate 
          using up to (NFOCK): 10 stored Fock matrices.

                    Damping( 0%)  Levelshifting(0.0)       DIIS
                  --------------- ------------------- ---------------
          dE  on:    start             N/A                start   
          dE off:    2 iters           N/A              250 iters 

 
      Screening Tolerance Information
      -------------------------------
          Density screening/tol_rho:  1.00D-10
          AO Gaussian exp screening on grid/accAOfunc:  14
          CD Gaussian exp screening on grid/accCDfunc:  20
          XC Gaussian exp screening on grid/accXCfunc:  20
          Schwarz screening/accCoul:  1.00D-08

 
 WARNING : Found     2 linear dependencies 
 S eigenvalue threshold:     1.00000E-05
 Smallest S eigenvalue :     5.93674E-06
 Largest  S eigenvalue :     7.41849E-06
 

 !! The overlap matrix has   2 vectors deemed linearly dependent with
    eigenvalues:
 5.94D-06 7.42D-06
 
 
      Superposition of Atomic Density Guess
      -------------------------------------
 
 Sum of atomic energies:        -758.74884536
 
      Non-variational initial energy
      ------------------------------

 Total energy =    -769.927337
 1-e energy   =   -3254.640617
 2-e energy   =    1363.659354
 HOMO         =      -0.234313
 LUMO         =      -0.059120
 
   Time after variat. SCF:     58.7
   Time prior to 1st pass:     58.7

 Grid_pts file          = ./naproxen_355.9_139.inp.gridpts.00
 Record size in doubles =  12289        No. of grid_pts per rec  =   3070
 Max. records in memory =    148        Max. recs in file   =    776221

 Grid integrated density:     121.999620003987
 Requested integration accuracy:   0.10E-07

           Memory utilization after 1st SCF pass: 
           Heap Space remaining (MW):       11.15            11149714
          Stack Space remaining (MW):       13.10            13102884

   convergence    iter        energy       DeltaE   RMS-Dens  Diis-err    time
 ---------------- ----- ----------------- --------- --------- ---------  ------
 d= 0,ls=0.0,diis     1   -767.2407238263 -1.89D+03  5.44D-03  4.15D+00   140.5
 Grid integrated density:     122.000002032835
 Requested integration accuracy:   0.10E-07
 d= 0,ls=0.0,diis     2   -766.6618006926  5.79D-01  4.10D-03  9.89D+00   220.7
 Grid integrated density:     122.000001994601
 Requested integration accuracy:   0.10E-07
 d= 0,ls=0.0,diis     3   -767.4275205031 -7.66D-01  2.20D-03  2.18D+00   301.2
 Grid integrated density:     122.000002117084
 Requested integration accuracy:   0.10E-07
 d= 0,ls=0.0,diis     4   -767.5763997548 -1.49D-01  1.02D-03  5.74D-01   381.3
 Grid integrated density:     122.000002111608
 Requested integration accuracy:   0.10E-07
 d= 0,ls=0.0,diis     5   -767.6236202154 -4.72D-02  3.19D-04  4.97D-02   461.6
 Grid integrated density:     122.000002083208
 Requested integration accuracy:   0.10E-07
 d= 0,ls=0.0,diis     6   -767.6271334420 -3.51D-03  1.33D-04  1.16D-02   542.0
 Grid integrated density:     122.000002083722
 Requested integration accuracy:   0.10E-07
 d= 0,ls=0.0,diis     7   -767.6285609198 -1.43D-03  5.16D-05  1.48D-03   622.3
 Grid integrated density:     122.000002087157
 Requested integration accuracy:   0.10E-07
 d= 0,ls=0.0,diis     8   -767.6287337567 -1.73D-04  2.00D-05  1.86D-04   702.5
 Grid integrated density:     122.000002087696
 Requested integration accuracy:   0.10E-07
 d= 0,ls=0.0,diis     9   -767.6287573670 -2.36D-05  6.47D-06  1.82D-05   782.7
 Grid integrated density:     122.000002087369
 Requested integration accuracy:   0.10E-07
 d= 0,ls=0.0,diis    10   -767.6287593124 -1.95D-06  2.17D-06  2.37D-06   862.9
 Grid integrated density:     122.000002087305
 Requested integration accuracy:   0.10E-07
 d= 0,ls=0.0,diis    11   -767.6287595536 -2.41D-07  9.47D-07  4.10D-07   943.2


         Total DFT energy =     -767.628759553623
      One electron energy =    -3268.609371904895
           Coulomb energy =     1486.733930357747
    Exchange-Corr. energy =     -106.807245042843
 Nuclear repulsion energy =     1121.053927036369

 Numeric. integr. density =      122.000002087305

     Total iterative time =    884.6s


 
                       DFT Final Molecular Orbital Analysis
                       ------------------------------------
 
 Vector    1  Occ=2.000000D+00  E=-1.882048D+01
              MO Center=  6.5D+00, -5.5D-01,  4.4D-01, r^2= 1.5D-02
   Bfn.  Coefficient  Atom+Function         Bfn.  Coefficient  Atom+Function  
  ----- ------------  ---------------      ----- ------------  ---------------
   374      0.638454  13 O  s               373      0.435410  13 O  s         
   375      0.039877  13 O  s               376     -0.034384  13 O  s         
 
 Vector    2  Occ=2.000000D+00  E=-1.880664D+01
              MO Center= -2.1D+00, -7.2D-01, -4.6D-01, r^2= 1.5D-02
   Bfn.  Coefficient  Atom+Function         Bfn.  Coefficient  Atom+Function  
  ----- ------------  ---------------      ----- ------------  ---------------
     2      0.638268   1 O  s                 1      0.435459   1 O  s         
     3      0.041717   1 O  s                 4     -0.039459   1 O  s         
 
 Vector    3  Occ=2.000000D+00  E=-1.876358D+01
              MO Center=  6.7D+00,  1.5D+00,  1.5D+00, r^2= 1.5D-02
   Bfn.  Coefficient  Atom+Function         Bfn.  Coefficient  Atom+Function  
  ----- ------------  ---------------      ----- ------------  ---------------
   405      0.638439  14 O  s               404      0.435400  14 O  s         
   406      0.040001  14 O  s               407     -0.036689  14 O  s         
 
 Vector    4  Occ=2.000000D+00  E=-1.003485D+01
              MO Center=  6.3D+00,  8.1D-01,  4.9D-01, r^2= 2.8D-02
   Bfn.  Coefficient  Atom+Function         Bfn.  Coefficient  Atom+Function  
  ----- ------------  ---------------      ----- ------------  ---------------
   343      0.606436  12 C  s               342      0.467376  12 C  s         
   344      0.043287  12 C  s         
 
 Vector    5  Occ=2.000000D+00  E=-9.970802D+00
              MO Center= -6.7D-01, -6.5D-01, -5.4D-01, r^2= 2.8D-02
   Bfn.  Coefficient  Atom+Function         Bfn.  Coefficient  Atom+Function  
  ----- ------------  ---------------      ----- ------------  ---------------
    33      0.606529   2 C  s                32      0.467313   2 C  s         
    34      0.047536   2 C  s                35     -0.034211   2 C  s         
   106      0.026316   4 C  py              260     -0.025378   9 C  px        
 
 Vector    6  Occ=2.000000D+00  E=-9.964742D+00
              MO Center= -2.7D+00, -2.0D+00, -5.5D-01, r^2= 2.8D-02
   Bfn.  Coefficient  Atom+Function         Bfn.  Coefficient  Atom+Function  
  ----- ------------  ---------------      ----- ------------  ---------------
   564      0.606997  28 C  s               563      0.467298  28 C  s         
   565      0.040011  28 C  s               567      0.027788  28 C  s         
 
 Vector    7  Occ=2.000000D+00  E=-9.935785D+00
              MO Center=  5.6D+00,  1.4D+00, -7.6D-01, r^2= 2.8D-02
   Bfn.  Coefficient  Atom+Function         Bfn.  Coefficient  Atom+Function  
  ----- ------------  ---------------      ----- ------------  ---------------
   312      0.606562  11 C  s               311      0.467315  11 C  s         
   315      0.092607  11 C  s               314     -0.050777  11 C  s         
   313      0.048453  11 C  s         
 
 Vector    8  Occ=2.000000D+00  E=-9.922304D+00
              MO Center=  4.1D+00,  1.1D+00, -6.7D-01, r^2= 3.4D-02
   Bfn.  Coefficient  Atom+Function         Bfn.  Coefficient  Atom+Function  
  ----- ------------  ---------------      ----- ------------  ---------------
   188      0.606003   7 C  s               187      0.467035   7 C  s         
   189      0.053981   7 C  s               190     -0.052750   7 C  s         
   191      0.043470   7 C  s               159      0.030444   6 C  s         
 
 Vector    9  Occ=2.000000D+00  E=-9.921804D+00
              MO Center=  1.3D+00,  8.1D-01, -5.1D-01, r^2= 3.5D-02
   Bfn.  Coefficient  Atom+Function         Bfn.  Coefficient  Atom+Function  
  ----- ------------  ---------------      ----- ------------  ---------------
    95      0.605768   4 C  s                94      0.466902   4 C  s         
    97     -0.060742   4 C  s                96      0.055499   4 C  s         
   252      0.054958   9 C  s                66      0.035595   3 C  s         
   128      0.032782   5 C  s               315      0.028318  11 C  s         
 
 Vector   10  Occ=2.000000D+00  E=-9.918468D+00
              MO Center=  2.1D+00, -3.4D-01, -7.0D-01, r^2= 3.6D-02
   Bfn.  Coefficient  Atom+Function         Bfn.  Coefficient  Atom+Function  
  ----- ------------  ---------------      ----- ------------  ---------------
   250      0.604941   9 C  s               249      0.466315   9 C  s         
   252     -0.064161   9 C  s                97      0.057456   4 C  s         
   251      0.056580   9 C  s               221      0.039377   8 C  s         
   517      0.036404  24 C  s               515      0.033484  24 C  s         
   514      0.025632  24 C  s         
 
 Vector   11  Occ=2.000000D+00  E=-9.915861D+00
              MO Center=  7.2D-01, -1.7D+00, -7.5D-01, r^2= 4.9D-01
   Bfn.  Coefficient  Atom+Function         Bfn.  Coefficient  Atom+Function  
  ----- ------------  ---------------      ----- ------------  ---------------
   281      0.470218  10 C  s               515      0.382807  24 C  s         
   280      0.362008  10 C  s               514      0.294749  24 C  s         
   282      0.033867  10 C  s               516      0.029020  24 C  s         
   258      0.028333   9 C  py              261     -0.027745   9 C  py        
   253     -0.026804   9 C  s               315      0.025285  11 C  s         
 
 Vector   12  Occ=2.000000D+00  E=-9.915433D+00
              MO Center=  9.9D-01, -1.7D+00, -7.7D-01, r^2= 4.9D-01
   Bfn.  Coefficient  Atom+Function         Bfn.  Coefficient  Atom+Function  
  ----- ------------  ---------------      ----- ------------  ---------------
   515      0.469311  24 C  s               281     -0.383344  10 C  s         
   514      0.361598  24 C  s               280     -0.295324  10 C  s         
   516      0.035673  24 C  s               282     -0.028075  10 C  s         
 
 Vector   13  Occ=2.000000D+00  E=-9.911593D+00
              MO Center=  3.2D+00,  2.2D+00, -4.8D-01, r^2= 7.5D-02
   Bfn.  Coefficient  Atom+Function         Bfn.  Coefficient  Atom+Function  
  ----- ------------  ---------------      ----- ------------  ---------------
   157      0.599197   6 C  s               156      0.461428   6 C  s         
   126      0.094311   5 C  s               125      0.072485   5 C  s         
   158      0.044350   6 C  s         
 
 Vector   14  Occ=2.000000D+00  E=-9.910912D+00
              MO Center=  3.5D+00, -1.3D-01, -7.7D-01, r^2= 3.2D-02
   Bfn.  Coefficient  Atom+Function         Bfn.  Coefficient  Atom+Function  
  ----- ------------  ---------------      ----- ------------  ---------------
   219      0.606129   8 C  s               218      0.466967   8 C  s         
   220      0.047668   8 C  s               252      0.036452   9 C  s         
   315      0.034131  11 C  s         
 
 Vector   15  Occ=2.000000D+00  E=-9.910208D+00
              MO Center=  1.9D+00,  2.1D+00, -4.1D-01, r^2= 7.4D-02
   Bfn.  Coefficient  Atom+Function         Bfn.  Coefficient  Atom+Function  
  ----- ------------  ---------------      ----- ------------  ---------------
   126      0.599151   5 C  s               125      0.461502   5 C  s         
   157     -0.093915   6 C  s               156     -0.072486   6 C  s         
   127      0.045176   5 C  s               106      0.033698   4 C  py        
    97      0.030729   4 C  s                98     -0.027605   4 C  s         
   260     -0.027009   9 C  px        
 
 Vector   16  Occ=2.000000D+00  E=-9.908188D+00
              MO Center=  6.3D+00,  8.1D-01, -2.1D+00, r^2= 2.8D-02
   Bfn.  Coefficient  Atom+Function         Bfn.  Coefficient  Atom+Function  
  ----- ------------  ---------------      ----- ------------  ---------------
   436      0.606868  15 C  s               435      0.467240  15 C  s         
   437      0.042039  15 C  s               439      0.035985  15 C  s         
   438     -0.027555  15 C  s         
 
 Vector   17  Occ=2.000000D+00  E=-9.906393D+00
              MO Center= -1.2D-01,  6.2D-01, -4.4D-01, r^2= 2.8D-02
   Bfn.  Coefficient  Atom+Function         Bfn.  Coefficient  Atom+Function  
  ----- ------------  ---------------      ----- ------------  ---------------
    64      0.606495   3 C  s                63      0.467186   3 C  s         
    65      0.046035   3 C  s               105     -0.033552   4 C  px        
    97      0.027567   4 C  s         
 
 Vector   18  Occ=2.000000D+00  E=-1.003021D+00
              MO Center=  6.6D+00,  2.1D-01,  7.5D-01, r^2= 1.1D+00
   Bfn.  Coefficient  Atom+Function         Bfn.  Coefficient  Atom+Function  
  ----- ------------  ---------------      ----- ------------  ---------------
   376      0.330922  13 O  s               375      0.252546  13 O  s         
   407      0.194122  14 O  s               344      0.189966  12 C  s         
   374     -0.173566  13 O  s               406      0.165837  14 O  s         
   345      0.147041  12 C  s               343     -0.117673  12 C  s         
   405     -0.112682  14 O  s               377      0.103668  13 O  s         
 
 Vector   19  Occ=2.000000D+00  E=-9.639408D-01
              MO Center= -1.9D+00, -8.9D-01, -4.9D-01, r^2= 6.9D-01
   Bfn.  Coefficient  Atom+Function         Bfn.  Coefficient  Atom+Function  
  ----- ------------  ---------------      ----- ------------  ---------------
     4      0.424355   1 O  s                 3      0.309841   1 O  s         
     2     -0.214833   1 O  s                 5      0.137399   1 O  s         
    34      0.124657   2 C  s               565      0.103927  28 C  s         
     1     -0.092345   1 O  s                35      0.088689   2 C  s         
   566      0.080072  28 C  s                37     -0.078348   2 C  px        
 
 Vector   20  Occ=2.000000D+00  E=-9.211644D-01
              MO Center=  6.6D+00,  7.0D-01,  9.7D-01, r^2= 1.3D+00
   Bfn.  Coefficient  Atom+Function         Bfn.  Coefficient  Atom+Function  
  ----- ------------  ---------------      ----- ------------  ---------------
   407      0.324491  14 O  s               376     -0.285422  13 O  s         
   406      0.268009  14 O  s               375     -0.208979  13 O  s         
   405     -0.179695  14 O  s               374      0.142883  13 O  s         
   348      0.138199  12 C  py              408      0.113026  14 O  s         
   377     -0.106696  13 O  s               349      0.105498  12 C  pz        
 
 Vector   21  Occ=2.000000D+00  E=-7.883421D-01
              MO Center=  1.9D+00,  2.7D-01, -6.2D-01, r^2= 3.9D+00
   Bfn.  Coefficient  Atom+Function         Bfn.  Coefficient  Atom+Function  
  ----- ------------  ---------------      ----- ------------  ---------------
   251      0.158963   9 C  s                96      0.155337   4 C  s         
   252      0.142077   9 C  s                97      0.138547   4 C  s         
   220      0.113408   8 C  s               516      0.109063  24 C  s         
   189      0.105904   7 C  s               190      0.104663   7 C  s         
   127      0.102681   5 C  s               250     -0.102589   9 C  s         
 
 Vector   22  Occ=2.000000D+00  E=-7.514057D-01
              MO Center=  2.9D+00,  4.1D-01, -6.8D-01, r^2= 8.1D+00
   Bfn.  Coefficient  Atom+Function         Bfn.  Coefficient  Atom+Function  
  ----- ------------  ---------------      ----- ------------  ---------------
   189      0.163285   7 C  s               190      0.162722   7 C  s         
   314      0.161797  11 C  s               313      0.141072  11 C  s         
   282     -0.117223  10 C  s               158      0.110010   6 C  s         
    34     -0.109017   2 C  s                35     -0.105544   2 C  s         
   188     -0.105449   7 C  s               283     -0.101764  10 C  s         
 
 Vector   23  Occ=2.000000D+00  E=-7.139540D-01
              MO Center=  3.4D+00,  6.9D-01, -7.4D-01, r^2= 9.3D+00
   Bfn.  Coefficient  Atom+Function         Bfn.  Coefficient  Atom+Function  
  ----- ------------  ---------------      ----- ------------  ---------------
   314      0.208794  11 C  s               313      0.168012  11 C  s         
   127     -0.144569   5 C  s               128     -0.128046   5 C  s         
   437      0.126685  15 C  s               438      0.119888  15 C  s         
   282      0.117674  10 C  s               312     -0.110113  11 C  s         
   283      0.107853  10 C  s                97     -0.100924   4 C  s         
 
 Vector   24  Occ=2.000000D+00  E=-6.949997D-01
              MO Center=  1.1D+00, -2.1D-01, -6.2D-01, r^2= 6.2D+00
   Bfn.  Coefficient  Atom+Function         Bfn.  Coefficient  Atom+Function  
  ----- ------------  ---------------      ----- ------------  ---------------
   252     -0.169802   9 C  s                65      0.161120   3 C  s         
   516     -0.156051  24 C  s               251     -0.137533   9 C  s         
    66      0.132439   3 C  s               517     -0.128279  24 C  s         
    35      0.126420   2 C  s               220     -0.123920   8 C  s         
    34      0.113187   2 C  s                97      0.106558   4 C  s         
 
 Vector   25  Occ=2.000000D+00  E=-6.618740D-01
              MO Center=  1.8D+00,  2.2D-01, -7.2D-01, r^2= 1.2D+01
   Bfn.  Coefficient  Atom+Function         Bfn.  Coefficient  Atom+Function  
  ----- ------------  ---------------      ----- ------------  ---------------
    97      0.166649   4 C  s                96      0.151620   4 C  s         
   566      0.137099  28 C  s               190     -0.135987   7 C  s         
   565      0.134356  28 C  s               158     -0.128721   6 C  s         
    35     -0.126597   2 C  s               438      0.119051  15 C  s         
   159     -0.117854   6 C  s               189     -0.117842   7 C  s         
 
 Vector   26  Occ=2.000000D+00  E=-6.553038D-01
              MO Center=  1.1D+00, -2.0D-01, -6.2D-01, r^2= 8.4D+00
   Bfn.  Coefficient  Atom+Function         Bfn.  Coefficient  Atom+Function  
  ----- ------------  ---------------      ----- ------------  ---------------
   283     -0.165246  10 C  s               221      0.156729   8 C  s         
   220      0.155762   8 C  s               282     -0.154709  10 C  s         
   159     -0.134443   6 C  s               566     -0.133680  28 C  s         
   158     -0.132098   6 C  s               128     -0.130506   5 C  s         
   565     -0.127319  28 C  s               127     -0.126524   5 C  s         
 
 Vector   27  Occ=2.000000D+00  E=-6.186335D-01
              MO Center=  7.6D-01, -3.9D-01, -7.7D-01, r^2= 1.4D+01
   Bfn.  Coefficient  Atom+Function         Bfn.  Coefficient  Atom+Function  
  ----- ------------  ---------------      ----- ------------  ---------------
   566      0.200256  28 C  s               565      0.188389  28 C  s         
    66      0.146258   3 C  s               438     -0.132228  15 C  s         
    65      0.129755   3 C  s               190      0.127404   7 C  s         
     4     -0.121655   1 O  s               437     -0.121910  15 C  s         
   564     -0.114600  28 C  s               189      0.110134   7 C  s         
 
 Vector   28  Occ=2.000000D+00  E=-5.966789D-01
              MO Center=  5.4D+00,  4.2D-01, -9.1D-01, r^2= 7.9D+00
   Bfn.  Coefficient  Atom+Function         Bfn.  Coefficient  Atom+Function  
  ----- ------------  ---------------      ----- ------------  ---------------
   438      0.234953  15 C  s               437      0.207642  15 C  s         
   345     -0.157137  12 C  s               344     -0.153127  12 C  s         
   436     -0.130558  15 C  s               314     -0.129326  11 C  s         
   379     -0.111785  13 O  py              318     -0.111112  11 C  pz        
   349      0.095539  12 C  pz              407      0.091988  14 O  s         
 
 Vector   29  Occ=2.000000D+00  E=-5.686912D-01
              MO Center=  2.8D+00,  8.9D-02, -4.3D-01, r^2= 9.7D+00
   Bfn.  Coefficient  Atom+Function         Bfn.  Coefficient  Atom+Function  
  ----- ------------  ---------------      ----- ------------  ---------------
   221      0.156476   8 C  s               517     -0.130426  24 C  s         
   283      0.126143  10 C  s               516     -0.113866  24 C  s         
    66     -0.113012   3 C  s               159     -0.110013   6 C  s         
   220      0.109283   8 C  s               282      0.109570  10 C  s         
   379      0.109547  13 O  py              345      0.108011  12 C  s         
 
 Vector   30  Occ=2.000000D+00  E=-5.467714D-01
              MO Center=  2.7D+00,  2.1D-01, -3.7D-01, r^2= 1.2D+01
   Bfn.  Coefficient  Atom+Function         Bfn.  Coefficient  Atom+Function  
  ----- ------------  ---------------      ----- ------------  ---------------
    97      0.171718   4 C  s               379     -0.136262  13 O  py        
   159     -0.132659   6 C  s                96      0.129725   4 C  s         
   158     -0.115944   6 C  s               314      0.115707  11 C  s         
   382     -0.105947  13 O  py              345     -0.103404  12 C  s         
   283      0.102682  10 C  s                38     -0.099949   2 C  py        
 
 Vector   31  Occ=2.000000D+00  E=-5.355236D-01
              MO Center=  1.5D+00, -6.1D-02, -6.2D-01, r^2= 5.9D+00
   Bfn.  Coefficient  Atom+Function         Bfn.  Coefficient  Atom+Function  
  ----- ------------  ---------------      ----- ------------  ---------------
   252      0.175113   9 C  s               517     -0.147063  24 C  s         
   251      0.132988   9 C  s                35      0.126051   2 C  s         
    66     -0.125994   3 C  s               100     -0.118952   4 C  py        
   516     -0.118744  24 C  s               221     -0.103331   8 C  s         
   285     -0.101001  10 C  px              520      0.098381  24 C  py        
 
 Vector   32  Occ=2.000000D+00  E=-5.184148D-01
              MO Center=  3.3D+00,  3.0D-01, -4.0D-01, r^2= 1.3D+01
   Bfn.  Coefficient  Atom+Function         Bfn.  Coefficient  Atom+Function  
  ----- ------------  ---------------      ----- ------------  ---------------
   314      0.177557  11 C  s               379     -0.147099  13 O  py        
   128      0.123682   5 C  s               190     -0.123713   7 C  s         
   348      0.116710  12 C  py              382     -0.115807  13 O  py        
   313      0.109493  11 C  s               127      0.104408   5 C  s         
    35      0.099311   2 C  s               189     -0.095356   7 C  s         
 
 Vector   33  Occ=2.000000D+00  E=-4.759053D-01
              MO Center= -8.4D-03, -6.6D-01, -5.7D-01, r^2= 9.2D+00
   Bfn.  Coefficient  Atom+Function         Bfn.  Coefficient  Atom+Function  
  ----- ------------  ---------------      ----- ------------  ---------------
     6      0.197895   1 O  px               37     -0.166245   2 C  px        
   569     -0.165995  28 C  py                9      0.158969   1 O  px        
   286     -0.107240  10 C  py              572     -0.104411  28 C  py        
     7      0.101709   1 O  py              131     -0.098896   5 C  py        
    40     -0.095425   2 C  px              221     -0.092271   8 C  s         
 
 Vector   34  Occ=2.000000D+00  E=-4.598138D-01
              MO Center=  2.3D+00,  1.1D-01, -5.9D-01, r^2= 1.0D+01
   Bfn.  Coefficient  Atom+Function         Bfn.  Coefficient  Atom+Function  
  ----- ------------  ---------------      ----- ------------  ---------------
   254     -0.133126   9 C  px              286      0.127498  10 C  py        
   190      0.121303   7 C  s               223      0.120180   8 C  px        
   283     -0.114653  10 C  s                66     -0.113324   3 C  s         
   546     -0.111885  25 H  s               316     -0.110211  11 C  px        
   128      0.108225   5 C  s                35      0.103366   2 C  s         
 
 Vector   35  Occ=2.000000D+00  E=-4.528902D-01
              MO Center=  1.8D+00,  2.7D-01, -4.8D-01, r^2= 1.1D+01
   Bfn.  Coefficient  Atom+Function         Bfn.  Coefficient  Atom+Function  
  ----- ------------  ---------------      ----- ------------  ---------------
    38      0.129383   2 C  py              285      0.118524  10 C  px        
    99      0.109193   4 C  px              161     -0.108916   6 C  px        
   224      0.105523   8 C  py               68     -0.103298   3 C  px        
    69     -0.102125   3 C  py              519     -0.098194  24 C  px        
   162     -0.091315   6 C  py              568     -0.091009  28 C  px        
 
 Vector   36  Occ=2.000000D+00  E=-4.261249D-01
              MO Center=  5.3D+00,  5.0D-01,  7.5D-02, r^2= 8.7D+00
   Bfn.  Coefficient  Atom+Function         Bfn.  Coefficient  Atom+Function  
  ----- ------------  ---------------      ----- ------------  ---------------
   379      0.164368  13 O  py              410     -0.156458  14 O  py        
   380      0.150515  13 O  pz              407     -0.141237  14 O  s         
   349      0.133253  12 C  pz              382      0.127233  13 O  py        
   377     -0.122230  13 O  s               383      0.116955  13 O  pz        
   413     -0.113449  14 O  py              376     -0.109804  13 O  s         
 
 Vector   37  Occ=2.000000D+00  E=-4.203719D-01
              MO Center=  5.1D+00,  7.5D-01,  1.9D-01, r^2= 1.1D+01
   Bfn.  Coefficient  Atom+Function         Bfn.  Coefficient  Atom+Function  
  ----- ------------  ---------------      ----- ------------  ---------------
   407      0.190117  14 O  s               411      0.183800  14 O  pz        
   345     -0.171363  12 C  s               348     -0.137342  12 C  py        
   344     -0.135964  12 C  s               408      0.130741  14 O  s         
   414      0.129489  14 O  pz              318     -0.125898  11 C  pz        
   406      0.123291  14 O  s               380     -0.121065  13 O  pz        
 
 Vector   38  Occ=2.000000D+00  E=-4.149107D-01
              MO Center= -2.2D+00, -1.7D+00, -5.6D-01, r^2= 2.2D+00
   Bfn.  Coefficient  Atom+Function         Bfn.  Coefficient  Atom+Function  
  ----- ------------  ---------------      ----- ------------  ---------------
   570      0.279238  28 C  pz                8      0.222081   1 O  pz        
   573      0.191610  28 C  pz               11      0.181819   1 O  pz        
   601     -0.153320  30 H  s               595      0.149759  29 H  s         
   600     -0.114203  30 H  s               594      0.111529  29 H  s         
    39      0.101837   2 C  pz               14      0.093132   1 O  pz        
 
 Vector   39  Occ=2.000000D+00  E=-4.145488D-01
              MO Center=  2.3D+00,  7.2D-03, -4.2D-01, r^2= 1.2D+01
   Bfn.  Coefficient  Atom+Function         Bfn.  Coefficient  Atom+Function  
  ----- ------------  ---------------      ----- ------------  ---------------
   162      0.148900   6 C  py                7      0.127943   1 O  py        
   519     -0.122706  24 C  px              286     -0.119897  10 C  py        
   100     -0.117156   4 C  py              255      0.109114   9 C  py        
   380      0.103858  13 O  pz               10      0.102758   1 O  py        
   192      0.091806   7 C  px              503      0.090676  22 H  s         
 
 Vector   40  Occ=2.000000D+00  E=-4.029992D-01
              MO Center=  4.3D+00,  4.1D-01, -2.0D-01, r^2= 1.2D+01
   Bfn.  Coefficient  Atom+Function         Bfn.  Coefficient  Atom+Function  
  ----- ------------  ---------------      ----- ------------  ---------------
   347      0.189219  12 C  px              378      0.146057  13 O  px        
   350      0.143280  12 C  px              409      0.142258  14 O  px        
   381      0.118101  13 O  px              412      0.112193  14 O  px        
   223      0.107109   8 C  px               68      0.101592   3 C  px        
   316      0.096834  11 C  px              252     -0.092584   9 C  s         
 
 Vector   41  Occ=2.000000D+00  E=-3.952158D-01
              MO Center=  1.4D+00,  8.4D-02, -5.9D-01, r^2= 9.9D+00
   Bfn.  Coefficient  Atom+Function         Bfn.  Coefficient  Atom+Function  
  ----- ------------  ---------------      ----- ------------  ---------------
    97      0.143219   4 C  s               252     -0.141605   9 C  s         
   131     -0.135190   5 C  py              224     -0.135180   8 C  py        
   558     -0.130002  27 H  s               520     -0.125187  24 C  py        
   568     -0.120051  28 C  px              509      0.115945  23 H  s         
    69     -0.107729   3 C  py               66     -0.095192   3 C  s         
 
 Vector   42  Occ=2.000000D+00  E=-3.892219D-01
              MO Center=  1.8D+00,  2.2D-01, -5.6D-01, r^2= 1.4D+01
   Bfn.  Coefficient  Atom+Function         Bfn.  Coefficient  Atom+Function  
  ----- ------------  ---------------      ----- ------------  ---------------
   130      0.177822   5 C  px              161     -0.152077   6 C  px        
   568      0.140149  28 C  px                7     -0.130353   1 O  py        
   497     -0.112155  21 H  s               552      0.110698  26 H  s         
   133      0.108135   5 C  px              520     -0.108029  24 C  py        
    10     -0.105509   1 O  py              607     -0.097318  31 H  s         
 
 Vector   43  Occ=2.000000D+00  E=-3.787114D-01
              MO Center=  4.4D+00,  2.3D-01, -8.0D-01, r^2= 1.4D+01
   Bfn.  Coefficient  Atom+Function         Bfn.  Coefficient  Atom+Function  
  ----- ------------  ---------------      ----- ------------  ---------------
   441     -0.154671  15 C  py              378      0.149880  13 O  px        
   317     -0.133524  11 C  py              381      0.119767  13 O  px        
   479      0.114005  18 H  s               347      0.109478  12 C  px        
   285     -0.107992  10 C  px              467     -0.105433  16 H  s         
   568     -0.105018  28 C  px              444     -0.099186  15 C  py        
 
 Vector   44  Occ=2.000000D+00  E=-3.696827D-01
              MO Center=  1.8D+00,  2.7D-01, -6.1D-01, r^2= 7.0D+00
   Bfn.  Coefficient  Atom+Function         Bfn.  Coefficient  Atom+Function  
  ----- ------------  ---------------      ----- ------------  ---------------
   131     -0.155764   5 C  py               69      0.145603   3 C  py        
   497     -0.133279  21 H  s               520      0.133032  24 C  py        
   224     -0.129079   8 C  py              552     -0.121687  26 H  s         
   558      0.119294  27 H  s               509      0.113919  23 H  s         
   519     -0.113648  24 C  px              496     -0.094426  21 H  s         
 
 Vector   45  Occ=2.000000D+00  E=-3.631469D-01
              MO Center=  4.8D+00,  3.5D-01, -4.1D-01, r^2= 1.3D+01
   Bfn.  Coefficient  Atom+Function         Bfn.  Coefficient  Atom+Function  
  ----- ------------  ---------------      ----- ------------  ---------------
   380      0.192270  13 O  pz              411      0.183100  14 O  pz        
   383      0.148571  13 O  pz              414      0.132452  14 O  pz        
   440      0.132576  15 C  px              442      0.121279  15 C  pz        
   473     -0.114880  17 H  s               376     -0.107367  13 O  s         
   485      0.103789  19 H  s               348     -0.099793  12 C  py        
 
 Vector   46  Occ=2.000000D+00  E=-3.575407D-01
              MO Center=  2.2D+00, -1.4D-01, -7.5D-01, r^2= 1.4D+01
   Bfn.  Coefficient  Atom+Function         Bfn.  Coefficient  Atom+Function  
  ----- ------------  ---------------      ----- ------------  ---------------
   285      0.146732  10 C  px              568      0.136778  28 C  px        
   519     -0.131657  24 C  px              441     -0.122691  15 C  py        
   161      0.114985   6 C  px              130     -0.110034   5 C  px        
   607     -0.102883  31 H  s                99      0.102119   4 C  px        
   473     -0.092366  17 H  s               255      0.091501   9 C  py        
 
 Vector   47  Occ=2.000000D+00  E=-3.492849D-01
              MO Center=  1.7D+00, -8.5D-02, -5.7D-01, r^2= 8.6D+00
   Bfn.  Coefficient  Atom+Function         Bfn.  Coefficient  Atom+Function  
  ----- ------------  ---------------      ----- ------------  ---------------
   256      0.136148   9 C  pz              101      0.134050   4 C  pz        
    39      0.119655   2 C  pz              259      0.110420   9 C  pz        
   104      0.109488   4 C  pz              521      0.103905  24 C  pz        
    70      0.103011   3 C  pz               42      0.096520   2 C  pz        
   570     -0.095737  28 C  pz              287      0.087545  10 C  pz        
 
 Vector   48  Occ=2.000000D+00  E=-3.447488D-01
              MO Center=  2.1D+00, -4.9D-02, -8.0D-01, r^2= 1.2D+01
   Bfn.  Coefficient  Atom+Function         Bfn.  Coefficient  Atom+Function  
  ----- ------------  ---------------      ----- ------------  ---------------
    38      0.132068   2 C  py              440      0.129185  15 C  px        
   162     -0.115216   6 C  py              286     -0.115182  10 C  py        
   546      0.115256  25 H  s               224     -0.106959   8 C  py        
    69     -0.106368   3 C  py              503     -0.099239  22 H  s         
   193      0.095670   7 C  py              485      0.094412  19 H  s         
 
 Vector   49  Occ=2.000000D+00  E=-3.351625D-01
              MO Center=  4.9D+00,  6.8D-01, -6.3D-01, r^2= 1.0D+01
   Bfn.  Coefficient  Atom+Function         Bfn.  Coefficient  Atom+Function  
  ----- ------------  ---------------      ----- ------------  ---------------
   442      0.204659  15 C  pz              318     -0.159957  11 C  pz        
   349      0.147198  12 C  pz              445      0.136449  15 C  pz        
   473     -0.137000  17 H  s               410     -0.130824  14 O  py        
   378     -0.128294  13 O  px              321     -0.118930  11 C  pz        
   409     -0.109263  14 O  px              381     -0.102597  13 O  px        
 
 Vector   50  Occ=2.000000D+00  E=-3.332844D-01
              MO Center=  3.6D+00,  5.8D-01, -7.8D-01, r^2= 1.1D+01
   Bfn.  Coefficient  Atom+Function         Bfn.  Coefficient  Atom+Function  
  ----- ------------  ---------------      ----- ------------  ---------------
    99     -0.171856   4 C  px               68      0.159250   3 C  px        
   440     -0.153755  15 C  px              485     -0.132903  19 H  s         
   162     -0.110252   6 C  py              102     -0.109566   4 C  px        
   223     -0.109406   8 C  px              254      0.107883   9 C  px        
    71      0.099117   3 C  px              380      0.097467  13 O  pz        
 
 Vector   51  Occ=2.000000D+00  E=-3.162335D-01
              MO Center=  4.4D+00,  8.8D-01, -1.1D+00, r^2= 1.1D+01
   Bfn.  Coefficient  Atom+Function         Bfn.  Coefficient  Atom+Function  
  ----- ------------  ---------------      ----- ------------  ---------------
   317      0.210143  11 C  py              441     -0.203299  15 C  py        
   467      0.178762  16 H  s               479      0.167559  18 H  s         
   320      0.139268  11 C  py              444     -0.131332  15 C  py        
   466      0.122884  16 H  s               478      0.115544  18 H  s         
   100     -0.101319   4 C  py              161     -0.096693   6 C  px        
 
 Vector   52  Occ=2.000000D+00  E=-3.086503D-01
              MO Center=  7.5D-01, -1.9D-01, -5.3D-01, r^2= 1.1D+01
   Bfn.  Coefficient  Atom+Function         Bfn.  Coefficient  Atom+Function  
  ----- ------------  ---------------      ----- ------------  ---------------
     8      0.191288   1 O  pz               39      0.178903   2 C  pz        
    11      0.154221   1 O  pz               42      0.142522   2 C  pz        
   570     -0.132842  28 C  pz              163     -0.113669   6 C  pz        
   225     -0.112504   8 C  pz               14      0.106447   1 O  pz        
   194     -0.105097   7 C  pz              132     -0.104023   5 C  pz        
 
 Vector   53  Occ=2.000000D+00  E=-3.004761D-01
              MO Center=  3.3D+00,  5.0D-01, -7.3D-01, r^2= 1.1D+01
   Bfn.  Coefficient  Atom+Function         Bfn.  Coefficient  Atom+Function  
  ----- ------------  ---------------      ----- ------------  ---------------
   192      0.149569   7 C  px              316     -0.148029  11 C  px        
   223     -0.120401   8 C  px              224     -0.112157   8 C  py        
   254      0.109749   9 C  px              195      0.108947   7 C  px        
   130      0.104070   5 C  px              193      0.103692   7 C  py        
     6      0.102692   1 O  px              467     -0.101440  16 H  s         
 
 Vector   54  Occ=2.000000D+00  E=-2.955155D-01
              MO Center=  1.5D+00,  2.0D-01, -5.5D-01, r^2= 1.4D+01
   Bfn.  Coefficient  Atom+Function         Bfn.  Coefficient  Atom+Function  
  ----- ------------  ---------------      ----- ------------  ---------------
     7      0.188174   1 O  py               10      0.150581   1 O  py        
    98      0.134230   4 C  s               284      0.134348  10 C  s         
     6     -0.116875   1 O  px              193     -0.113197   7 C  py        
   161     -0.111115   6 C  px               67     -0.108088   3 C  s         
   292      0.107219  10 C  py              569     -0.107429  28 C  py        
 
 Vector   55  Occ=2.000000D+00  E=-2.822785D-01
              MO Center=  7.4D-01, -3.0D-01, -4.5D-01, r^2= 1.1D+01
   Bfn.  Coefficient  Atom+Function         Bfn.  Coefficient  Atom+Function  
  ----- ------------  ---------------      ----- ------------  ---------------
     7      0.182960   1 O  py               10      0.146627   1 O  py        
   255      0.139661   9 C  py              100     -0.138460   4 C  py        
    38     -0.131988   2 C  py              286      0.125614  10 C  py        
     6     -0.122026   1 O  px              520     -0.116630  24 C  py        
   292      0.112157  10 C  py              284      0.108350  10 C  s         
 
 Vector   56  Occ=2.000000D+00  E=-2.771073D-01
              MO Center=  6.0D+00,  4.8D-01,  6.6D-01, r^2= 5.2D+00
   Bfn.  Coefficient  Atom+Function         Bfn.  Coefficient  Atom+Function  
  ----- ------------  ---------------      ----- ------------  ---------------
   378     -0.293390  13 O  px              409      0.284405  14 O  px        
   222      0.273388   8 C  s               381     -0.235168  13 O  px        
   412      0.225742  14 O  px              160     -0.207811   6 C  s         
   384     -0.194257  13 O  px              415      0.158953  14 O  px        
   199      0.144891   7 C  py              411     -0.130987  14 O  pz        
 
 Vector   57  Occ=2.000000D+00  E=-2.676660D-01
              MO Center=  1.2D+00, -2.3D-01, -6.0D-01, r^2= 8.1D+00
   Bfn.  Coefficient  Atom+Function         Bfn.  Coefficient  Atom+Function  
  ----- ------------  ---------------      ----- ------------  ---------------
   521     -0.206705  24 C  pz                8      0.197361   1 O  pz        
   524     -0.169462  24 C  pz              163      0.161174   6 C  pz        
    11      0.159485   1 O  pz              287     -0.147923  10 C  pz        
   132      0.136120   5 C  pz              166      0.132751   6 C  pz        
   256     -0.127552   9 C  pz              290     -0.122634  10 C  pz        
 
 Vector   58  Occ=2.000000D+00  E=-2.476953D-01
              MO Center=  2.5D+00,  5.8D-01, -3.4D-01, r^2= 9.0D+00
   Bfn.  Coefficient  Atom+Function         Bfn.  Coefficient  Atom+Function  
  ----- ------------  ---------------      ----- ------------  ---------------
   101      0.189173   4 C  pz              225     -0.168166   8 C  pz        
   194     -0.162904   7 C  pz              104      0.156571   4 C  pz        
    70      0.152917   3 C  pz              410      0.146293  14 O  py        
   228     -0.137136   8 C  pz              197     -0.136010   7 C  pz        
     8     -0.135271   1 O  pz               73      0.126855   3 C  pz        
 
 Vector   59  Occ=2.000000D+00  E=-2.281421D-01
              MO Center=  5.4D+00,  9.4D-01,  6.8D-01, r^2= 8.8D+00
   Bfn.  Coefficient  Atom+Function         Bfn.  Coefficient  Atom+Function  
  ----- ------------  ---------------      ----- ------------  ---------------
   410      0.310768  14 O  py              413      0.246491  14 O  py        
   315     -0.236148  11 C  s               416      0.189589  14 O  py        
   411     -0.185765  14 O  pz              379      0.150744  13 O  py        
   414     -0.146093  14 O  pz              409     -0.131762  14 O  px        
   382      0.125931  13 O  py              318     -0.122117  11 C  pz        
 
 Vector   60  Occ=2.000000D+00  E=-2.095512D-01
              MO Center=  1.5D+00,  2.5D-02, -6.0D-01, r^2= 6.7D+00
   Bfn.  Coefficient  Atom+Function         Bfn.  Coefficient  Atom+Function  
  ----- ------------  ---------------      ----- ------------  ---------------
   287      0.224637  10 C  pz              163      0.201792   6 C  pz        
   290      0.185730  10 C  pz              256     -0.172728   9 C  pz        
   166      0.167245   6 C  pz              293      0.158114  10 C  pz        
   259     -0.143844   9 C  pz                8     -0.135902   1 O  pz        
   169      0.134298   6 C  pz              101     -0.127493   4 C  pz        
 
 Vector   61  Occ=2.000000D+00  E=-1.804542D-01
              MO Center=  1.2D+00,  1.9D-01, -5.5D-01, r^2= 7.6D+00
   Bfn.  Coefficient  Atom+Function         Bfn.  Coefficient  Atom+Function  
  ----- ------------  ---------------      ----- ------------  ---------------
    70     -0.205753   3 C  pz                8      0.199447   1 O  pz        
    73     -0.173100   3 C  pz              132      0.163503   5 C  pz        
    11      0.160959   1 O  pz              194     -0.159563   7 C  pz        
    39     -0.154387   2 C  pz              521      0.149873  24 C  pz        
   225     -0.141643   8 C  pz               14      0.138810   1 O  pz        
 
 Vector   62  Occ=0.000000D+00  E=-7.069329D-02
              MO Center=  1.9D+00,  1.5D-01, -6.1D-01, r^2= 6.8D+00
   Bfn.  Coefficient  Atom+Function         Bfn.  Coefficient  Atom+Function  
  ----- ------------  ---------------      ----- ------------  ---------------
   527      0.260416  24 C  pz              138     -0.233075   5 C  pz        
   231     -0.222893   8 C  pz              293     -0.218040  10 C  pz        
   439      0.216267  15 C  s                76      0.209557   3 C  pz        
   225     -0.202750   8 C  pz              521      0.202563  24 C  pz        
   169      0.187500   6 C  pz              132     -0.185430   5 C  pz        
 
 Vector   63  Occ=0.000000D+00  E=-4.583975D-02
              MO Center=  3.9D+00,  6.8D-01, -1.3D-01, r^2= 1.0D+01
   Bfn.  Coefficient  Atom+Function         Bfn.  Coefficient  Atom+Function  
  ----- ------------  ---------------      ----- ------------  ---------------
   222     -0.380167   8 C  s               160      0.352528   6 C  s         
   439      0.291414  15 C  s               169     -0.289397   6 C  pz        
   199     -0.285005   7 C  py              315     -0.241671  11 C  s         
   350     -0.239202  12 C  px              200      0.231293   7 C  pz        
   347     -0.219324  12 C  px              129     -0.209437   5 C  s         
 
 Vector   64  Occ=0.000000D+00  E=-2.333200D-02
              MO Center=  4.0D+00,  5.1D-01,  2.8D-02, r^2= 1.0D+01
   Bfn.  Coefficient  Atom+Function         Bfn.  Coefficient  Atom+Function  
  ----- ------------  ---------------      ----- ------------  ---------------
   222     -0.386609   8 C  s               160      0.357724   6 C  s         
   350     -0.298301  12 C  px              347     -0.294077  12 C  px        
   199     -0.269955   7 C  py              200     -0.256730   7 C  pz        
   315     -0.251418  11 C  s               129     -0.233792   5 C  s         
    45      0.232240   2 C  pz              262      0.220839   9 C  pz        
 
 Vector   65  Occ=0.000000D+00  E=-1.329216D-02
              MO Center=  1.9D+00,  1.8D-01, -5.4D-01, r^2= 6.6D+00
   Bfn.  Coefficient  Atom+Function         Bfn.  Coefficient  Atom+Function  
  ----- ------------  ---------------      ----- ------------  ---------------
   315      0.547815  11 C  s               527     -0.410715  24 C  pz        
    76     -0.390788   3 C  pz              138     -0.389061   5 C  pz        
   231     -0.377021   8 C  pz              262      0.336971   9 C  pz        
   346     -0.333833  12 C  s               107      0.305744   4 C  pz        
   492     -0.263816  20 H  s               169      0.193620   6 C  pz        
 
 Vector   66  Occ=0.000000D+00  E= 4.221181D-03
              MO Center=  6.5D+00, -2.5D-01,  6.3D-01, r^2= 8.0D+00
   Bfn.  Coefficient  Atom+Function         Bfn.  Coefficient  Atom+Function  
  ----- ------------  ---------------      ----- ------------  ---------------
   315      3.086965  11 C  s               492     -1.302033  20 H  s         
   346     -1.262404  12 C  s               439      1.263616  15 C  s         
   198     -1.157275   7 C  px              468     -0.790480  16 H  s         
    98      0.729549   4 C  s               324      0.721375  11 C  pz        
   105      0.679743   4 C  px              480     -0.593956  18 H  s         
 
 Vector   67  Occ=0.000000D+00  E= 1.717845D-02
              MO Center= -1.7D+00, -2.8D+00, -7.0D-01, r^2= 7.3D+00
   Bfn.  Coefficient  Atom+Function         Bfn.  Coefficient  Atom+Function  
  ----- ------------  ---------------      ----- ------------  ---------------
   567      3.794265  28 C  s               547     -1.762038  25 H  s         
   596     -1.547246  29 H  s               602     -1.554299  30 H  s         
   260     -1.535342   9 C  px               43      1.482557   2 C  px        
   292     -1.271051  10 C  py              106      1.083591   4 C  py        
   608     -0.918396  31 H  s               553     -0.834163  26 H  s         
 
 Vector   68  Occ=0.000000D+00  E= 3.229409D-02
              MO Center=  3.9D+00,  1.0D+00, -6.5D-01, r^2= 2.1D+01
   Bfn.  Coefficient  Atom+Function         Bfn.  Coefficient  Atom+Function  
  ----- ------------  ---------------      ----- ------------  ---------------
   439      2.431942  15 C  s               315      1.728366  11 C  s         
   198     -1.290955   7 C  px              468     -1.287184  16 H  s         
   504     -1.155062  22 H  s               498     -1.036593  21 H  s         
    98      0.958854   4 C  s               284      0.938806  10 C  s         
   474     -0.904186  17 H  s               105      0.831938   4 C  px        
 
 Vector   69  Occ=0.000000D+00  E= 3.731786D-02
              MO Center=  8.1D-01, -9.6D-01, -8.0D-01, r^2= 2.0D+01
   Bfn.  Coefficient  Atom+Function         Bfn.  Coefficient  Atom+Function  
  ----- ------------  ---------------      ----- ------------  ---------------
   284      1.704845  10 C  s               439     -1.374858  15 C  s         
   553     -1.321660  26 H  s               567     -1.241369  28 C  s         
   315     -1.116403  11 C  s               468      0.972155  16 H  s         
     5     -0.813915   1 O  s               547     -0.813216  25 H  s         
   602      0.764325  30 H  s               596      0.758819  29 H  s         
 
 Vector   70  Occ=0.000000D+00  E= 4.167527D-02
              MO Center=  3.5D+00,  8.7D-01, -1.0D+00, r^2= 1.7D+01
   Bfn.  Coefficient  Atom+Function         Bfn.  Coefficient  Atom+Function  
  ----- ------------  ---------------      ----- ------------  ---------------
   439      3.285400  15 C  s               315     -1.348886  11 C  s         
   480     -1.327879  18 H  s               498      1.319751  21 H  s         
   504      1.057922  22 H  s               106     -1.023775   4 C  py        
   229      1.010917   8 C  px              260      0.958834   9 C  px        
   486     -0.960824  19 H  s               261     -0.871213   9 C  py        
 
 Vector   71  Occ=0.000000D+00  E= 5.195174D-02
              MO Center=  5.0D-01, -5.2D-01, -6.9D-01, r^2= 1.8D+01
   Bfn.  Coefficient  Atom+Function         Bfn.  Coefficient  Atom+Function  
  ----- ------------  ---------------      ----- ------------  ---------------
   553      1.481282  26 H  s               526      1.300321  24 C  py        
   559      1.226076  27 H  s               498      1.192947  21 H  s         
   510      1.100575  23 H  s                75     -1.047102   3 C  py        
     5     -1.012063   1 O  s               198      0.880181   7 C  px        
   160     -0.766081   6 C  s               129     -0.747731   5 C  s         
 
 Vector   72  Occ=0.000000D+00  E= 5.518600D-02
              MO Center=  2.2D+00,  2.5D-01, -6.5D-01, r^2= 1.1D+01
   Bfn.  Coefficient  Atom+Function         Bfn.  Coefficient  Atom+Function  
  ----- ------------  ---------------      ----- ------------  ---------------
   315      1.408717  11 C  s               439     -1.258805  15 C  s         
   486      0.698821  19 H  s               198     -0.536840   7 C  px        
   169      0.507507   6 C  pz              293      0.485801  10 C  pz        
   200     -0.459912   7 C  pz               45     -0.456773   2 C  pz        
   553     -0.399494  26 H  s                76      0.336578   3 C  pz        
 
 Vector   73  Occ=0.000000D+00  E= 6.219419D-02
              MO Center=  2.8D+00,  1.1D+00, -8.4D-01, r^2= 2.0D+01
   Bfn.  Coefficient  Atom+Function         Bfn.  Coefficient  Atom+Function  
  ----- ------------  ---------------      ----- ------------  ---------------
   315      3.729299  11 C  s               439     -2.979677  15 C  s         
   253     -2.009586   9 C  s               468     -1.535242  16 H  s         
   168      1.485448   6 C  py              504     -1.437825  22 H  s         
   559      1.369566  27 H  s               498      1.319906  21 H  s         
   137     -1.279929   5 C  py               74      1.116486   3 C  px        
 
 Vector   74  Occ=0.000000D+00  E= 6.824522D-02
              MO Center=  1.8D+00,  1.6D-01, -7.7D-01, r^2= 1.9D+01
   Bfn.  Coefficient  Atom+Function         Bfn.  Coefficient  Atom+Function  
  ----- ------------  ---------------      ----- ------------  ---------------
   260      1.940505   9 C  px              160      1.834766   6 C  s         
   284     -1.761271  10 C  s               559      1.601983  27 H  s         
   105      1.466056   4 C  px              525     -1.422605  24 C  px        
   229      1.367156   8 C  px              504     -1.320244  22 H  s         
   510     -1.312487  23 H  s               547      1.314849  25 H  s         
 
 Vector   75  Occ=0.000000D+00  E= 7.533182D-02
              MO Center= -3.0D+00, -1.4D+00, -4.9D-01, r^2= 9.8D+00
   Bfn.  Coefficient  Atom+Function         Bfn.  Coefficient  Atom+Function  
  ----- ------------  ---------------      ----- ------------  ---------------
   608      2.807086  31 H  s               574      1.587608  28 C  px        
   602     -0.913001  30 H  s               596     -0.878701  29 H  s         
    67     -0.834123   3 C  s               498     -0.718518  21 H  s         
   575     -0.571474  28 C  py              261      0.563040   9 C  py        
   291      0.549462  10 C  px              105     -0.544621   4 C  px        
 
 Vector   76  Occ=0.000000D+00  E= 8.313005D-02
              MO Center=  5.8D+00,  9.6D-01, -1.4D+00, r^2= 1.1D+01
   Bfn.  Coefficient  Atom+Function         Bfn.  Coefficient  Atom+Function  
  ----- ------------  ---------------      ----- ------------  ---------------
   315      4.731702  11 C  s               346     -2.290885  12 C  s         
   439     -2.070381  15 C  s               474      1.878225  17 H  s         
   446      1.432558  15 C  px              191     -1.416151   7 C  s         
   198     -1.341470   7 C  px              486     -1.291379  19 H  s         
   222     -1.171533   8 C  s               408      0.980984  14 O  s         
 
 Vector   77  Occ=0.000000D+00  E= 8.645839D-02
              MO Center= -1.9D+00, -2.6D+00, -6.8D-01, r^2= 7.1D+00
   Bfn.  Coefficient  Atom+Function         Bfn.  Coefficient  Atom+Function  
  ----- ------------  ---------------      ----- ------------  ---------------
   596      2.124274  29 H  s               602     -2.068185  30 H  s         
   576     -1.345615  28 C  pz              315     -0.832014  11 C  s         
   198      0.377051   7 C  px              439      0.342169  15 C  s         
   486     -0.334549  19 H  s               474      0.314068  17 H  s         
   570     -0.280228  28 C  pz              129      0.249483   5 C  s         
 
 Vector   78  Occ=0.000000D+00  E= 8.768933D-02
              MO Center=  4.3D+00,  7.1D-01, -1.3D+00, r^2= 1.4D+01
   Bfn.  Coefficient  Atom+Function         Bfn.  Coefficient  Atom+Function  
  ----- ------------  ---------------      ----- ------------  ---------------
   315      4.855083  11 C  s               198     -2.109677   7 C  px        
   439     -1.693092  15 C  s               346     -1.615951  12 C  s         
   105      1.455846   4 C  px              323     -1.456061  11 C  py        
   474     -1.406244  17 H  s               486      1.296050  19 H  s         
   448     -1.181956  15 C  pz              222     -1.075764   8 C  s         
 
 Vector   79  Occ=0.000000D+00  E= 9.422064D-02
              MO Center=  1.9D+00,  6.2D-01, -7.8D-01, r^2= 2.1D+01
   Bfn.  Coefficient  Atom+Function         Bfn.  Coefficient  Atom+Function  
  ----- ------------  ---------------      ----- ------------  ---------------
   315      3.355583  11 C  s               253      2.788678   9 C  s         
    98      2.618643   4 C  s                67     -2.290980   3 C  s         
   518     -2.158132  24 C  s               129     -1.978542   5 C  s         
   559     -1.974595  27 H  s                74     -1.830606   3 C  px        
   468     -1.801261  16 H  s               547      1.723004  25 H  s         
 
 Vector   80  Occ=0.000000D+00  E= 1.061878D-01
              MO Center=  3.5D+00, -1.0D+00, -1.3D+00, r^2= 1.9D+01
   Bfn.  Coefficient  Atom+Function         Bfn.  Coefficient  Atom+Function  
  ----- ------------  ---------------      ----- ------------  ---------------
   315      3.958124  11 C  s               547     -2.185174  25 H  s         
   526      2.060035  24 C  py              553      1.982354  26 H  s         
   292     -1.910278  10 C  py               67      1.891943   3 C  s         
   439     -1.595787  15 C  s               480     -1.347228  18 H  s         
   346     -1.319925  12 C  s               486      1.308095  19 H  s         
 
 Vector   81  Occ=0.000000D+00  E= 1.172343D-01
              MO Center=  2.2D+00,  1.2D+00, -4.9D-01, r^2= 1.5D+01
   Bfn.  Coefficient  Atom+Function         Bfn.  Coefficient  Atom+Function  
  ----- ------------  ---------------      ----- ------------  ---------------
   199      2.517918   7 C  py              315     -2.343301  11 C  s         
    67      1.906692   3 C  s               137     -1.813261   5 C  py        
   168      1.817667   6 C  py              230      1.809828   8 C  py        
   222      1.784122   8 C  s               498      1.778466  21 H  s         
   504     -1.758529  22 H  s               261     -1.659258   9 C  py        
 
[...]
   Bfn.  Coefficient  Atom+Function         Bfn.  Coefficient  Atom+Function  
  ----- ------------  ---------------      ----- ------------  ---------------
   258      1.948735   9 C  py              315      1.859845  11 C  s         
   260      1.834354   9 C  px              106     -1.769545   4 C  py        
   517      1.720441  24 C  s               113      1.680938   4 C  d -2      
   261     -1.630472   9 C  py              268     -1.598733   9 C  d -2      
   103      1.587453   4 C  py              190      1.445744   7 C  s         
 
 Vector  604  Occ=0.000000D+00  E= 2.276894D+01
              MO Center=  1.7D+00,  2.2D-01, -5.1D-01, r^2= 7.1D+00
   Bfn.  Coefficient  Atom+Function         Bfn.  Coefficient  Atom+Function  
  ----- ------------  ---------------      ----- ------------  ---------------
   190      3.079472   7 C  s               191     -2.234903   7 C  s         
   314     -1.983396  11 C  s               105     -1.963088   4 C  px        
   159     -1.866404   6 C  s               189     -1.686110   7 C  s         
    35      1.645823   2 C  s               283     -1.607050  10 C  s         
   222      1.451539   8 C  s               128      1.433371   5 C  s         
 
 Vector  605  Occ=0.000000D+00  E= 2.287206D+01
              MO Center=  5.6D+00,  6.9D-01,  2.2D-01, r^2= 2.8D+00
   Bfn.  Coefficient  Atom+Function         Bfn.  Coefficient  Atom+Function  
  ----- ------------  ---------------      ----- ------------  ---------------
   315      1.888878  11 C  s               344      1.864447  12 C  s         
   352      1.683024  12 C  pz              343     -1.662007  12 C  s         
   407     -1.552761  14 O  s               342      1.243315  12 C  s         
   191     -1.193841   7 C  s               226      1.062980   8 C  px        
   319      1.003651  11 C  px              414      0.897912  14 O  pz        
 
 Vector  606  Occ=0.000000D+00  E= 2.326565D+01
              MO Center=  1.8D+00,  2.7D-01, -6.1D-01, r^2= 2.1D+00
   Bfn.  Coefficient  Atom+Function         Bfn.  Coefficient  Atom+Function  
  ----- ------------  ---------------      ----- ------------  ---------------
   252     -7.395964   9 C  s                97      7.154300   4 C  s         
   221      4.163031   8 C  s                66     -3.665473   3 C  s         
   128     -3.385285   5 C  s               517      3.168533  24 C  s         
   190     -3.068734   7 C  s               251      2.679548   9 C  s         
    96     -2.638383   4 C  s               226     -2.425376   8 C  px        
 
 Vector  607  Occ=0.000000D+00  E= 4.336049D+01
              MO Center=  6.5D+00, -3.6D-01,  5.3D-01, r^2= 5.6D-01
   Bfn.  Coefficient  Atom+Function         Bfn.  Coefficient  Atom+Function  
  ----- ------------  ---------------      ----- ------------  ---------------
   376      2.460584  13 O  s               315      1.894895  11 C  s         
   375     -1.779816  13 O  s               374      1.648441  13 O  s         
   373     -1.329530  13 O  s               377     -1.146632  13 O  s         
   222     -1.102605   8 C  s               191     -1.041142   7 C  s         
   314     -1.033501  11 C  s               198     -0.971904   7 C  px        
 
 Vector  608  Occ=0.000000D+00  E= 4.345015D+01
              MO Center=  6.6D+00,  1.3D+00,  1.4D+00, r^2= 5.6D-01
   Bfn.  Coefficient  Atom+Function         Bfn.  Coefficient  Atom+Function  
  ----- ------------  ---------------      ----- ------------  ---------------
   407      2.689071  14 O  s               406     -1.784782  14 O  s         
   405      1.649874  14 O  s               404     -1.329804  14 O  s         
   408     -1.261957  14 O  s               376     -0.988424  13 O  s         
   191     -0.954957   7 C  s               315      0.956782  11 C  s         
   352     -0.826773  12 C  pz              222      0.773328   8 C  s         
 
 Vector  609  Occ=0.000000D+00  E= 4.376398D+01
              MO Center= -2.1D+00, -7.2D-01, -4.6D-01, r^2= 1.5D-01
   Bfn.  Coefficient  Atom+Function         Bfn.  Coefficient  Atom+Function  
  ----- ------------  ---------------      ----- ------------  ---------------
     4      3.170666   1 O  s                 3     -2.081905   1 O  s         
     2      1.752619   1 O  s                 1     -1.399089   1 O  s         
    43     -1.154305   2 C  px               71      1.123854   3 C  px        
   102      1.065038   4 C  px               40      1.010187   2 C  px        
    97     -1.014518   4 C  s               284      0.910215  10 C  s         
 

 center of mass
 --------------
 x =   4.96602789 y =   0.34320336 z =  -0.79188845

 moments of inertia (a.u.)
 ------------------
        1937.562516570536       -1782.168977541597        -506.013965349511
       -1782.168977541597        8333.518502080429        -128.703671592143
        -506.013965349511        -128.703671592143        9296.918221448293
 
     Multipole analysis of the density
     ---------------------------------
 
     L   x y z        total         alpha         beta         nuclear
     -   - - -        -----         -----         ----         -------
     0   0 0 0     -0.000000    -61.000000    -61.000000    122.000000
 
     1   1 0 0     -0.516466   -301.732368   -301.732368    602.948270
     1   0 1 0     -0.995837    -19.375914    -19.375914     37.755990
     1   0 0 1     -0.541373     50.885456     50.885456   -102.312284
 
     2   2 0 0    -74.074221  -3657.529288  -3657.529288   7240.984355
     2   1 1 0     -3.821144   -587.056016   -587.056016   1170.290889
     2   1 0 1     -5.684810    135.068840    135.068840   -275.822489
     2   0 2 0    -68.639031   -459.016107   -459.016107    849.393183
     2   0 1 1     -2.894686    -16.886638    -16.886638     30.878591
     2   0 0 2    -77.839750   -219.126923   -219.126923    360.414095
 
 *** CALLING NEW AORESP DRIVER FOR CLOSED AND OPEN SHELLS ***
 Entering AOResponse driver routine


--------------------------------------------------------------------------------

          ****************
          *** RESPONSE ***
          ****************

 Response module for NWChem and dynamic CPKS solver
 developed by J. Autschbach and coworkers, SUNY Buffalo
 The methodology used in this program is described in 
 ChemPhysChem 12 (2011), 3224-3235 (main reference)
 J. Chem. Phys. 123 (2005), 114103
 J. Chem. Phys. 122 (2005), 224115
 J. Chem. Phys. 122 (2005), 074105
 Comp. Lett. 3 (2007), 131-150 (contact JA for a copy)
 Please cite this work in publications based on results
 obtained with this code. Thank you!

 For extension of response module to open shell
 calculations please acknowledge:
 F. Aquino, Northwestern University, Schatz Rsrch Group
 The update to the methodology is described in
 J. Phys. Chem. A 118 (2014) 517-525



          -----------------------------------------------
          Solving response equations for perturbing field
          -----------------------------------------------

 number of frequencies:     1
 frequency in a.u.:  0.1280230E+00
 Perturbing field: electric
 Using GIAO formalism for OptRot
 Adding quadrupole terms to OptRot
 to create an origin in dependent tensor.
 Using El. Dipole Length Gauge
 
 Applying DAMPING constant of  0.003700 a.u.
 
 Setting up CPKS
 with frequency omega =      0.12802300 a.u.
 and a damping of            0.00370000 a.u.

 
                            NWChem Dynamic CPHF Module
                            --------------------------
 
 
    scftype = RHF 
    nclosed =   61
      nopen =    0
  variables =   133712
  num. vecs =        3
  tolerance =   1.0D-07
  max. iter =  100

 Grid integrated density:     122.000002088328
 Requested integration accuracy:   0.10E-07
 SCF residual:   1.753926900332545E-004


Iterative solution of linear equations
  No. of variables    66856
  No. of equations        3
  Maximum subspace       99
       Convergence  1.0D-07
        Start time   1365.3


   iter   nsub   residual    time 
   ----  ------  --------  --------- 
 dft_CPHF2_read: failed to open./naproxen_355.9_139.inp.aoresp_fiao_f1
     1      3    9.00D+01    1721.3
     2      6    2.92D+01    2079.6
     3      9    6.72D+00    2436.9
     4     12    2.23D+00    2791.7
     5     15    4.79D-01    3145.6
     6     18    2.91D-01    3502.1
     7     21    1.40D-01    3856.0
     8     24    1.78D-02    4209.9
     9     27    3.13D-03    4563.6
    10     30    1.01D-03    4918.7
    11     33    6.23D-04    5274.3
    12     36    7.67D-05    5632.9
    13     39    6.74D-06    5993.9
    14     42    2.48D-06    6355.5
    15     45    7.11D-07    6715.0
    16     48    2.74D-07    7076.9
    17     51    1.80D-07    7438.0
    18     54    1.55D-07    7799.9
    19     57    1.11D-07    8160.2
    20     60    7.65D-08    8522.1

 Calculating some arrays needed for GIAO optical rotation

    0 giaofock schwarz done =      48.96%
    0 giaofock schwarz done =      38.30%
 Grid integrated density:     122.000002088557
 Requested integration accuracy:   0.10E-07
 aor_r1_tensor_giao: roadata output requested
 dip-quad polarizability Re:

              1        2        3        4        5        6      
    1 3331.7632 246.8729-346.1873 -44.5162 -98.3152 139.9170
    2  477.1340 929.7216 -52.6898 134.0049-230.5713   7.2527
    3  122.5672  35.9032 734.8538  15.4831  32.4850-268.8246
 traceless dip-quad polarizability:

              1        2        3      
    1 3284.0628 370.3093-519.2809
    2  370.3093*********-147.4728
    3 -519.2809-147.4728*********

              1        2        3      
    1  406.50521394.5824 -79.0348
    2 1394.5824-108.1884-345.8569
    3  -79.0348-345.8569-298.3168

              1        2        3      
    1  249.2379  53.85481102.2807
    2   53.8548  88.6118  48.7275
    3 1102.2807  48.7275-337.8498

 roa begin

 alpha real:
 XX       0.4093563480381E+03
 XY       0.8295600199436E+02
 XZ       0.4081496175255E+01
 YX       0.8295600133908E+02
 YY       0.2346490084194E+03
 YZ       0.9792963890596E+01
 ZX       0.4081496341920E+01
 ZY       0.9792963836671E+01
 ZZ       0.1252141977534E+03

 alpha im:
 XX       0.3950590683816E+02
 XY       0.5377177299531E+02
 XZ       0.6723339799816E+01
 YX       0.5377177314741E+02
 YY       0.1329103035869E+03
 YZ       0.1623337746918E+02
 ZX       0.6723339916880E+01
 ZY       0.1623337745077E+02
 ZZ       0.2556947128595E+01

 beta real:
 XX      -0.5757630417024E+01
 XY       0.3947566050598E+02
 XZ       0.1087601801839E+02
 YX      -0.1572410195420E+02
 YY       0.9305357064285E+01
 YZ      -0.5746962699804E+02
 ZX      -0.3693855427281E+01
 ZY       0.4485512494184E+02
 ZZ      -0.1187259881817E+01

 G-prime = -omega beta(real):
 XX      -0.5757630417024E+01
 XY       0.3947566050598E+02
 XZ       0.1087601801839E+02
 YX      -0.1572410195420E+02
 YY       0.9305357064285E+01
 YZ      -0.5746962699804E+02
 ZX      -0.3693855427281E+01
 ZY       0.4485512494184E+02
 ZZ      -0.1187259881817E+01

 beta im:
 XX      -0.4510339463164E+01
 XY       0.8478869370942E+01
 XZ      -0.1228725699350E+02
 YX      -0.1157367711778E+02
 YY       0.1423974979111E+02
 YZ      -0.3966409808927E+02
 ZX      -0.1441459776786E+01
 ZY       0.2388754429653E+01
 ZZ      -0.4707540406371E+01

 G-prime = -omega beta(imag):
 XX      -0.4510339463164E+01
 XY       0.8478869370942E+01
 XZ      -0.1228725699350E+02
 YX      -0.1157367711778E+02
 YY       0.1423974979111E+02
 YZ      -0.3966409808927E+02
 ZX      -0.1441459776786E+01
 ZY       0.2388754429653E+01
 ZZ      -0.4707540406371E+01

 dipole-quadrupole real (Cartesian):
 XXX      0.3331763176127E+04
 XXY      0.2468728618164E+03
 XXZ     -0.3461872634757E+03
 XYY     -0.4451617458171E+02
 XYZ     -0.9831521033627E+02
 XZZ      0.1399169581233E+03
 YXX      0.4771340193441E+03
 YXY      0.9297216032507E+03
 YXZ     -0.5268984659425E+02
 YYY      0.1340049438737E+03
 YYZ     -0.2305712509602E+03
 YZZ      0.7252668847442E+01
 ZXX      0.1225672049057E+03
 ZXY      0.3590320093882E+02
 ZXZ      0.7348538304959E+03
 ZYY      0.1548311662295E+02
 ZYZ      0.3248497581790E+02
 ZZZ     -0.2688246041219E+03

 dipole-quadrupole imag (Cartesian):
 XXX      0.3384349103730E+03
 XXY      0.1102498470398E+03
 XXZ     -0.4559480180404E+01
 XYY     -0.7541520976014E+00
 XYZ     -0.6036227014345E+02
 XZZ      0.1659946377018E+02
 YXX      0.4442999323521E+03
 YXY      0.2510397395257E+03
 YXZ      0.1227890784186E+02
 YYY      0.4064984049058E+01
 YYZ     -0.1485536746903E+03
 YZZ      0.1645299137439E+02
 ZXX      0.5831371582988E+02
 ZXY      0.3070712212966E+02
 ZXZ      0.5479616744279E+01
 ZYY      0.4605987706225E+00
 ZYZ     -0.1817441113314E+02
 ZZZ      0.1138590041209E+01

 dipole-quadrupole (traceless):
 XXX      0.3284062784356E+04
 XXY      0.3703092927245E+03
 XXZ     -0.5192808952135E+03
 XYY     -0.1780356241707E+04
 XYZ     -0.1474728155044E+03
 XZZ     -0.1503706542649E+04
 YXX      0.4065052129835E+03
 YXY      0.1394582404876E+04
 YXZ     -0.7903476989137E+02
 YYY     -0.1081884002220E+03
 YYZ     -0.3458568764403E+03
 YZZ     -0.2983168127615E+03
 ZXX      0.2492379486552E+03
 ZXY      0.5385480140823E+02
 ZXZ      0.1102280745744E+04
 ZYY      0.8861181623106E+02
 ZYZ      0.4872746372685E+02
 ZZZ     -0.3378497648862E+03

 roa end


 Electric Dipole Response Matrix (nonzero elements):

              1        2        3      
    1  409.3563  82.9560   4.0815
    2   82.9560 234.6490   9.7930
    3    4.0815   9.7930 125.2142
 
 Imaginary part:

              1        2        3      
    1   39.5059  53.7718   6.7233
    2   53.7718 132.9103  16.2334
    3    6.7233  16.2334   2.5569

 ------------------------------------------
 average:       256.40652 + I      58.32439


 DFT Linear Response polarizability / au 
 Frequency  =       0.1280230 / au
 Wavelength =     355.8997446 / nm
              X              Y              Z
 -----------------------------------------------
 X     409.3563480     82.9560020      4.0814962
 Y      82.9560013    234.6490084      9.7929639
 Z       4.0814963      9.7929638    125.2141978
 -----------------------------------------------
 Eigenvalues =     442.6435727    202.2791558    124.2968257
 Isotropic   =     256.4065181
 Anisotropic =     234.6635521
 -----------------------------------------------
 *************************

 DFT Linear Response IMAG polarizability / au 
 Frequency  =       0.1280230 / au
 Wavelength =     355.8997446 / nm
              X              Y              Z
 -----------------------------------------------
 X      39.5059068     53.7717730      6.7233398
 Y      53.7717731    132.9103036     16.2333775
 Z       6.7233399     16.2333775      2.5569471
 -----------------------------------------------
 Eigenvalues =      15.0127237    159.3956128      0.5648211
 Isotropic   =      58.3243859
 Anisotropic =     124.2073280
 -----------------------------------------------
 *************************

 Magnetic Dipole Response Matrix (nonzero elements):
 Optical rotation tensor Beta
 (Buckingham-Dunn version including dipole-quadrupole terms)

              1        2        3      
    1    0.6769 -37.0878 -91.9236
    2  -37.0878  -5.5758 -45.5587
    3  -91.9236 -45.5587 -13.5389
 
 Imaginary part:

              1        2        3      
    1   35.2307 -66.2293  95.9769
    2   90.4031-111.2281 309.8201
    3   11.2594 -18.6588  36.7711

 ------------------------------------------
 average:        -6.14594 + I     -13.07544

 Principal components and PAS (Real part)
               -126.96070
                 85.95796
                 22.56491
 ------------------------
 average:        -6.14594

              1        2        3      
    1    0.6060   0.7218  -0.3343
    2    0.4351   0.0511   0.8989
    3    0.6659  -0.6902  -0.2831

 Chiral response tensor (Real part):

              1        2        3      
    1   -9.5574  18.5439  45.9618
    2   18.5439  -6.4310  22.7793
    3   45.9618  22.7793  -2.4495
 
 Principal components and PAS (Real part)
                 54.26143
                -52.19790
                -20.50137
 ------------------------
 average:        -6.14594

              1        2        3      
    1    0.6060   0.7218  -0.3343
    2    0.4351   0.0511   0.8989
    3    0.6659  -0.6902  -0.2831
 Exiting AOResponse driver routine

 Task  times  cpu:     8561.9s     wall:     8984.1s
 
 
                                NWChem Input Module
                                -------------------
 
 
 Summary of allocated global arrays
-----------------------------------
  No active global arrays



                         GA Statistics for process    0
                         ------------------------------

       create   destroy   get      put      acc     scatter   gather  read&inc
calls: 9129     9129     2.89e+08 5.29e+07 9.38e+06 8310        0     3512     
number of processes/call 1.00e+00 1.01e+00 1.21e+00 0.00e+00 0.00e+00
bytes total:             4.76e+10 1.99e+09 4.79e+10 0.00e+00 0.00e+00 2.81e+04
bytes remote:            1.95e+10 6.21e+08 2.22e+10 -4.48e+02 0.00e+00 0.00e+00
Max memory consumed for GA by this process: 128676136 bytes
 
MA_summarize_allocated_blocks: starting scan ...
MA_summarize_allocated_blocks: scan completed: 0 heap blocks, 0 stack blocks
MA usage statistics:

	allocation statistics:
					      heap	     stack
					      ----	     -----
	current number of blocks	         0	         0
	maximum number of blocks	        24	        52
	current total bytes		         0	         0
	maximum total bytes		  15665040	 111145368
	maximum total K-bytes		     15666	    111146
	maximum total M-bytes		        16	       112
 
 
                                     CITATION
                                     --------
                Please cite the following reference when publishing
                           results obtained with NWChem:
 
                 M. Valiev, E.J. Bylaska, N. Govind, K. Kowalski,
              T.P. Straatsma, H.J.J. van Dam, D. Wang, J. Nieplocha,
                        E. Apra, T.L. Windus, W.A. de Jong
                 "NWChem: a comprehensive and scalable open-source
                  solution for large scale molecular simulations"
                      Comput. Phys. Commun. 181, 1477 (2010)
                           doi:10.1016/j.cpc.2010.04.018
 
                                      AUTHORS
                                      -------
          E. Apra, E. J. Bylaska, W. A. de Jong, N. Govind, K. Kowalski,
       T. P. Straatsma, M. Valiev, H. J. J. van Dam, D. Wang, T. L. Windus,
        J. Hammond, J. Autschbach, K. Bhaskaran-Nair, J. Brabec, K. Lopata,
    S. A. Fischer, S. Krishnamoorthy, M. Jacquelin, W. Ma, M. Klemm, O. Villa,
      Y. Chen, V. Anisimov, F. Aquino, S. Hirata, M. T. Hackler, V. Konjkov,
            D. Mejia-Rodriguez, T. Risthaus, M. Malagoli, A. Marenich,
   A. Otero-de-la-Roza, J. Mullin, P. Nichols, R. Peverati, J. Pittner, Y. Zhao,
        P.-D. Fan, A. Fonari, M. J. Williamson, R. J. Harrison, J. R. Rehr,
      M. Dupuis, D. Silverstein, D. M. A. Smith, J. Nieplocha, V. Tipparaju,
    M. Krishnan, B. E. Van Kuiken, A. Vazquez-Mayagoitia, L. Jensen, M. Swart,
      Q. Wu, T. Van Voorhis, A. A. Auer, M. Nooijen, L. D. Crosby, E. Brown,
      G. Cisneros, G. I. Fann, H. Fruchtl, J. Garza, K. Hirao, R. A. Kendall,
      J. A. Nichols, K. Tsemekhman, K. Wolinski, J. Anchell, D. E. Bernholdt,
      P. Borowski, T. Clark, D. Clerc, H. Dachsel, M. J. O. Deegan, K. Dyall,
    D. Elwood, E. Glendening, M. Gutowski, A. C. Hess, J. Jaffe, B. G. Johnson,
     J. Ju, R. Kobayashi, R. Kutteh, Z. Lin, R. Littlefield, X. Long, B. Meng,
      T. Nakajima, S. Niu, L. Pollack, M. Rosing, K. Glaesemann, G. Sandrone,
      M. Stave, H. Taylor, G. Thomas, J. H. van Lenthe, A. T. Wong, Z. Zhang.

 Total times  cpu:     9659.3s     wall:    10095.9s
