 argument  1 = naproxen_355.9_052.inp
 


============================== echo of input deck ==============================
echo
start naproxen_355.9_052.inp
title "naproxen roa calculations at 355.9 nm"
charge 0



geometry units angstrom nocenter noautoz noautosym nucleus point;symmetry c1
 O -2.044725 -0.721484 -0.456469
 C -0.679171 -0.646077 -0.540677
 C -0.122811  0.621654 -0.437083
 C  1.281201  0.816325 -0.510245
 C  1.888842  2.096754 -0.405109
 C  3.259486  2.244958 -0.480411
 C  4.113892  1.127221 -0.671533
 C  3.549282 -0.138253 -0.772593
 C  2.147341 -0.321686 -0.696946
 C  0.168355 -1.780169 -0.724318
 C  5.634326  1.349807 -0.764789
 C  6.329982  0.808394  0.490977
 O  6.541073 -0.551062  0.436752
 O  6.660381  1.476158  1.452335
 C  6.258927  0.814497 -2.074913
 H  5.821255  2.429358 -0.711670
 H  5.782625  1.302330 -2.934456
 H  6.117970 -0.266903 -2.173431
 H  7.336538  1.021830 -2.112466
 H  6.953837 -0.790173  1.294244
 H  1.256774  2.972899 -0.260937
 H  3.705637  3.235294 -0.392601
 H  4.164916 -1.028016 -0.901786
 C  1.542189 -1.614999 -0.799435
 H -0.263219 -2.774381 -0.805474
 H  2.174256 -2.492730 -0.940125
 H -0.774870  1.482809 -0.295847
 C -2.683495 -2.008925 -0.553010
 H -2.351745 -2.676062  0.256486
 H -2.474803 -2.481611 -1.524338
 H -3.756992 -1.821955 -0.458449
end

basis spherical
* library def2-TZVP
end

 set prop:newaoresp 1
 set aor:roadata T
 set cphf:maxsub 100
 set cphf:acc 1.0d-10
 set cphf:maxiter 100

property
    response 1   0.128023
    bdtensor
    convergence 1e-7
    damping 0.0037
    giao
end

dft
 direct
 mult 1
 xc becke88 lyp
 iterations 250
 tolerances tight
 grid xfine
 convergence nolevelshifting
 convergence energy 1e-6
 convergence gradient 1e-6


end

task dft gradient
task dft property
================================================================================


                                         
                                         
 
 
              Northwest Computational Chemistry Package (NWChem) 6.8
              ------------------------------------------------------
 
 
                    Environmental Molecular Sciences Laboratory
                       Pacific Northwest National Laboratory
                                Richland, WA 99352
 
                              Copyright (c) 1994-2017
                       Pacific Northwest National Laboratory
                            Battelle Memorial Institute
 
             NWChem is an open-source computational chemistry package
                        distributed under the terms of the
                      Educational Community License (ECL) 2.0
             A copy of the license is included with this distribution
                              in the LICENSE.TXT file
 
                                  ACKNOWLEDGMENT
                                  --------------

            This software and its documentation were developed at the
            EMSL at Pacific Northwest National Laboratory, a multiprogram
            national laboratory, operated for the U.S. Department of Energy
            by Battelle under Contract Number DE-AC05-76RL01830. Support
            for this work was provided by the Department of Energy Office
            of Biological and Environmental Research, Office of Basic
            Energy Sciences, and the Office of Advanced Scientific Computing.


           Job information
           ---------------

    hostname        = cpn-p27-25.cbls.ccr.buffalo.edu
    program         = /util/academic/nwchem/nwchem-6.8/bin/LINUX64/nwchem
    date            = Tue Feb 26 18:54:26 2019

    compiled        = Tue_Nov_06_14:59:08_2018
    source          = /util/academic/nwchem/nwchem-6.8
    nwchem branch   = 6.8
    nwchem revision = v6.8-47-gdf6c956
    ga revision     = ga-5.6.3
    use scalapack   = F
    input           = naproxen_355.9_052.inp
    prefix          = naproxen_355.9_052.inp.
    data base       = ./naproxen_355.9_052.inp.db
    status          = startup
    nproc           =       11
    time left       =     -1s



           Memory information
           ------------------

    heap     =   13107194 doubles =    100.0 Mbytes
    stack    =   13107199 doubles =    100.0 Mbytes
    global   =   26214400 doubles =    200.0 Mbytes (distinct from heap & stack)
    total    =   52428793 doubles =    400.0 Mbytes
    verify   = yes
    hardfail = no 


           Directory information
           ---------------------
 
  0 permanent = .
  0 scratch   = .
 
 
 
 
                                NWChem Input Module
                                -------------------
 
 
                       naproxen roa calculations at 355.9 nm
                       -------------------------------------

 Scaling coordinates for geometry "geometry" by  1.889725989
 (inverse scale =  0.529177249)

 
 
                             Geometry "geometry" -> ""
                             -------------------------
 
 Output coordinates in angstroms (scale by  1.889725989 to convert to a.u.)
 
  No.       Tag          Charge          X              Y              Z
 ---- ---------------- ---------- -------------- -------------- --------------
    1 O                    8.0000    -2.04472500    -0.72148400    -0.45646900
    2 C                    6.0000    -0.67917100    -0.64607700    -0.54067700
    3 C                    6.0000    -0.12281100     0.62165400    -0.43708300
    4 C                    6.0000     1.28120100     0.81632500    -0.51024500
    5 C                    6.0000     1.88884200     2.09675400    -0.40510900
    6 C                    6.0000     3.25948600     2.24495800    -0.48041100
    7 C                    6.0000     4.11389200     1.12722100    -0.67153300
    8 C                    6.0000     3.54928200    -0.13825300    -0.77259300
    9 C                    6.0000     2.14734100    -0.32168600    -0.69694600
   10 C                    6.0000     0.16835500    -1.78016900    -0.72431800
   11 C                    6.0000     5.63432600     1.34980700    -0.76478900
   12 C                    6.0000     6.32998200     0.80839400     0.49097700
   13 O                    8.0000     6.54107300    -0.55106200     0.43675200
   14 O                    8.0000     6.66038100     1.47615800     1.45233500
   15 C                    6.0000     6.25892700     0.81449700    -2.07491300
   16 H                    1.0000     5.82125500     2.42935800    -0.71167000
   17 H                    1.0000     5.78262500     1.30233000    -2.93445600
   18 H                    1.0000     6.11797000    -0.26690300    -2.17343100
   19 H                    1.0000     7.33653800     1.02183000    -2.11246600
   20 H                    1.0000     6.95383700    -0.79017300     1.29424400
   21 H                    1.0000     1.25677400     2.97289900    -0.26093700
   22 H                    1.0000     3.70563700     3.23529400    -0.39260100
   23 H                    1.0000     4.16491600    -1.02801600    -0.90178600
   24 C                    6.0000     1.54218900    -1.61499900    -0.79943500
   25 H                    1.0000    -0.26321900    -2.77438100    -0.80547400
   26 H                    1.0000     2.17425600    -2.49273000    -0.94012500
   27 H                    1.0000    -0.77487000     1.48280900    -0.29584700
   28 C                    6.0000    -2.68349500    -2.00892500    -0.55301000
   29 H                    1.0000    -2.35174500    -2.67606200     0.25648600
   30 H                    1.0000    -2.47480300    -2.48161100    -1.52433800
   31 H                    1.0000    -3.75699200    -1.82195500    -0.45844900
 
      Atomic Mass 
      ----------- 
 
      O                 15.994910
      C                 12.000000
      H                  1.007825
 

 Effective nuclear repulsion energy (a.u.)    1120.9878261118

            Nuclear Dipole moment (a.u.) 
            ----------------------------
        X                 Y               Z
 ---------------- ---------------- ----------------
   602.9663739383    37.7162681081  -102.3105511477
 
 
            XYZ format geometry
            -------------------
    31
 geometry
 O                    -2.04472500    -0.72148400    -0.45646900
 C                    -0.67917100    -0.64607700    -0.54067700
 C                    -0.12281100     0.62165400    -0.43708300
 C                     1.28120100     0.81632500    -0.51024500
 C                     1.88884200     2.09675400    -0.40510900
 C                     3.25948600     2.24495800    -0.48041100
 C                     4.11389200     1.12722100    -0.67153300
 C                     3.54928200    -0.13825300    -0.77259300
 C                     2.14734100    -0.32168600    -0.69694600
 C                     0.16835500    -1.78016900    -0.72431800
 C                     5.63432600     1.34980700    -0.76478900
 C                     6.32998200     0.80839400     0.49097700
 O                     6.54107300    -0.55106200     0.43675200
 O                     6.66038100     1.47615800     1.45233500
 C                     6.25892700     0.81449700    -2.07491300
 H                     5.82125500     2.42935800    -0.71167000
 H                     5.78262500     1.30233000    -2.93445600
 H                     6.11797000    -0.26690300    -2.17343100
 H                     7.33653800     1.02183000    -2.11246600
 H                     6.95383700    -0.79017300     1.29424400
 H                     1.25677400     2.97289900    -0.26093700
 H                     3.70563700     3.23529400    -0.39260100
 H                     4.16491600    -1.02801600    -0.90178600
 C                     1.54218900    -1.61499900    -0.79943500
 H                    -0.26321900    -2.77438100    -0.80547400
 H                     2.17425600    -2.49273000    -0.94012500
 H                    -0.77487000     1.48280900    -0.29584700
 C                    -2.68349500    -2.00892500    -0.55301000
 H                    -2.35174500    -2.67606200     0.25648600
 H                    -2.47480300    -2.48161100    -1.52433800
 H                    -3.75699200    -1.82195500    -0.45844900
 
 ==============================================================================
                                internuclear distances
 ------------------------------------------------------------------------------
       center one      |      center two      | atomic units |  angstroms
 ------------------------------------------------------------------------------
    2 C                |   1 O                |     2.58935  |     1.37022
    3 C                |   2 C                |     2.62353  |     1.38831
    4 C                |   3 C                |     2.68215  |     1.41933
    5 C                |   4 C                |     2.68566  |     1.42119
    6 C                |   5 C                |     2.60912  |     1.38069
    7 C                |   6 C                |     2.68306  |     1.41981
    8 C                |   7 C                |     2.62558  |     1.38940
    9 C                |   4 C                |     2.72548  |     1.44226
    9 C                |   8 C                |     2.67569  |     1.41591
   10 C                |   2 C                |     2.69787  |     1.42765
   11 C                |   7 C                |     2.90917  |     1.53947
   12 C                |  11 C                |     2.89937  |     1.53428
   13 O                |  12 C                |     2.60180  |     1.37682
   14 O                |  12 C                |     2.29839  |     1.21626
   15 C                |  11 C                |     2.92334  |     1.54697
   16 H                |  11 C                |     2.07284  |     1.09690
   17 H                |  15 C                |     2.07324  |     1.09711
   18 H                |  15 C                |     2.06923  |     1.09499
   19 H                |  15 C                |     2.07495  |     1.09802
   20 H                |  13 O                |     1.85428  |     0.98124
   21 H                |   5 C                |     2.05965  |     1.08992
   22 H                |   6 C                |     2.05930  |     1.08974
   23 H                |   8 C                |     2.05917  |     1.08967
   24 C                |   9 C                |     2.70526  |     1.43156
   24 C                |  10 C                |     2.61872  |     1.38576
   25 H                |  10 C                |     2.05390  |     1.08688
   26 H                |  24 C                |     2.06120  |     1.09074
   27 H                |   3 C                |     2.05860  |     1.08937
   28 C                |   1 O                |     2.72203  |     1.44043
   29 H                |  28 C                |     2.07905  |     1.10019
   30 H                |  28 C                |     2.07910  |     1.10021
   31 H                |  28 C                |     2.06689  |     1.09375
 ------------------------------------------------------------------------------
                         number of included internuclear distances:         32
 ==============================================================================



 ==============================================================================
                                 internuclear angles
 ------------------------------------------------------------------------------
        center 1       |       center 2       |       center 3       |  degrees
 ------------------------------------------------------------------------------
    2 C                |   1 O                |  28 C                |   119.14
    1 O                |   2 C                |   3 C                |   116.43
    1 O                |   2 C                |  10 C                |   123.77
    3 C                |   2 C                |  10 C                |   119.81
    2 C                |   3 C                |   4 C                |   121.19
    2 C                |   3 C                |  27 H                |   119.45
    4 C                |   3 C                |  27 H                |   119.36
    3 C                |   4 C                |   5 C                |   122.87
    3 C                |   4 C                |   9 C                |   119.51
    5 C                |   4 C                |   9 C                |   117.63
    4 C                |   5 C                |   6 C                |   121.14
    4 C                |   5 C                |  21 H                |   119.08
    6 C                |   5 C                |  21 H                |   119.78
    5 C                |   6 C                |   7 C                |   121.35
    5 C                |   6 C                |  22 H                |   119.97
    7 C                |   6 C                |  22 H                |   118.68
    6 C                |   7 C                |   8 C                |   118.83
    6 C                |   7 C                |  11 C                |   119.25
    8 C                |   7 C                |  11 C                |   121.91
    7 C                |   8 C                |   9 C                |   121.10
    7 C                |   8 C                |  23 H                |   121.52
    9 C                |   8 C                |  23 H                |   117.38
    4 C                |   9 C                |   8 C                |   119.95
    4 C                |   9 C                |  24 C                |   117.92
    8 C                |   9 C                |  24 C                |   122.12
    2 C                |  10 C                |  24 C                |   120.05
    2 C                |  10 C                |  25 H                |   120.04
   24 C                |  10 C                |  25 H                |   119.91
    7 C                |  11 C                |  12 C                |   110.32
    7 C                |  11 C                |  15 C                |   113.58
    7 C                |  11 C                |  16 H                |   107.92
   12 C                |  11 C                |  15 C                |   112.83
   12 C                |  11 C                |  16 H                |   103.32
   15 C                |  11 C                |  16 H                |   108.23
   11 C                |  12 C                |  13 O                |   112.69
   11 C                |  12 C                |  14 O                |   125.20
   13 O                |  12 C                |  14 O                |   122.11
   12 C                |  13 O                |  20 H                |   105.71
   11 C                |  15 C                |  17 H                |   109.53
   11 C                |  15 C                |  18 H                |   111.47
   11 C                |  15 C                |  19 H                |   111.09
   17 H                |  15 C                |  18 H                |   108.23
   17 H                |  15 C                |  19 H                |   108.38
   18 H                |  15 C                |  19 H                |   108.04
    9 C                |  24 C                |  10 C                |   121.53
    9 C                |  24 C                |  26 H                |   119.42
   10 C                |  24 C                |  26 H                |   119.05
    1 O                |  28 C                |  29 H                |   111.04
    1 O                |  28 C                |  30 H                |   111.04
    1 O                |  28 C                |  31 H                |   106.06
   29 H                |  28 C                |  30 H                |   109.38
   29 H                |  28 C                |  31 H                |   109.63
   30 H                |  28 C                |  31 H                |   109.63
 ------------------------------------------------------------------------------
                            number of included internuclear angles:         53
 ==============================================================================



  warning:::::::::::::: from_environment
  NWCHEM_BASIS_LIBRARY set to: <
 /util/academic/nwchem/nwchem-6.8/src/basis/libraries>
  but file does not exist !
  using .nwchemrc or compiled library


 Summary of "ao basis" -> "" (spherical)
 ------------------------------------------------------------------------------
       Tag                 Description            Shells   Functions and Types
 ---------------- ------------------------------  ------  ---------------------
 *                         def2-TZVP                  on all atoms 


 
                                 NWChem DFT Module
                                 -----------------
 
 
                       naproxen roa calculations at 355.9 nm
 
 
                      Basis "ao basis" -> "ao basis" (spherical)
                      -----
  O (Oxygen)
  ----------
            Exponent  Coefficients 
       -------------- ---------------------------------------------------------
  1 S  2.70323826E+04  0.000217
  1 S  4.05238714E+03  0.001684
  1 S  9.22327227E+02  0.008740
  1 S  2.61240710E+02  0.035240
  1 S  8.53546414E+01  0.111535
  1 S  3.10350352E+01  0.255890
 
  2 S  1.22608607E+01  0.397687
  2 S  4.99870760E+00  0.246278
 
  3 S  1.17031082E+00  1.000000
 
  4 S  4.64747410E-01  1.000000
 
  5 S  1.85045364E-01  1.000000
 
  6 P  6.32749548E+01  0.006069
  6 P  1.46270494E+01  0.041913
  6 P  4.45012235E+00  0.161538
  6 P  1.52757996E+00  0.357070
 
  7 P  5.29351179E-01  1.000000
 
  8 P  1.74784213E-01  1.000000
 
  9 D  2.31400000E+00  1.000000
 
 10 D  6.45000000E-01  1.000000
 
 11 F  1.42800000E+00  1.000000
 
  C (Carbon)
  ----------
            Exponent  Coefficients 
       -------------- ---------------------------------------------------------
  1 S  1.35753497E+04  0.000222
  1 S  2.03523337E+03  0.001723
  1 S  4.63225624E+02  0.008926
  1 S  1.31200196E+02  0.035728
  1 S  4.28530159E+01  0.110763
  1 S  1.55841858E+01  0.242956
 
  2 S  6.20671385E+00  0.414403
  2 S  2.57648965E+00  0.237450
 
  3 S  5.76963394E-01  1.000000
 
  4 S  2.29728314E-01  1.000000
 
  5 S  9.51644400E-02  1.000000
 
  6 P  3.46972322E+01  0.005333
  6 P  7.95826228E+00  0.035864
  6 P  2.37808269E+00  0.142159
  6 P  8.14332082E-01  0.342705
 
  7 P  2.88875473E-01  1.000000
 
  8 P  1.00568237E-01  1.000000
 
  9 D  1.09700000E+00  1.000000
 
 10 D  3.18000000E-01  1.000000
 
 11 F  7.61000000E-01  1.000000
 
  H (Hydrogen)
  ------------
            Exponent  Coefficients 
       -------------- ---------------------------------------------------------
  1 S  3.40613410E+01  0.006025
  1 S  5.12357460E+00  0.045021
  1 S  1.16466260E+00  0.201897
 
  2 S  3.27230410E-01  1.000000
 
  3 S  1.03072410E-01  1.000000
 
  4 P  8.00000000E-01  1.000000
 


 Summary of "ao basis" -> "ao basis" (spherical)
 ------------------------------------------------------------------------------
       Tag                 Description            Shells   Functions and Types
 ---------------- ------------------------------  ------  ---------------------
 O                         def2-TZVP                11       31   5s3p2d1f
 C                         def2-TZVP                11       31   5s3p2d1f
 H                         def2-TZVP                 4        6   3s1p




 Summary of "ao basis" -> "ao basis" (spherical)
 ------------------------------------------------------------------------------
       Tag                 Description            Shells   Functions and Types
 ---------------- ------------------------------  ------  ---------------------
 O                         def2-TZVP                11       31   5s3p2d1f
 C                         def2-TZVP                11       31   5s3p2d1f
 H                         def2-TZVP                 4        6   3s1p


  Caching 1-el integrals 
 
            General Information
            -------------------
          SCF calculation type: DFT
          Wavefunction type:  closed shell.
          No. of atoms     :    31
          No. of electrons :   122
           Alpha electrons :    61
            Beta electrons :    61
          Charge           :     0
          Spin multiplicity:     1
          Use of symmetry is: off; symmetry adaption is: off
          Maximum number of iterations: 250
          This is a Direct SCF calculation.
          AO basis - number of functions:   611
                     number of shells:   243
          Convergence on energy requested:  1.00D-06
          Convergence on density requested:  1.00D-05
          Convergence on gradient requested:  1.00D-06
 
              XC Information
              --------------
                    Becke 1988 Exchange Functional  1.000          
              Lee-Yang-Parr Correlation Functional  1.000          
 
             Grid Information
             ----------------
          Grid used for XC integration:  xfine     
          Radial quadrature: Mura-Knowles        
          Angular quadrature: Lebedev. 
          Tag              B.-S. Rad. Rad. Pts. Rad. Cut. Ang. Pts.
          ---              ---------- --------- --------- ---------
          O                   0.60      100          18.0      1454
          C                   0.70      100          20.0      1454
          H                   0.35      100          19.0      1202
          Grid pruning is: on 
          Number of quadrature shells:  3100
          Spatial weights used:  Erf1
 
          Convergence Information
          -----------------------
          Convergence aids based upon iterative change in 
          total energy or number of iterations. 
          Levelshifting, if invoked, occurs when the 
          HOMO/LUMO gap drops below (HL_TOL):  1.00D-02
          DIIS, if invoked, will attempt to extrapolate 
          using up to (NFOCK): 10 stored Fock matrices.

                    Damping( 0%)  Levelshifting(0.0)       DIIS
                  --------------- ------------------- ---------------
          dE  on:    start             N/A                start   
          dE off:    2 iters           N/A              250 iters 

 
      Screening Tolerance Information
      -------------------------------
          Density screening/tol_rho:  1.00D-10
          AO Gaussian exp screening on grid/accAOfunc:  14
          CD Gaussian exp screening on grid/accCDfunc:  20
          XC Gaussian exp screening on grid/accXCfunc:  20
          Schwarz screening/accCoul:  1.00D-08

 
 WARNING : Found     2 linear dependencies 
 S eigenvalue threshold:     1.00000E-05
 Smallest S eigenvalue :     5.91960E-06
 Largest  S eigenvalue :     7.52663E-06
 

 !! The overlap matrix has   2 vectors deemed linearly dependent with
    eigenvalues:
 5.92D-06 7.53D-06
 
 
      Superposition of Atomic Density Guess
      -------------------------------------
 
 Sum of atomic energies:        -758.74884536
 
      Non-variational initial energy
      ------------------------------

 Total energy =    -769.921400
 1-e energy   =   -3254.515244
 2-e energy   =    1363.606017
 HOMO         =      -0.232302
 LUMO         =      -0.059099
 
   Time after variat. SCF:     45.4
   Time prior to 1st pass:     45.4

 Grid_pts file          = ./naproxen_355.9_052.inp.gridpts.00
 Record size in doubles =  12289        No. of grid_pts per rec  =   3070
 Max. records in memory =    148        Max. recs in file   =    264013

 Grid integrated density:     121.999629424069
 Requested integration accuracy:   0.10E-07

           Memory utilization after 1st SCF pass: 
           Heap Space remaining (MW):       11.15            11149714
          Stack Space remaining (MW):       13.10            13102884

   convergence    iter        energy       DeltaE   RMS-Dens  Diis-err    time
 ---------------- ----- ----------------- --------- --------- ---------  ------
 d= 0,ls=0.0,diis     1   -767.2415505137 -1.89D+03  5.49D-03  4.15D+00   106.3
 Grid integrated density:     122.000001307983
 Requested integration accuracy:   0.10E-07
 d= 0,ls=0.0,diis     2   -766.6570113193  5.85D-01  4.12D-03  9.92D+00   165.8
 Grid integrated density:     122.000001299393
 Requested integration accuracy:   0.10E-07
 d= 0,ls=0.0,diis     3   -767.4255460243 -7.69D-01  2.23D-03  2.19D+00   225.4
 Grid integrated density:     122.000001392522
 Requested integration accuracy:   0.10E-07
 d= 0,ls=0.0,diis     4   -767.5753359753 -1.50D-01  1.04D-03  5.84D-01   284.9
 Grid integrated density:     122.000001381976
 Requested integration accuracy:   0.10E-07
 d= 0,ls=0.0,diis     5   -767.6235300165 -4.82D-02  3.27D-04  5.02D-02   344.4
 Grid integrated density:     122.000001362947
 Requested integration accuracy:   0.10E-07
 d= 0,ls=0.0,diis     6   -767.6270513913 -3.52D-03  1.36D-04  1.21D-02   404.0
 Grid integrated density:     122.000001361468
 Requested integration accuracy:   0.10E-07
 d= 0,ls=0.0,diis     7   -767.6285531170 -1.50D-03  5.30D-05  1.54D-03   463.5
 Grid integrated density:     122.000001364658
 Requested integration accuracy:   0.10E-07
 d= 0,ls=0.0,diis     8   -767.6287343460 -1.81D-04  1.99D-05  1.87D-04   523.1
 Grid integrated density:     122.000001365096
 Requested integration accuracy:   0.10E-07
 d= 0,ls=0.0,diis     9   -767.6287582442 -2.39D-05  6.41D-06  1.77D-05   582.7
 Grid integrated density:     122.000001364775
 Requested integration accuracy:   0.10E-07
 d= 0,ls=0.0,diis    10   -767.6287601348 -1.89D-06  2.30D-06  2.61D-06   642.4
 Grid integrated density:     122.000001364751
 Requested integration accuracy:   0.10E-07
 d= 0,ls=0.0,diis    11   -767.6287604103 -2.76D-07  1.03D-06  4.89D-07   702.0


         Total DFT energy =     -767.628760410342
      One electron energy =    -3268.493833491969
           Coulomb energy =     1486.681936165018
    Exchange-Corr. energy =     -106.804689195165
 Nuclear repulsion energy =     1120.987826111774

 Numeric. integr. density =      122.000001364751

     Total iterative time =    656.6s


 
                       DFT Final Molecular Orbital Analysis
                       ------------------------------------
 
 Vector    1  Occ=2.000000D+00  E=-1.881998D+01
              MO Center=  6.5D+00, -5.5D-01,  4.4D-01, r^2= 1.5D-02
   Bfn.  Coefficient  Atom+Function         Bfn.  Coefficient  Atom+Function  
  ----- ------------  ---------------      ----- ------------  ---------------
   374      0.638457  13 O  s               373      0.435410  13 O  s         
   375      0.039857  13 O  s               376     -0.034305  13 O  s         
 
 Vector    2  Occ=2.000000D+00  E=-1.880777D+01
              MO Center= -2.0D+00, -7.2D-01, -4.6D-01, r^2= 1.5D-02
   Bfn.  Coefficient  Atom+Function         Bfn.  Coefficient  Atom+Function  
  ----- ------------  ---------------      ----- ------------  ---------------
     2      0.638262   1 O  s                 1      0.435458   1 O  s         
     3      0.041774   1 O  s                 4     -0.039795   1 O  s         
 
 Vector    3  Occ=2.000000D+00  E=-1.876332D+01
              MO Center=  6.7D+00,  1.5D+00,  1.5D+00, r^2= 1.5D-02
   Bfn.  Coefficient  Atom+Function         Bfn.  Coefficient  Atom+Function  
  ----- ------------  ---------------      ----- ------------  ---------------
   405      0.638441  14 O  s               404      0.435401  14 O  s         
   406      0.039988  14 O  s               407     -0.036648  14 O  s         
 
 Vector    4  Occ=2.000000D+00  E=-1.003430D+01
              MO Center=  6.3D+00,  8.1D-01,  4.9D-01, r^2= 2.8D-02
   Bfn.  Coefficient  Atom+Function         Bfn.  Coefficient  Atom+Function  
  ----- ------------  ---------------      ----- ------------  ---------------
   343      0.606446  12 C  s               342      0.467377  12 C  s         
   344      0.043238  12 C  s         
 
 Vector    5  Occ=2.000000D+00  E=-9.971120D+00
              MO Center= -6.8D-01, -6.5D-01, -5.4D-01, r^2= 2.8D-02
   Bfn.  Coefficient  Atom+Function         Bfn.  Coefficient  Atom+Function  
  ----- ------------  ---------------      ----- ------------  ---------------
    33      0.606490   2 C  s                32      0.467316   2 C  s         
    34      0.047462   2 C  s                35     -0.033218   2 C  s         
   106      0.026443   4 C  py              260     -0.025283   9 C  px        
 
 Vector    6  Occ=2.000000D+00  E=-9.967079D+00
              MO Center= -2.7D+00, -2.0D+00, -5.5D-01, r^2= 2.8D-02
   Bfn.  Coefficient  Atom+Function         Bfn.  Coefficient  Atom+Function  
  ----- ------------  ---------------      ----- ------------  ---------------
   564      0.607007  28 C  s               563      0.467299  28 C  s         
   565      0.040049  28 C  s               567      0.027654  28 C  s         
 
 Vector    7  Occ=2.000000D+00  E=-9.935074D+00
              MO Center=  5.6D+00,  1.3D+00, -7.6D-01, r^2= 2.8D-02
   Bfn.  Coefficient  Atom+Function         Bfn.  Coefficient  Atom+Function  
  ----- ------------  ---------------      ----- ------------  ---------------
   312      0.606566  11 C  s               311      0.467317  11 C  s         
   315      0.091985  11 C  s               314     -0.051585  11 C  s         
   313      0.048555  11 C  s         
 
 Vector    8  Occ=2.000000D+00  E=-9.922064D+00
              MO Center=  4.1D+00,  1.1D+00, -6.7D-01, r^2= 3.0D-02
   Bfn.  Coefficient  Atom+Function         Bfn.  Coefficient  Atom+Function  
  ----- ------------  ---------------      ----- ------------  ---------------
   188      0.606186   7 C  s               187      0.467157   7 C  s         
   189      0.053474   7 C  s               190     -0.050926   7 C  s         
   191      0.043940   7 C  s               159      0.029223   6 C  s         
 
 Vector    9  Occ=2.000000D+00  E=-9.920896D+00
              MO Center=  1.3D+00,  8.2D-01, -5.1D-01, r^2= 3.2D-02
   Bfn.  Coefficient  Atom+Function         Bfn.  Coefficient  Atom+Function  
  ----- ------------  ---------------      ----- ------------  ---------------
    95      0.605740   4 C  s                94      0.466899   4 C  s         
    97     -0.061777   4 C  s                96      0.055869   4 C  s         
   252      0.053408   9 C  s                66      0.037915   3 C  s         
   128      0.032698   5 C  s               315      0.028531  11 C  s         
 
 Vector   10  Occ=2.000000D+00  E=-9.918263D+00
              MO Center=  2.1D+00, -3.7D-01, -7.0D-01, r^2= 1.1D-01
   Bfn.  Coefficient  Atom+Function         Bfn.  Coefficient  Atom+Function  
  ----- ------------  ---------------      ----- ------------  ---------------
   250      0.593657   9 C  s               249      0.457582   9 C  s         
   515      0.120073  24 C  s               514      0.092333  24 C  s         
   252     -0.057344   9 C  s                97      0.055629   4 C  s         
   251      0.054785   9 C  s               221      0.037993   8 C  s         
   517      0.031572  24 C  s         
 
 Vector   11  Occ=2.000000D+00  E=-9.917612D+00
              MO Center=  1.5D+00, -1.6D+00, -7.9D-01, r^2= 1.6D-01
   Bfn.  Coefficient  Atom+Function         Bfn.  Coefficient  Atom+Function  
  ----- ------------  ---------------      ----- ------------  ---------------
   515      0.586490  24 C  s               514      0.451725  24 C  s         
   250     -0.119971   9 C  s               281      0.097795  10 C  s         
   249     -0.092623   9 C  s               280      0.075152  10 C  s         
   516      0.044839  24 C  s               252      0.043532   9 C  s         
   261     -0.033177   9 C  py              253     -0.031356   9 C  s         
 
 Vector   12  Occ=2.000000D+00  E=-9.916375D+00
              MO Center=  2.0D-01, -1.8D+00, -7.3D-01, r^2= 7.8D-02
   Bfn.  Coefficient  Atom+Function         Bfn.  Coefficient  Atom+Function  
  ----- ------------  ---------------      ----- ------------  ---------------
   281      0.598650  10 C  s               280      0.461019  10 C  s         
   515     -0.097978  24 C  s               514     -0.075623  24 C  s         
   282      0.043504  10 C  s         
 
 Vector   13  Occ=2.000000D+00  E=-9.910475D+00
              MO Center=  3.2D+00,  2.2D+00, -4.8D-01, r^2= 9.0D-02
   Bfn.  Coefficient  Atom+Function         Bfn.  Coefficient  Atom+Function  
  ----- ------------  ---------------      ----- ------------  ---------------
   157      0.598572   6 C  s               156      0.460966   6 C  s         
   126      0.092265   5 C  s               125      0.070923   5 C  s         
   158      0.044380   6 C  s               219     -0.034707   8 C  s         
   218     -0.026822   8 C  s         
 
 Vector   14  Occ=2.000000D+00  E=-9.910269D+00
              MO Center=  3.5D+00, -1.3D-01, -7.7D-01, r^2= 4.9D-02
   Bfn.  Coefficient  Atom+Function         Bfn.  Coefficient  Atom+Function  
  ----- ------------  ---------------      ----- ------------  ---------------
   219      0.605260   8 C  s               218      0.466297   8 C  s         
   220      0.047459   8 C  s               157      0.035149   6 C  s         
   315      0.032546  11 C  s               252      0.031030   9 C  s         
   156      0.027010   6 C  s         
 
 Vector   15  Occ=2.000000D+00  E=-9.909071D+00
              MO Center=  1.9D+00,  2.1D+00, -4.1D-01, r^2= 7.2D-02
   Bfn.  Coefficient  Atom+Function         Bfn.  Coefficient  Atom+Function  
  ----- ------------  ---------------      ----- ------------  ---------------
   126      0.599481   5 C  s               125      0.461764   5 C  s         
   157     -0.091892   6 C  s               156     -0.070922   6 C  s         
   127      0.045228   5 C  s               106      0.033373   4 C  py        
    97      0.029525   4 C  s                98     -0.026486   4 C  s         
   260     -0.026551   9 C  px        
 
 Vector   16  Occ=2.000000D+00  E=-9.907358D+00
              MO Center=  6.3D+00,  8.1D-01, -2.1D+00, r^2= 2.8D-02
   Bfn.  Coefficient  Atom+Function         Bfn.  Coefficient  Atom+Function  
  ----- ------------  ---------------      ----- ------------  ---------------
   436      0.606867  15 C  s               435      0.467240  15 C  s         
   437      0.042019  15 C  s               439      0.036026  15 C  s         
   438     -0.027412  15 C  s         
 
 Vector   17  Occ=2.000000D+00  E=-9.905376D+00
              MO Center= -1.2D-01,  6.2D-01, -4.4D-01, r^2= 2.8D-02
   Bfn.  Coefficient  Atom+Function         Bfn.  Coefficient  Atom+Function  
  ----- ------------  ---------------      ----- ------------  ---------------
    64      0.606493   3 C  s                63      0.467190   3 C  s         
    65      0.046185   3 C  s               105     -0.034030   4 C  px        
    97      0.029094   4 C  s         
 
 Vector   18  Occ=2.000000D+00  E=-1.002031D+00
              MO Center=  6.6D+00,  2.1D-01,  7.5D-01, r^2= 1.1D+00
   Bfn.  Coefficient  Atom+Function         Bfn.  Coefficient  Atom+Function  
  ----- ------------  ---------------      ----- ------------  ---------------
   376      0.331927  13 O  s               375      0.253331  13 O  s         
   407      0.193120  14 O  s               344      0.189324  12 C  s         
   374     -0.174084  13 O  s               406      0.164792  14 O  s         
   345      0.146701  12 C  s               343     -0.117260  12 C  s         
   405     -0.111979  14 O  s               377      0.104099  13 O  s         
 
 Vector   19  Occ=2.000000D+00  E=-9.681371D-01
              MO Center= -1.9D+00, -8.8D-01, -4.9D-01, r^2= 6.8D-01
   Bfn.  Coefficient  Atom+Function         Bfn.  Coefficient  Atom+Function  
  ----- ------------  ---------------      ----- ------------  ---------------
     4      0.424007   1 O  s                 3      0.309647   1 O  s         
     2     -0.214769   1 O  s                 5      0.137299   1 O  s         
    34      0.128367   2 C  s               565      0.100685  28 C  s         
     1     -0.092320   1 O  s                35      0.089873   2 C  s         
    37     -0.082139   2 C  px               33     -0.078743   2 C  s         
 
 Vector   20  Occ=2.000000D+00  E=-9.200345D-01
              MO Center=  6.6D+00,  7.1D-01,  9.7D-01, r^2= 1.3D+00
   Bfn.  Coefficient  Atom+Function         Bfn.  Coefficient  Atom+Function  
  ----- ------------  ---------------      ----- ------------  ---------------
   407      0.325980  14 O  s               376     -0.284046  13 O  s         
   406      0.268737  14 O  s               375     -0.207919  13 O  s         
   405     -0.180224  14 O  s               374      0.142152  13 O  s         
   348      0.137710  12 C  py              408      0.113887  14 O  s         
   377     -0.106354  13 O  s               349      0.105414  12 C  pz        
 
 Vector   21  Occ=2.000000D+00  E=-7.877186D-01
              MO Center=  2.0D+00,  3.6D-01, -6.1D-01, r^2= 3.9D+00
   Bfn.  Coefficient  Atom+Function         Bfn.  Coefficient  Atom+Function  
  ----- ------------  ---------------      ----- ------------  ---------------
   251      0.157810   9 C  s                96      0.155427   4 C  s         
   252      0.141264   9 C  s                97      0.138530   4 C  s         
   220      0.117993   8 C  s               189      0.112257   7 C  s         
   190      0.110056   7 C  s               127      0.107893   5 C  s         
   250     -0.101781   9 C  s               516      0.101162  24 C  s         
 
 Vector   22  Occ=2.000000D+00  E=-7.497005D-01
              MO Center=  2.7D+00,  3.5D-01, -6.7D-01, r^2= 8.3D+00
   Bfn.  Coefficient  Atom+Function         Bfn.  Coefficient  Atom+Function  
  ----- ------------  ---------------      ----- ------------  ---------------
   189      0.158360   7 C  s               190      0.157833   7 C  s         
   314      0.157196  11 C  s               313      0.136911  11 C  s         
   282     -0.120280  10 C  s                34     -0.113804   2 C  s         
    35     -0.110897   2 C  s               158      0.108114   6 C  s         
   283     -0.104511  10 C  s                65     -0.102656   3 C  s         
 
 Vector   23  Occ=2.000000D+00  E=-7.134891D-01
              MO Center=  3.4D+00,  6.7D-01, -7.5D-01, r^2= 9.5D+00
   Bfn.  Coefficient  Atom+Function         Bfn.  Coefficient  Atom+Function  
  ----- ------------  ---------------      ----- ------------  ---------------
   314      0.212560  11 C  s               313      0.171104  11 C  s         
   127     -0.139886   5 C  s               437      0.129455  15 C  s         
   128     -0.124750   5 C  s               438      0.122609  15 C  s         
   282      0.115662  10 C  s               312     -0.112160  11 C  s         
   283      0.105962  10 C  s                34      0.096648   2 C  s         
 
 Vector   24  Occ=2.000000D+00  E=-6.945234D-01
              MO Center=  1.1D+00, -2.1D-01, -6.2D-01, r^2= 6.3D+00
   Bfn.  Coefficient  Atom+Function         Bfn.  Coefficient  Atom+Function  
  ----- ------------  ---------------      ----- ------------  ---------------
   252     -0.168534   9 C  s                65      0.154497   3 C  s         
   516     -0.154830  24 C  s               251     -0.137627   9 C  s         
   517     -0.128827  24 C  s               220     -0.126883   8 C  s         
    66      0.126185   3 C  s                35      0.120911   2 C  s         
    34      0.107703   2 C  s                97      0.106195   4 C  s         
 
 Vector   25  Occ=2.000000D+00  E=-6.626558D-01
              MO Center=  1.6D+00,  1.4D-01, -7.1D-01, r^2= 1.3D+01
   Bfn.  Coefficient  Atom+Function         Bfn.  Coefficient  Atom+Function  
  ----- ------------  ---------------      ----- ------------  ---------------
    97      0.166313   4 C  s               566      0.158623  28 C  s         
   565      0.154385  28 C  s                96      0.149527   4 C  s         
   190     -0.136773   7 C  s                35     -0.125152   2 C  s         
   189     -0.118380   7 C  s               438      0.118049  15 C  s         
   437      0.114818  15 C  s               158     -0.112492   6 C  s         
 
 Vector   26  Occ=2.000000D+00  E=-6.561404D-01
              MO Center=  1.2D+00, -2.0D-01, -6.2D-01, r^2= 7.9D+00
   Bfn.  Coefficient  Atom+Function         Bfn.  Coefficient  Atom+Function  
  ----- ------------  ---------------      ----- ------------  ---------------
   283      0.178092  10 C  s               282      0.168414  10 C  s         
   158      0.145870   6 C  s               159      0.145900   6 C  s         
   221     -0.146573   8 C  s               220     -0.145249   8 C  s         
   128      0.121551   5 C  s               566      0.121702  28 C  s         
   252     -0.117762   9 C  s               127      0.116304   5 C  s         
 
 Vector   27  Occ=2.000000D+00  E=-6.188297D-01
              MO Center=  8.8D-01, -3.1D-01, -7.7D-01, r^2= 1.4D+01
   Bfn.  Coefficient  Atom+Function         Bfn.  Coefficient  Atom+Function  
  ----- ------------  ---------------      ----- ------------  ---------------
   566      0.191490  28 C  s               565      0.179974  28 C  s         
    66      0.155119   3 C  s                65      0.137246   3 C  s         
   190      0.131526   7 C  s               438     -0.131469  15 C  s         
   437     -0.121229  15 C  s                 4     -0.117852   1 O  s         
   189      0.113885   7 C  s               128     -0.110972   5 C  s         
 
 Vector   28  Occ=2.000000D+00  E=-5.956584D-01
              MO Center=  5.5D+00,  4.3D-01, -9.1D-01, r^2= 7.7D+00
   Bfn.  Coefficient  Atom+Function         Bfn.  Coefficient  Atom+Function  
  ----- ------------  ---------------      ----- ------------  ---------------
   438      0.235849  15 C  s               437      0.208295  15 C  s         
   345     -0.158426  12 C  s               344     -0.153905  12 C  s         
   436     -0.130968  15 C  s               314     -0.129640  11 C  s         
   318     -0.111799  11 C  pz              379     -0.111147  13 O  py        
   349      0.096091  12 C  pz              407      0.092361  14 O  s         
 
 Vector   29  Occ=2.000000D+00  E=-5.677249D-01
              MO Center=  2.6D+00,  3.6D-02, -4.5D-01, r^2= 9.7D+00
   Bfn.  Coefficient  Atom+Function         Bfn.  Coefficient  Atom+Function  
  ----- ------------  ---------------      ----- ------------  ---------------
   221      0.154453   8 C  s               517     -0.139610  24 C  s         
   283      0.129298  10 C  s               516     -0.119703  24 C  s         
    66     -0.114071   3 C  s               159     -0.110029   6 C  s         
   282      0.110337  10 C  s               220      0.109397   8 C  s         
   128      0.108754   5 C  s               193     -0.107308   7 C  py        
 
 Vector   30  Occ=2.000000D+00  E=-5.459867D-01
              MO Center=  2.8D+00,  2.2D-01, -3.6D-01, r^2= 1.2D+01
   Bfn.  Coefficient  Atom+Function         Bfn.  Coefficient  Atom+Function  
  ----- ------------  ---------------      ----- ------------  ---------------
    97      0.172308   4 C  s               379     -0.135530  13 O  py        
   159     -0.130760   6 C  s                96      0.129188   4 C  s         
   158     -0.114150   6 C  s               314      0.111789  11 C  s         
   345     -0.105244  12 C  s               382     -0.105365  13 O  py        
   283      0.102741  10 C  s                38     -0.099457   2 C  py        
 
 Vector   31  Occ=2.000000D+00  E=-5.347771D-01
              MO Center=  1.6D+00, -2.4D-02, -6.2D-01, r^2= 5.9D+00
   Bfn.  Coefficient  Atom+Function         Bfn.  Coefficient  Atom+Function  
  ----- ------------  ---------------      ----- ------------  ---------------
   252      0.176901   9 C  s               517     -0.142440  24 C  s         
   251      0.134179   9 C  s                66     -0.123670   3 C  s         
    35      0.122339   2 C  s               100     -0.121116   4 C  py        
   516     -0.115027  24 C  s               221     -0.110267   8 C  s         
   128     -0.098423   5 C  s               520      0.098206  24 C  py        
 
 Vector   32  Occ=2.000000D+00  E=-5.186133D-01
              MO Center=  3.5D+00,  3.1D-01, -3.9D-01, r^2= 1.3D+01
   Bfn.  Coefficient  Atom+Function         Bfn.  Coefficient  Atom+Function  
  ----- ------------  ---------------      ----- ------------  ---------------
   314      0.181234  11 C  s               379     -0.152612  13 O  py        
   190     -0.120999   7 C  s               348      0.119929  12 C  py        
   382     -0.120090  13 O  py              128      0.116954   5 C  s         
   313      0.112971  11 C  s               127      0.100379   5 C  s         
    35      0.096210   2 C  s               189     -0.094268   7 C  s         
 
 Vector   33  Occ=2.000000D+00  E=-4.770246D-01
              MO Center= -1.0D-01, -6.9D-01, -5.7D-01, r^2= 9.2D+00
   Bfn.  Coefficient  Atom+Function         Bfn.  Coefficient  Atom+Function  
  ----- ------------  ---------------      ----- ------------  ---------------
     6      0.204972   1 O  px              569     -0.169706  28 C  py        
    37     -0.167919   2 C  px                9      0.163920   1 O  px        
   572     -0.107831  28 C  py                7      0.106428   1 O  py        
   131     -0.095922   5 C  py              286     -0.096269  10 C  py        
    40     -0.094564   2 C  px              221     -0.093806   8 C  s         
 
 Vector   34  Occ=2.000000D+00  E=-4.593264D-01
              MO Center=  2.1D+00,  8.3D-02, -6.1D-01, r^2= 9.9D+00
   Bfn.  Coefficient  Atom+Function         Bfn.  Coefficient  Atom+Function  
  ----- ------------  ---------------      ----- ------------  ---------------
   286     -0.136394  10 C  py              254      0.131099   9 C  px        
   223     -0.120590   8 C  px              546      0.120142  25 H  s         
   128     -0.115784   5 C  s               283      0.109199  10 C  s         
    66      0.107770   3 C  s               190     -0.108296   7 C  s         
    69      0.104869   3 C  py               35     -0.103926   2 C  s         
 
 Vector   35  Occ=2.000000D+00  E=-4.538817D-01
              MO Center=  1.9D+00,  2.9D-01, -4.8D-01, r^2= 1.2D+01
   Bfn.  Coefficient  Atom+Function         Bfn.  Coefficient  Atom+Function  
  ----- ------------  ---------------      ----- ------------  ---------------
    38      0.127447   2 C  py              285      0.106558  10 C  px        
    68     -0.104827   3 C  px               99      0.102874   4 C  px        
     6     -0.101760   1 O  px              161     -0.101860   6 C  px        
   224      0.098877   8 C  py              316      0.098483  11 C  px        
   519     -0.094906  24 C  px              192     -0.092010   7 C  px        
 
 Vector   36  Occ=2.000000D+00  E=-4.252339D-01
              MO Center=  5.6D+00,  5.0D-01,  2.2D-01, r^2= 7.5D+00
   Bfn.  Coefficient  Atom+Function         Bfn.  Coefficient  Atom+Function  
  ----- ------------  ---------------      ----- ------------  ---------------
   380      0.166267  13 O  pz              410     -0.166571  14 O  py        
   379      0.162032  13 O  py              407     -0.159219  14 O  s         
   349      0.139318  12 C  pz              377     -0.132683  13 O  s         
   383      0.128914  13 O  pz              382      0.125005  13 O  py        
   376     -0.119948  13 O  s               413     -0.120453  14 O  py        
 
 Vector   37  Occ=2.000000D+00  E=-4.193950D-01
              MO Center=  4.9D+00,  7.3D-01,  7.9D-02, r^2= 1.2D+01
   Bfn.  Coefficient  Atom+Function         Bfn.  Coefficient  Atom+Function  
  ----- ------------  ---------------      ----- ------------  ---------------
   407     -0.175646  14 O  s               411     -0.176206  14 O  pz        
   345      0.161914  12 C  s               348      0.145185  12 C  py        
   318      0.132211  11 C  pz              344      0.128507  12 C  s         
   414     -0.124696  14 O  pz              408     -0.120943  14 O  s         
   406     -0.114149  14 O  s               380      0.106564  13 O  pz        
 
 Vector   38  Occ=2.000000D+00  E=-4.168334D-01
              MO Center= -2.2D+00, -1.7D+00, -5.5D-01, r^2= 2.1D+00
   Bfn.  Coefficient  Atom+Function         Bfn.  Coefficient  Atom+Function  
  ----- ------------  ---------------      ----- ------------  ---------------
   570      0.278453  28 C  pz                8      0.225644   1 O  pz        
   573      0.191301  28 C  pz               11      0.184724   1 O  pz        
   601     -0.152860  30 H  s               595      0.149550  29 H  s         
   600     -0.113880  30 H  s               594      0.111402  29 H  s         
    39      0.105359   2 C  pz               14      0.094617   1 O  pz        
 
 Vector   39  Occ=2.000000D+00  E=-4.136008D-01
              MO Center=  2.1D+00, -2.6D-02, -4.4D-01, r^2= 1.2D+01
   Bfn.  Coefficient  Atom+Function         Bfn.  Coefficient  Atom+Function  
  ----- ------------  ---------------      ----- ------------  ---------------
   162      0.151589   6 C  py                7      0.136395   1 O  py        
   286     -0.124482  10 C  py              519     -0.119721  24 C  px        
   100     -0.116341   4 C  py               10      0.109707   1 O  py        
   255      0.106888   9 C  py              380      0.097431  13 O  pz        
   503      0.093867  22 H  s               192      0.091660   7 C  px        
 
 Vector   40  Occ=2.000000D+00  E=-4.019387D-01
              MO Center=  4.2D+00,  3.9D-01, -2.2D-01, r^2= 1.2D+01
   Bfn.  Coefficient  Atom+Function         Bfn.  Coefficient  Atom+Function  
  ----- ------------  ---------------      ----- ------------  ---------------
   347      0.185441  12 C  px              378      0.144548  13 O  px        
   350      0.140260  12 C  px              409      0.140424  14 O  px        
   381      0.116772  13 O  px              412      0.110672  14 O  px        
   223      0.107380   8 C  px              316      0.093685  11 C  px        
    68      0.092475   3 C  px              442      0.092618  15 C  pz        
 
 Vector   41  Occ=2.000000D+00  E=-3.961759D-01
              MO Center=  1.3D+00,  9.2D-02, -5.9D-01, r^2= 1.1D+01
   Bfn.  Coefficient  Atom+Function         Bfn.  Coefficient  Atom+Function  
  ----- ------------  ---------------      ----- ------------  ---------------
    97      0.148203   4 C  s               252     -0.142167   9 C  s         
   568     -0.138226  28 C  px              224     -0.134075   8 C  py        
   131     -0.130361   5 C  py              558     -0.123807  27 H  s         
   509      0.122108  23 H  s                66     -0.103190   3 C  s         
   607      0.102387  31 H  s               520     -0.100833  24 C  py        
 
 Vector   42  Occ=2.000000D+00  E=-3.895770D-01
              MO Center=  1.9D+00,  1.8D-01, -5.3D-01, r^2= 1.3D+01
   Bfn.  Coefficient  Atom+Function         Bfn.  Coefficient  Atom+Function  
  ----- ------------  ---------------      ----- ------------  ---------------
   130      0.165687   5 C  px              161     -0.133642   6 C  px        
   520     -0.127013  24 C  py              568      0.126819  28 C  px        
   552      0.120523  26 H  s               497     -0.119780  21 H  s         
     7     -0.112301   1 O  py              133      0.098335   5 C  px        
    69     -0.095845   3 C  py               10     -0.091120   1 O  py        
 
 Vector   43  Occ=2.000000D+00  E=-3.781223D-01
              MO Center=  4.5D+00,  2.6D-01, -8.3D-01, r^2= 1.3D+01
   Bfn.  Coefficient  Atom+Function         Bfn.  Coefficient  Atom+Function  
  ----- ------------  ---------------      ----- ------------  ---------------
   441      0.153168  15 C  py              378     -0.148784  13 O  px        
   317      0.137533  11 C  py              381     -0.118831  13 O  px        
   285      0.112796  10 C  px              479     -0.113216  18 H  s         
   467      0.107862  16 H  s               347     -0.106626  12 C  px        
   519     -0.105949  24 C  px              222      0.098415   8 C  s         
 
 Vector   44  Occ=2.000000D+00  E=-3.691933D-01
              MO Center=  1.8D+00,  1.8D-01, -6.2D-01, r^2= 7.1D+00
   Bfn.  Coefficient  Atom+Function         Bfn.  Coefficient  Atom+Function  
  ----- ------------  ---------------      ----- ------------  ---------------
   131     -0.147438   5 C  py               69      0.143198   3 C  py        
   520      0.138916  24 C  py              552     -0.130186  26 H  s         
   224     -0.128250   8 C  py              497     -0.127214  21 H  s         
   519     -0.121700  24 C  px              558      0.119184  27 H  s         
   509      0.111275  23 H  s               130      0.092963   5 C  px        
 
 Vector   45  Occ=2.000000D+00  E=-3.630053D-01
              MO Center=  4.6D+00,  3.3D-01, -3.9D-01, r^2= 1.4D+01
   Bfn.  Coefficient  Atom+Function         Bfn.  Coefficient  Atom+Function  
  ----- ------------  ---------------      ----- ------------  ---------------
   380      0.188158  13 O  pz              411      0.181019  14 O  pz        
   383      0.145488  13 O  pz              414      0.131133  14 O  pz        
   440      0.126649  15 C  px              442      0.116925  15 C  pz        
   473     -0.109029  17 H  s               376     -0.104095  13 O  s         
   568     -0.103792  28 C  px              485      0.099358  19 H  s         
 
 Vector   46  Occ=2.000000D+00  E=-3.578257D-01
              MO Center=  2.5D+00, -6.0D-03, -7.3D-01, r^2= 1.4D+01
   Bfn.  Coefficient  Atom+Function         Bfn.  Coefficient  Atom+Function  
  ----- ------------  ---------------      ----- ------------  ---------------
   285      0.137783  10 C  px              568      0.130653  28 C  px        
   519     -0.125674  24 C  px              441     -0.120270  15 C  py        
   161      0.117931   6 C  px              130     -0.112536   5 C  px        
    99      0.102576   4 C  px              607     -0.100735  31 H  s         
   473     -0.099842  17 H  s               380      0.090002  13 O  pz        
 
 Vector   47  Occ=2.000000D+00  E=-3.491480D-01
              MO Center=  1.8D+00, -7.6D-02, -5.7D-01, r^2= 9.2D+00
   Bfn.  Coefficient  Atom+Function         Bfn.  Coefficient  Atom+Function  
  ----- ------------  ---------------      ----- ------------  ---------------
   101      0.122221   4 C  pz              256      0.122775   9 C  pz        
    39      0.112055   2 C  pz              104      0.099774   4 C  pz        
   259      0.099789   9 C  pz               70      0.091898   3 C  pz        
   521      0.091995  24 C  pz              570     -0.090841  28 C  pz        
    42      0.090152   2 C  pz              286     -0.089279  10 C  py        
 
 Vector   48  Occ=2.000000D+00  E=-3.455178D-01
              MO Center=  1.8D+00, -9.1D-02, -7.8D-01, r^2= 1.1D+01
   Bfn.  Coefficient  Atom+Function         Bfn.  Coefficient  Atom+Function  
  ----- ------------  ---------------      ----- ------------  ---------------
    38      0.123623   2 C  py              440      0.123705  15 C  px        
   162     -0.110191   6 C  py              546      0.110074  25 H  s         
   286     -0.106579  10 C  py               69     -0.097187   3 C  py        
   224     -0.093369   8 C  py              503     -0.093468  22 H  s         
   485      0.091723  19 H  s               193      0.091111   7 C  py        
 
 Vector   49  Occ=2.000000D+00  E=-3.349224D-01
              MO Center=  4.2D+00,  6.5D-01, -6.6D-01, r^2= 1.1D+01
   Bfn.  Coefficient  Atom+Function         Bfn.  Coefficient  Atom+Function  
  ----- ------------  ---------------      ----- ------------  ---------------
   442      0.190402  15 C  pz              318     -0.148609  11 C  pz        
   445      0.127032  15 C  pz              349      0.123483  12 C  pz        
   378     -0.121875  13 O  px              473     -0.117042  17 H  s         
   321     -0.110745  11 C  pz              410     -0.110502  14 O  py        
   409     -0.104486  14 O  px               99     -0.101932   4 C  px        
 
 Vector   50  Occ=2.000000D+00  E=-3.331157D-01
              MO Center=  4.2D+00,  6.4D-01, -7.5D-01, r^2= 1.1D+01
   Bfn.  Coefficient  Atom+Function         Bfn.  Coefficient  Atom+Function  
  ----- ------------  ---------------      ----- ------------  ---------------
    99     -0.154322   4 C  px              440     -0.153241  15 C  px        
    68      0.145228   3 C  px              485     -0.131279  19 H  s         
   349     -0.124141  12 C  pz              410      0.109032  14 O  py        
   380      0.107610  13 O  pz              102     -0.100360   4 C  px        
   473      0.098643  17 H  s               254      0.097433   9 C  px        
 
 Vector   51  Occ=2.000000D+00  E=-3.150873D-01
              MO Center=  4.4D+00,  8.7D-01, -1.1D+00, r^2= 1.1D+01
   Bfn.  Coefficient  Atom+Function         Bfn.  Coefficient  Atom+Function  
  ----- ------------  ---------------      ----- ------------  ---------------
   317      0.207994  11 C  py              441     -0.203007  15 C  py        
   467      0.173886  16 H  s               479      0.166600  18 H  s         
   320      0.138608  11 C  py              444     -0.131312  15 C  py        
   466      0.119584  16 H  s               478      0.114681  18 H  s         
   100     -0.105203   4 C  py              161     -0.090116   6 C  px        
 
 Vector   52  Occ=2.000000D+00  E=-3.106322D-01
              MO Center=  6.6D-01, -2.2D-01, -5.3D-01, r^2= 1.1D+01
   Bfn.  Coefficient  Atom+Function         Bfn.  Coefficient  Atom+Function  
  ----- ------------  ---------------      ----- ------------  ---------------
     8      0.198620   1 O  pz               39      0.178053   2 C  pz        
    11      0.160026   1 O  pz               42      0.141308   2 C  pz        
   570     -0.137318  28 C  pz              163     -0.111582   6 C  pz        
   225     -0.112083   8 C  pz               14      0.109863   1 O  pz        
   595     -0.105771  29 H  s               601      0.106038  30 H  s         
 
 Vector   53  Occ=2.000000D+00  E=-2.999387D-01
              MO Center=  3.2D+00,  4.6D-01, -7.4D-01, r^2= 1.1D+01
   Bfn.  Coefficient  Atom+Function         Bfn.  Coefficient  Atom+Function  
  ----- ------------  ---------------      ----- ------------  ---------------
   192      0.141160   7 C  px              316     -0.137713  11 C  px        
   224     -0.121714   8 C  py              223     -0.117070   8 C  px        
   193      0.115054   7 C  py              467     -0.114488  16 H  s         
     6      0.109970   1 O  px              519     -0.106677  24 C  px        
     7     -0.104008   1 O  py              254      0.104351   9 C  px        
 
 Vector   54  Occ=2.000000D+00  E=-2.955179D-01
              MO Center=  2.0D+00,  3.4D-01, -5.5D-01, r^2= 1.3D+01
   Bfn.  Coefficient  Atom+Function         Bfn.  Coefficient  Atom+Function  
  ----- ------------  ---------------      ----- ------------  ---------------
     7      0.174319   1 O  py               10      0.139694   1 O  py        
    98      0.131972   4 C  s               161     -0.126116   6 C  px        
   284      0.122749  10 C  s               192      0.119635   7 C  px        
   316     -0.119503  11 C  px              254      0.113318   9 C  px        
   222     -0.111038   8 C  s               497     -0.107310  21 H  s         
 
 Vector   55  Occ=2.000000D+00  E=-2.814671D-01
              MO Center=  5.3D-01, -3.4D-01, -5.0D-01, r^2= 9.5D+00
   Bfn.  Coefficient  Atom+Function         Bfn.  Coefficient  Atom+Function  
  ----- ------------  ---------------      ----- ------------  ---------------
     7      0.188804   1 O  py               10      0.151535   1 O  py        
   255      0.144265   9 C  py               38     -0.138858   2 C  py        
   100     -0.139103   4 C  py              286      0.133623  10 C  py        
     6     -0.120519   1 O  px              520     -0.121057  24 C  py        
   292      0.118866  10 C  py              284      0.113686  10 C  s         
 
 Vector   56  Occ=2.000000D+00  E=-2.765232D-01
              MO Center=  6.1D+00,  5.0D-01,  7.0D-01, r^2= 4.4D+00
   Bfn.  Coefficient  Atom+Function         Bfn.  Coefficient  Atom+Function  
  ----- ------------  ---------------      ----- ------------  ---------------
   378     -0.297564  13 O  px              409      0.289089  14 O  px        
   222      0.282587   8 C  s               381     -0.238547  13 O  px        
   412      0.229449  14 O  px              160     -0.214802   6 C  s         
   384     -0.197008  13 O  px              415      0.161781  14 O  px        
   199      0.152406   7 C  py              411     -0.132358  14 O  pz        
 
 Vector   57  Occ=2.000000D+00  E=-2.671782D-01
              MO Center=  1.3D+00, -2.2D-01, -6.0D-01, r^2= 8.2D+00
   Bfn.  Coefficient  Atom+Function         Bfn.  Coefficient  Atom+Function  
  ----- ------------  ---------------      ----- ------------  ---------------
   521     -0.205308  24 C  pz                8      0.196427   1 O  pz        
   524     -0.168769  24 C  pz              163      0.164290   6 C  pz        
    11      0.158779   1 O  pz              287     -0.152280  10 C  pz        
   166      0.135127   6 C  pz              132      0.132587   5 C  pz        
   290     -0.126370  10 C  pz              256     -0.125366   9 C  pz        
 
 Vector   58  Occ=2.000000D+00  E=-2.474923D-01
              MO Center=  2.5D+00,  5.9D-01, -3.6D-01, r^2= 8.6D+00
   Bfn.  Coefficient  Atom+Function         Bfn.  Coefficient  Atom+Function  
  ----- ------------  ---------------      ----- ------------  ---------------
   101      0.190605   4 C  pz              225     -0.171041   8 C  pz        
   194     -0.160653   7 C  pz              104      0.157710   4 C  pz        
    70      0.154046   3 C  pz              410      0.141445  14 O  py        
   228     -0.139429   8 C  pz              197     -0.134269   7 C  pz        
   132      0.132003   5 C  pz                8     -0.128309   1 O  pz        
 
 Vector   59  Occ=2.000000D+00  E=-2.278668D-01
              MO Center=  5.5D+00,  9.5D-01,  6.9D-01, r^2= 8.4D+00
   Bfn.  Coefficient  Atom+Function         Bfn.  Coefficient  Atom+Function  
  ----- ------------  ---------------      ----- ------------  ---------------
   410      0.312630  14 O  py              413      0.247930  14 O  py        
   315     -0.238378  11 C  s               416      0.190662  14 O  py        
   411     -0.186368  14 O  pz              379      0.151693  13 O  py        
   414     -0.146567  14 O  pz              409     -0.132655  14 O  px        
   382      0.126652  13 O  py              318     -0.122183  11 C  pz        
 
 Vector   60  Occ=2.000000D+00  E=-2.097265D-01
              MO Center=  1.6D+00,  1.9D-02, -6.0D-01, r^2= 6.7D+00
   Bfn.  Coefficient  Atom+Function         Bfn.  Coefficient  Atom+Function  
  ----- ------------  ---------------      ----- ------------  ---------------
   287      0.224838  10 C  pz              163      0.201958   6 C  pz        
   290      0.186076  10 C  pz              256     -0.173280   9 C  pz        
   166      0.167189   6 C  pz              293      0.157813  10 C  pz        
   259     -0.144019   9 C  pz              169      0.134232   6 C  pz        
     8     -0.131884   1 O  pz              101     -0.126987   4 C  pz        
 
 Vector   61  Occ=2.000000D+00  E=-1.790189D-01
              MO Center=  1.1D+00,  1.9D-01, -5.5D-01, r^2= 7.5D+00
   Bfn.  Coefficient  Atom+Function         Bfn.  Coefficient  Atom+Function  
  ----- ------------  ---------------      ----- ------------  ---------------
    70     -0.209921   3 C  pz                8      0.199108   1 O  pz        
    73     -0.176424   3 C  pz              132      0.163577   5 C  pz        
    11      0.160819   1 O  pz              194     -0.158657   7 C  pz        
    39     -0.155122   2 C  pz              521      0.151452  24 C  pz        
    76     -0.141983   3 C  pz               14      0.139583   1 O  pz        
 
 Vector   62  Occ=0.000000D+00  E=-7.067426D-02
              MO Center=  1.8D+00,  9.1D-02, -6.1D-01, r^2= 6.8D+00
   Bfn.  Coefficient  Atom+Function         Bfn.  Coefficient  Atom+Function  
  ----- ------------  ---------------      ----- ------------  ---------------
   527      0.268113  24 C  pz              138     -0.229598   5 C  pz        
   293     -0.221661  10 C  pz              231     -0.219008   8 C  pz        
    76      0.209228   3 C  pz              439      0.207284  15 C  s         
   521      0.208046  24 C  pz              225     -0.200566   8 C  pz        
   132     -0.183673   5 C  pz              169      0.178518   6 C  pz        
 
 Vector   63  Occ=0.000000D+00  E=-4.537598D-02
              MO Center=  4.0D+00,  7.0D-01, -1.0D-01, r^2= 9.9D+00
   Bfn.  Coefficient  Atom+Function         Bfn.  Coefficient  Atom+Function  
  ----- ------------  ---------------      ----- ------------  ---------------
   222     -0.381030   8 C  s               160      0.355040   6 C  s         
   169     -0.289376   6 C  pz              439      0.288843  15 C  s         
   199     -0.282226   7 C  py              350     -0.244574  12 C  px        
   200      0.229754   7 C  pz              315     -0.229603  11 C  s         
   347     -0.224982  12 C  px              129     -0.215527   5 C  s         
 
 Vector   64  Occ=0.000000D+00  E=-2.290000D-02
              MO Center=  3.9D+00,  5.3D-01,  9.3D-03, r^2= 1.0D+01
   Bfn.  Coefficient  Atom+Function         Bfn.  Coefficient  Atom+Function  
  ----- ------------  ---------------      ----- ------------  ---------------
   222     -0.371148   8 C  s               160      0.342883   6 C  s         
   350     -0.293714  12 C  px              347     -0.290342  12 C  px        
   200     -0.266452   7 C  pz              199     -0.251842   7 C  py        
   129     -0.232575   5 C  s                45      0.228782   2 C  pz        
   315     -0.224570  11 C  s               262      0.217249   9 C  pz        
 
 Vector   65  Occ=0.000000D+00  E=-1.334043D-02
              MO Center=  1.9D+00,  1.8D-01, -5.5D-01, r^2= 6.4D+00
   Bfn.  Coefficient  Atom+Function         Bfn.  Coefficient  Atom+Function  
  ----- ------------  ---------------      ----- ------------  ---------------
   315      0.515998  11 C  s               527     -0.406811  24 C  pz        
   138     -0.392026   5 C  pz              231     -0.385735   8 C  pz        
    76     -0.381930   3 C  pz              262      0.347961   9 C  pz        
   346     -0.321478  12 C  s               107      0.298148   4 C  pz        
   492     -0.249242  20 H  s               169      0.196181   6 C  pz        
 
 Vector   66  Occ=0.000000D+00  E= 4.852822D-03
              MO Center=  6.5D+00, -2.4D-01,  6.2D-01, r^2= 8.0D+00
   Bfn.  Coefficient  Atom+Function         Bfn.  Coefficient  Atom+Function  
  ----- ------------  ---------------      ----- ------------  ---------------
   315      3.099757  11 C  s               492     -1.300436  20 H  s         
   346     -1.291133  12 C  s               439      1.277428  15 C  s         
   198     -1.173230   7 C  px              468     -0.805240  16 H  s         
    98      0.738146   4 C  s               324      0.735398  11 C  pz        
   105      0.697609   4 C  px              480     -0.604145  18 H  s         
 
 Vector   67  Occ=0.000000D+00  E= 1.649282D-02
              MO Center= -1.8D+00, -2.8D+00, -6.9D-01, r^2= 7.2D+00
   Bfn.  Coefficient  Atom+Function         Bfn.  Coefficient  Atom+Function  
  ----- ------------  ---------------      ----- ------------  ---------------
   567      3.797940  28 C  s               547     -1.724261  25 H  s         
   596     -1.553181  29 H  s               602     -1.560414  30 H  s         
   260     -1.538946   9 C  px               43      1.460235   2 C  px        
   292     -1.233976  10 C  py              106      1.089594   4 C  py        
   608     -0.923554  31 H  s               553     -0.792865  26 H  s         
 
 Vector   68  Occ=0.000000D+00  E= 3.243958D-02
              MO Center=  3.2D+00,  7.1D-01, -6.0D-01, r^2= 2.3D+01
   Bfn.  Coefficient  Atom+Function         Bfn.  Coefficient  Atom+Function  
  ----- ------------  ---------------      ----- ------------  ---------------
   439      2.225261  15 C  s               315      1.556541  11 C  s         
   198     -1.224211   7 C  px              468     -1.179048  16 H  s         
   504     -1.100013  22 H  s               284      1.082363  10 C  s         
   498     -1.038182  21 H  s                98      0.976812   4 C  s         
   105      0.838336   4 C  px              474     -0.811103  17 H  s         
 
 Vector   69  Occ=0.000000D+00  E= 3.697330D-02
              MO Center=  1.3D+00, -6.3D-01, -8.2D-01, r^2= 2.3D+01
   Bfn.  Coefficient  Atom+Function         Bfn.  Coefficient  Atom+Function  
  ----- ------------  ---------------      ----- ------------  ---------------
   439      1.698830  15 C  s               284     -1.533596  10 C  s         
   315      1.281351  11 C  s               553      1.150822  26 H  s         
   468     -1.087347  16 H  s               567      1.061472  28 C  s         
     5      0.818053   1 O  s               547      0.782664  25 H  s         
   474     -0.771160  17 H  s               575     -0.713907  28 C  py        
 
 Vector   70  Occ=0.000000D+00  E= 4.185814D-02
              MO Center=  3.4D+00,  5.9D-01, -1.0D+00, r^2= 1.7D+01
   Bfn.  Coefficient  Atom+Function         Bfn.  Coefficient  Atom+Function  
  ----- ------------  ---------------      ----- ------------  ---------------
   439      3.139733  15 C  s               480     -1.300679  18 H  s         
   498      1.252291  21 H  s               315     -1.233259  11 C  s         
   106     -1.079653   4 C  py              229      1.045776   8 C  px        
   504      1.010399  22 H  s               553     -0.999872  26 H  s         
   261     -0.919711   9 C  py              260      0.898317   9 C  px        
 
 Vector   71  Occ=0.000000D+00  E= 5.094156D-02
              MO Center=  7.1D-01, -4.2D-01, -7.1D-01, r^2= 1.9D+01
   Bfn.  Coefficient  Atom+Function         Bfn.  Coefficient  Atom+Function  
  ----- ------------  ---------------      ----- ------------  ---------------
   553      1.538028  26 H  s               526      1.289701  24 C  py        
   498      1.257050  21 H  s               559      1.199470  27 H  s         
   439      1.149430  15 C  s               510      1.106625  23 H  s         
    75     -1.051560   3 C  py              315     -0.978086  11 C  s         
     5     -0.940088   1 O  s               198      0.933186   7 C  px        
 
 Vector   72  Occ=0.000000D+00  E= 5.583903D-02
              MO Center=  2.1D+00,  2.5D-01, -6.6D-01, r^2= 1.1D+01
   Bfn.  Coefficient  Atom+Function         Bfn.  Coefficient  Atom+Function  
  ----- ------------  ---------------      ----- ------------  ---------------
   315      1.407639  11 C  s               439     -1.239926  15 C  s         
   486      0.676229  19 H  s               169      0.511769   6 C  pz        
   293      0.491492  10 C  pz              198     -0.487810   7 C  px        
    45     -0.472627   2 C  pz              200     -0.463797   7 C  pz        
    76      0.349314   3 C  pz              553     -0.316248  26 H  s         
 
 Vector   73  Occ=0.000000D+00  E= 6.236571D-02
              MO Center=  2.8D+00,  1.0D+00, -8.5D-01, r^2= 2.0D+01
   Bfn.  Coefficient  Atom+Function         Bfn.  Coefficient  Atom+Function  
  ----- ------------  ---------------      ----- ------------  ---------------
   315      3.635109  11 C  s               439     -2.975947  15 C  s         
   253     -1.995002   9 C  s               468     -1.567449  16 H  s         
   168      1.447630   6 C  py              504     -1.384347  22 H  s         
   559      1.371269  27 H  s               498      1.350734  21 H  s         
   137     -1.294592   5 C  py              480      1.145166  18 H  s         
 
 Vector   74  Occ=0.000000D+00  E= 6.817189D-02
              MO Center=  1.6D+00,  6.4D-02, -7.5D-01, r^2= 2.0D+01
   Bfn.  Coefficient  Atom+Function         Bfn.  Coefficient  Atom+Function  
  ----- ------------  ---------------      ----- ------------  ---------------
   260      1.926327   9 C  px              284     -1.844756  10 C  s         
   160      1.797613   6 C  s               559      1.565961  27 H  s         
   105      1.556717   4 C  px              525     -1.442143  24 C  px        
   547      1.385702  25 H  s               504     -1.344155  22 H  s         
   229      1.304079   8 C  px              510     -1.302484  23 H  s         
 
 Vector   75  Occ=0.000000D+00  E= 7.473458D-02
              MO Center= -2.7D+00, -1.3D+00, -5.1D-01, r^2= 1.2D+01
   Bfn.  Coefficient  Atom+Function         Bfn.  Coefficient  Atom+Function  
  ----- ------------  ---------------      ----- ------------  ---------------
   608      2.725915  31 H  s               574      1.628385  28 C  px        
   602     -0.988876  30 H  s               596     -0.944162  29 H  s         
   498     -0.756679  21 H  s                67     -0.666140   3 C  s         
   559      0.655391  27 H  s               553      0.617474  26 H  s         
   526      0.568127  24 C  py              518     -0.554865  24 C  s         
 
 Vector   76  Occ=0.000000D+00  E= 8.366585D-02
              MO Center=  5.6D+00,  8.9D-01, -1.4D+00, r^2= 1.2D+01
   Bfn.  Coefficient  Atom+Function         Bfn.  Coefficient  Atom+Function  
  ----- ------------  ---------------      ----- ------------  ---------------
   315      4.808896  11 C  s               346     -2.286430  12 C  s         
   439     -2.097612  15 C  s               474      1.902238  17 H  s         
   446      1.426689  15 C  px              198     -1.377886   7 C  px        
   191     -1.318505   7 C  s               486     -1.258566  19 H  s         
   222     -1.231195   8 C  s               408      0.958675  14 O  s         
 
 Vector   77  Occ=0.000000D+00  E= 8.520351D-02
              MO Center= -1.9D+00, -2.6D+00, -7.0D-01, r^2= 6.8D+00
   Bfn.  Coefficient  Atom+Function         Bfn.  Coefficient  Atom+Function  
  ----- ------------  ---------------      ----- ------------  ---------------
   596      2.115175  29 H  s               602     -2.090823  30 H  s         
   576     -1.353373  28 C  pz              474      0.352411  17 H  s         
   486     -0.311455  19 H  s               570     -0.280776  28 C  pz        
    14      0.225690   1 O  pz              346     -0.220673  12 C  s         
   446      0.176183  15 C  px              573     -0.174828  28 C  pz        
 
 Vector   78  Occ=0.000000D+00  E= 8.746640D-02
              MO Center=  4.5D+00,  7.7D-01, -1.4D+00, r^2= 1.3D+01
   Bfn.  Coefficient  Atom+Function         Bfn.  Coefficient  Atom+Function  
  ----- ------------  ---------------      ----- ------------  ---------------
   315      5.054259  11 C  s               198     -2.232313   7 C  px        
   439     -1.795642  15 C  s               346     -1.633908  12 C  s         
   323     -1.461661  11 C  py              105      1.428222   4 C  px        
   474     -1.391710  17 H  s               486      1.321491  19 H  s         
   448     -1.213377  15 C  pz              160     -1.126708   6 C  s         
 
 Vector   79  Occ=0.000000D+00  E= 9.452872D-02
              MO Center=  2.0D+00,  6.9D-01, -7.7D-01, r^2= 2.1D+01
   Bfn.  Coefficient  Atom+Function         Bfn.  Coefficient  Atom+Function  
  ----- ------------  ---------------      ----- ------------  ---------------
   315      3.070784  11 C  s               253      2.692545   9 C  s         
    98      2.408301   4 C  s                67     -2.224191   3 C  s         
   518     -2.025252  24 C  s               129     -2.012450   5 C  s         
   559     -1.955596  27 H  s               468     -1.816666  16 H  s         
    74     -1.794862   3 C  px              547      1.687650  25 H  s         
 
 Vector   80  Occ=0.000000D+00  E= 1.060766D-01
              MO Center=  3.5D+00, -1.0D+00, -1.3D+00, r^2= 1.9D+01
   Bfn.  Coefficient  Atom+Function         Bfn.  Coefficient  Atom+Function  
  ----- ------------  ---------------      ----- ------------  ---------------
   315      3.825022  11 C  s               547     -2.164751  25 H  s         
   526      2.077264  24 C  py              553      1.978868  26 H  s         
    67      1.943478   3 C  s               292     -1.861854  10 C  py        
   439     -1.576675  15 C  s               480     -1.340501  18 H  s         
   346     -1.312309  12 C  s               486      1.287831  19 H  s         
 
 Vector   81  Occ=0.000000D+00  E= 1.178176D-01
              MO Center=  2.2D+00,  1.0D+00, -5.0D-01, r^2= 1.5D+01
   Bfn.  Coefficient  Atom+Function         Bfn.  Coefficient  Atom+Function  
  ----- ------------  ---------------      ----- ------------  ---------------
   199      2.437302   7 C  py              315     -2.185769  11 C  s         
    67      1.859985   3 C  s               222      1.765823   8 C  s         
   498      1.699217  21 H  s               137     -1.584257   5 C  py        
[...]
   Bfn.  Coefficient  Atom+Function         Bfn.  Coefficient  Atom+Function  
  ----- ------------  ---------------      ----- ------------  ---------------
   258      1.878064   9 C  py              260      1.771111   9 C  px        
   113      1.750390   4 C  d -2            106     -1.720990   4 C  py        
   103      1.711387   4 C  py              517      1.714423  24 C  s         
   315      1.660134  11 C  s               261     -1.581802   9 C  py        
   268     -1.565800   9 C  d -2            190      1.513325   7 C  s         
 
 Vector  604  Occ=0.000000D+00  E= 2.277702D+01
              MO Center=  1.8D+00,  2.8D-01, -4.6D-01, r^2= 7.7D+00
   Bfn.  Coefficient  Atom+Function         Bfn.  Coefficient  Atom+Function  
  ----- ------------  ---------------      ----- ------------  ---------------
   190      2.925916   7 C  s               191     -2.081139   7 C  s         
   314     -1.954035  11 C  s               105     -1.806203   4 C  px        
   159     -1.734658   6 C  s               283     -1.683134  10 C  s         
    35      1.576436   2 C  s               189     -1.572730   7 C  s         
   128      1.468132   5 C  s               222      1.376134   8 C  s         
 
 Vector  605  Occ=0.000000D+00  E= 2.286240D+01
              MO Center=  5.6D+00,  6.9D-01,  2.0D-01, r^2= 3.1D+00
   Bfn.  Coefficient  Atom+Function         Bfn.  Coefficient  Atom+Function  
  ----- ------------  ---------------      ----- ------------  ---------------
   315      1.923803  11 C  s               344      1.834194  12 C  s         
   352      1.653185  12 C  pz              343     -1.640538  12 C  s         
   407     -1.517846  14 O  s               191     -1.315088   7 C  s         
   342      1.227957  12 C  s               319      1.049381  11 C  px        
   226      1.001175   8 C  px              414      0.879963  14 O  pz        
 
 Vector  606  Occ=0.000000D+00  E= 2.325862D+01
              MO Center=  1.7D+00,  2.8D-01, -6.0D-01, r^2= 2.1D+00
   Bfn.  Coefficient  Atom+Function         Bfn.  Coefficient  Atom+Function  
  ----- ------------  ---------------      ----- ------------  ---------------
    97      7.257308   4 C  s               252     -7.156141   9 C  s         
   221      4.136910   8 C  s                66     -3.806923   3 C  s         
   128     -3.360876   5 C  s               517      2.979230  24 C  s         
   190     -2.885704   7 C  s                96     -2.693924   4 C  s         
   251      2.597493   9 C  s                71     -2.255073   3 C  px        
 
 Vector  607  Occ=0.000000D+00  E= 4.335641D+01
              MO Center=  6.6D+00, -3.5D-01,  5.4D-01, r^2= 5.9D-01
   Bfn.  Coefficient  Atom+Function         Bfn.  Coefficient  Atom+Function  
  ----- ------------  ---------------      ----- ------------  ---------------
   376      2.439221  13 O  s               315      1.840912  11 C  s         
   375     -1.769649  13 O  s               374      1.641451  13 O  s         
   373     -1.324059  13 O  s               377     -1.138364  13 O  s         
   222     -1.102286   8 C  s               314     -1.018204  11 C  s         
   198     -0.975345   7 C  px              191     -0.953404   7 C  s         
 
 Vector  608  Occ=0.000000D+00  E= 4.344962D+01
              MO Center=  6.6D+00,  1.3D+00,  1.4D+00, r^2= 5.9D-01
   Bfn.  Coefficient  Atom+Function         Bfn.  Coefficient  Atom+Function  
  ----- ------------  ---------------      ----- ------------  ---------------
   407      2.677993  14 O  s               406     -1.777401  14 O  s         
   405      1.643102  14 O  s               404     -1.324371  14 O  s         
   408     -1.260691  14 O  s               376     -1.019661  13 O  s         
   315      0.926213  11 C  s               191     -0.909318   7 C  s         
   352     -0.819441  12 C  pz              222      0.773756   8 C  s         
 
 Vector  609  Occ=0.000000D+00  E= 4.376651D+01
              MO Center= -2.0D+00, -7.2D-01, -4.6D-01, r^2= 1.5D-01
   Bfn.  Coefficient  Atom+Function         Bfn.  Coefficient  Atom+Function  
  ----- ------------  ---------------      ----- ------------  ---------------
     4      3.202293   1 O  s                 3     -2.086211   1 O  s         
     2      1.752859   1 O  s                 1     -1.399127   1 O  s         
    43     -1.137795   2 C  px               71      1.099245   3 C  px        
    40      1.083717   2 C  px              102      1.034049   4 C  px        
    97     -0.936943   4 C  s               284      0.856140  10 C  s         
 

 center of mass
 --------------
 x =   4.96602809 y =   0.34320354 z =  -0.79188852

 moments of inertia (a.u.)
 ------------------
        1938.471160575556       -1783.501653046804        -506.186973951048
       -1783.501653046804        8333.182489421366        -128.882379442345
        -506.186973951048        -128.882379442345        9297.296555698542
 
     Multipole analysis of the density
     ---------------------------------
 
     L   x y z        total         alpha         beta         nuclear
     -   - - -        -----         -----         ----         -------
     0   0 0 0     -0.000000    -61.000000    -61.000000    122.000000
 
     1   1 0 0     -0.592627   -301.779501   -301.779501    602.966374
     1   0 1 0     -1.025678    -19.370973    -19.370973     37.716268
     1   0 0 1     -0.543800     50.883375     50.883375   -102.310551
 
     2   2 0 0    -74.218864  -3657.474068  -3657.474068   7240.729272
     2   1 1 0     -3.599200   -587.317604   -587.317604   1171.036009
     2   1 0 1     -5.646193    135.010106    135.010106   -275.666405
     2   0 2 0    -68.620151   -459.238145   -459.238145    849.856138
     2   0 1 1     -2.854641    -16.961994    -16.961994     31.069347
     2   0 0 2    -77.884952   -219.172637   -219.172637    360.460322
 
 *** CALLING NEW AORESP DRIVER FOR CLOSED AND OPEN SHELLS ***
 Entering AOResponse driver routine


--------------------------------------------------------------------------------

          ****************
          *** RESPONSE ***
          ****************

 Response module for NWChem and dynamic CPKS solver
 developed by J. Autschbach and coworkers, SUNY Buffalo
 The methodology used in this program is described in 
 ChemPhysChem 12 (2011), 3224-3235 (main reference)
 J. Chem. Phys. 123 (2005), 114103
 J. Chem. Phys. 122 (2005), 224115
 J. Chem. Phys. 122 (2005), 074105
 Comp. Lett. 3 (2007), 131-150 (contact JA for a copy)
 Please cite this work in publications based on results
 obtained with this code. Thank you!

 For extension of response module to open shell
 calculations please acknowledge:
 F. Aquino, Northwestern University, Schatz Rsrch Group
 The update to the methodology is described in
 J. Phys. Chem. A 118 (2014) 517-525



          -----------------------------------------------
          Solving response equations for perturbing field
          -----------------------------------------------

 number of frequencies:     1
 frequency in a.u.:  0.1280230E+00
 Perturbing field: electric
 Using GIAO formalism for OptRot
 Adding quadrupole terms to OptRot
 to create an origin in dependent tensor.
 Using El. Dipole Length Gauge
 
 Applying DAMPING constant of  0.003700 a.u.
 
 Setting up CPKS
 with frequency omega =      0.12802300 a.u.
 and a damping of            0.00370000 a.u.

 
                            NWChem Dynamic CPHF Module
                            --------------------------
 
 
    scftype = RHF 
    nclosed =   61
      nopen =    0
  variables =   133712
  num. vecs =        3
  tolerance =   1.0D-07
  max. iter =  100

 Grid integrated density:     122.000001364281
 Requested integration accuracy:   0.10E-07
 SCF residual:   1.794537845093805E-004


Iterative solution of linear equations
  No. of variables    66856
  No. of equations        3
  Maximum subspace       99
       Convergence  1.0D-07
        Start time   1013.2


   iter   nsub   residual    time 
   ----  ------  --------  --------- 
 dft_CPHF2_read: failed to open./naproxen_355.9_052.inp.aoresp_fiao_f1
     1      3    9.22D+01    1247.3
     2      6    2.98D+01    1483.2
     3      9    7.27D+00    1722.5
     4     12    2.23D+00    1959.3
     5     15    4.94D-01    2195.2
     6     18    2.02D-01    2432.2
     7     21    1.16D-01    2668.0
     8     24    1.48D-02    2905.2
     9     27    2.60D-03    3142.7
    10     30    9.19D-04    3381.1
    11     33    5.69D-04    3617.8
    12     36    7.00D-05    3858.5
    13     39    7.44D-06    4098.8
    14     42    2.43D-06    4339.4
    15     45    6.06D-07    4582.5
    16     48    2.51D-07    4824.0
    17     51    1.76D-07    5066.5
    18     54    1.02D-07    5308.5
    19     57    7.75D-08    5547.8

 Calculating some arrays needed for GIAO optical rotation

    0 giaofock schwarz done =      50.00%
    0 giaofock schwarz done =      50.00%
 Grid integrated density:     122.000001364529
 Requested integration accuracy:   0.10E-07
 aor_r1_tensor_giao: roadata output requested
 dip-quad polarizability Re:

              1        2        3        4        5        6      
    1 3330.2279 226.0046-346.9550 -45.6113 -84.5849 140.9506
    2  377.6717 870.3990 -56.4004 133.3650-194.1740   4.3447
    3  113.2469  29.0321 735.7437  15.3244  37.0767-268.9593
 traceless dip-quad polarizability:

              1        2        3      
    1 3282.5582 339.0068-520.4325
    2  339.0068*********-126.8773
    3 -520.4325-126.8773*********

              1        2        3      
    1  308.81681305.5985 -84.6006
    2 1305.5985 -57.6432-291.2611
    3  -84.6006-291.2611-251.1736

              1        2        3      
    1  240.0644  43.54821103.6155
    2   43.5482  93.1806  55.6150
    3 1103.6155  55.6150-333.2449

 roa begin

 alpha real:
 XX       0.4085316253146E+03
 XY       0.7116562377346E+02
 XZ       0.2870126594753E+01
 YX       0.7116562458458E+02
 YY       0.2023107083618E+03
 YZ       0.5826641617154E+01
 ZX       0.2870126667336E+01
 ZY       0.5826641569498E+01
 ZZ       0.1247823395659E+03

 alpha im:
 XX       0.4486426506213E+02
 XY       0.6006783847140E+02
 XZ       0.7559280856864E+01
 YX       0.6006783673783E+02
 YY       0.1428847462298E+03
 YZ       0.1734596727388E+02
 ZX       0.7559280594877E+01
 ZY       0.1734596722258E+02
 ZZ       0.2685123417210E+01

 beta real:
 XX      -0.4746754237919E+01
 XY       0.3878272405132E+02
 XZ       0.1525131964527E+02
 YX      -0.1297446481772E+02
 YY       0.6073886123699E+01
 YZ      -0.4847006174640E+02
 ZX      -0.3354851813536E+01
 ZY       0.4457025943792E+02
 ZZ      -0.1267164243615E-01

 G-prime = -omega beta(real):
 XX      -0.4746754237919E+01
 XY       0.3878272405132E+02
 XZ       0.1525131964527E+02
 YX      -0.1297446481772E+02
 YY       0.6073886123699E+01
 YZ      -0.4847006174640E+02
 ZX      -0.3354851813536E+01
 ZY       0.4457025943792E+02
 ZZ      -0.1267164243615E-01

 beta im:
 XX      -0.4848881664995E+01
 XY       0.9152494335388E+01
 XZ      -0.1118139293239E+02
 YX      -0.1197735590158E+02
 YY       0.1460339997119E+02
 YZ      -0.3663634980759E+02
 ZX      -0.1481277208607E+01
 ZY       0.2437923261866E+01
 ZZ      -0.4271809880307E+01

 G-prime = -omega beta(imag):
 XX      -0.4848881664995E+01
 XY       0.9152494335388E+01
 XZ      -0.1118139293239E+02
 YX      -0.1197735590158E+02
 YY       0.1460339997119E+02
 YZ      -0.3663634980759E+02
 ZX      -0.1481277208607E+01
 ZY       0.2437923261866E+01
 ZZ      -0.4271809880307E+01

 dipole-quadrupole real (Cartesian):
 XXX      0.3330227864259E+04
 XXY      0.2260045658783E+03
 XXZ     -0.3469549950384E+03
 XYY     -0.4561131859200E+02
 XYZ     -0.8458486453710E+02
 XZZ      0.1409506228173E+03
 YXX      0.3776717144031E+03
 YXY      0.8703989943670E+03
 YXZ     -0.5640036908093E+02
 YYY      0.1333649919377E+03
 YYZ     -0.1941740457823E+03
 YZZ      0.4344739639784E+01
 ZXX      0.1132469278764E+03
 ZXY      0.2903211962598E+02
 ZXZ      0.7357436977912E+03
 ZYY      0.1532437670676E+02
 ZYZ      0.3707665101996E+02
 ZZZ     -0.2689592838189E+03

 dipole-quadrupole imag (Cartesian):
 XXX      0.3851618114879E+03
 XXY      0.1256164167735E+03
 XXZ     -0.4660518605191E+01
 XYY     -0.1625221465574E+01
 XYZ     -0.6735604123961E+02
 XZZ      0.1815090242689E+02
 YXX      0.4920718002024E+03
 YXY      0.2739844637812E+03
 YXZ      0.1122685311685E+02
 YYY      0.2136979946153E+01
 YYZ     -0.1597678798942E+03
 YZZ      0.1631177898209E+02
 ZXX      0.6491709175803E+02
 ZXY      0.3341776479037E+02
 ZXZ      0.5333297902739E+01
 ZYY      0.2026988109826E+00
 ZYZ     -0.1942348249555E+02
 ZZZ      0.1179367302795E+01

 dipole-quadrupole (traceless):
 XXX      0.3282558212146E+04
 XXY      0.3390068488175E+03
 XXZ     -0.5204324925577E+03
 XYY     -0.1781200562130E+04
 XYZ     -0.1268772968057E+03
 XZZ     -0.1501357650016E+04
 YXX      0.3088168486143E+03
 YXY      0.1305598491550E+04
 YXZ     -0.8460055362140E+02
 YYY     -0.5764323508369E+02
 YYZ     -0.2912610686735E+03
 YZZ     -0.2511736135306E+03
 ZXX      0.2400643814325E+03
 ZXY      0.4354817943897E+02
 ZXZ      0.1103615546687E+04
 ZYY      0.9318055467802E+02
 ZYZ      0.5561497652995E+02
 ZZZ     -0.3332449361105E+03

 roa end


 Electric Dipole Response Matrix (nonzero elements):

              1        2        3      
    1  408.5316  71.1656   2.8701
    2   71.1656 202.3107   5.8266
    3    2.8701   5.8266 124.7823
 
 Imaginary part:

              1        2        3      
    1   44.8643  60.0678   7.5593
    2   60.0678 142.8847  17.3460
    3    7.5593  17.3460   2.6851

 ------------------------------------------
 average:       245.20822 + I      63.47804


 DFT Linear Response polarizability / au 
 Frequency  =       0.1280230 / au
 Wavelength =     355.8997446 / nm
              X              Y              Z
 -----------------------------------------------
 X     408.5316253     71.1656238      2.8701266
 Y      71.1656246    202.3107084      5.8266416
 Z       2.8701267      5.8266416    124.7823396
 -----------------------------------------------
 Eigenvalues =     430.7715137    180.5334220    124.3197375
 Isotropic   =     245.2082244
 Anisotropic =     230.7175561
 -----------------------------------------------
 *************************

 DFT Linear Response IMAG polarizability / au 
 Frequency  =       0.1280230 / au
 Wavelength =     355.8997446 / nm
              X              Y              Z
 -----------------------------------------------
 X      44.8642651     60.0678385      7.5592809
 Y      60.0678367    142.8847462     17.3459673
 Z       7.5592806     17.3459672      2.6851234
 -----------------------------------------------
 Eigenvalues =      16.3726067    173.4935708      0.5679572
 Isotropic   =      63.4780449
 Anisotropic =     135.2036145
 -----------------------------------------------
 *************************

 Magnetic Dipole Response Matrix (nonzero elements):
 Optical rotation tensor Beta
 (Buckingham-Dunn version including dipole-quadrupole terms)

              1        2        3      
    1   -5.6389 -38.1195 -92.5620
    2  -38.1195   9.3648 -65.0734
    3  -92.5620 -65.0734 -13.9933
 
 Imaginary part:

              1        2        3      
    1   37.8751 -71.4910  87.3389
    2   93.5563-114.0686 286.1701
    3   11.5704 -19.0429  33.3675

 ------------------------------------------
 average:        -3.42246 + I     -14.27532

 Principal components and PAS (Real part)
               -139.08185
                 88.75584
                 40.05864
 ------------------------
 average:        -3.42246

              1        2        3      
    1    0.5926   0.5946  -0.5434
    2    0.4462   0.3193   0.8361
    3    0.6706  -0.7379  -0.0761

 Chiral response tensor (Real part):

              1        2        3      
    1   -2.3142  19.0598  46.2810
    2   19.0598  -9.8161  32.5367
    3   46.2810  32.5367   1.8629
 
 Principal components and PAS (Real part)
                 64.40724
                -49.51161
                -25.16301
 ------------------------
 average:        -3.42246

              1        2        3      
    1    0.5926   0.5946  -0.5434
    2    0.4462   0.3193   0.8361
    3    0.6706  -0.7379  -0.0761
 Exiting AOResponse driver routine

 Task  times  cpu:     5610.2s     wall:     5887.6s
 
 
                                NWChem Input Module
                                -------------------
 
 
 Summary of allocated global arrays
-----------------------------------
  No active global arrays



                         GA Statistics for process    0
                         ------------------------------

       create   destroy   get      put      acc     scatter   gather  read&inc
calls: 9023     9023     2.63e+08 5.02e+07 8.79e+06 8226        0     2648     
number of processes/call 1.00e+00 1.01e+00 1.21e+00 0.00e+00 0.00e+00
bytes total:             4.32e+10 1.90e+09 4.51e+10 0.00e+00 0.00e+00 2.12e+04
bytes remote:            1.70e+10 5.97e+08 2.08e+10 -4.48e+02 0.00e+00 0.00e+00
Max memory consumed for GA by this process: 128676136 bytes
 
MA_summarize_allocated_blocks: starting scan ...
MA_summarize_allocated_blocks: scan completed: 0 heap blocks, 0 stack blocks
MA usage statistics:

	allocation statistics:
					      heap	     stack
					      ----	     -----
	current number of blocks	         0	         0
	maximum number of blocks	        24	        52
	current total bytes		         0	         0
	maximum total bytes		  15665040	 107234648
	maximum total K-bytes		     15666	    107235
	maximum total M-bytes		        16	       108
 
 
                                     CITATION
                                     --------
                Please cite the following reference when publishing
                           results obtained with NWChem:
 
                 M. Valiev, E.J. Bylaska, N. Govind, K. Kowalski,
              T.P. Straatsma, H.J.J. van Dam, D. Wang, J. Nieplocha,
                        E. Apra, T.L. Windus, W.A. de Jong
                 "NWChem: a comprehensive and scalable open-source
                  solution for large scale molecular simulations"
                      Comput. Phys. Commun. 181, 1477 (2010)
                           doi:10.1016/j.cpc.2010.04.018
 
                                      AUTHORS
                                      -------
          E. Apra, E. J. Bylaska, W. A. de Jong, N. Govind, K. Kowalski,
       T. P. Straatsma, M. Valiev, H. J. J. van Dam, D. Wang, T. L. Windus,
        J. Hammond, J. Autschbach, K. Bhaskaran-Nair, J. Brabec, K. Lopata,
    S. A. Fischer, S. Krishnamoorthy, M. Jacquelin, W. Ma, M. Klemm, O. Villa,
      Y. Chen, V. Anisimov, F. Aquino, S. Hirata, M. T. Hackler, V. Konjkov,
            D. Mejia-Rodriguez, T. Risthaus, M. Malagoli, A. Marenich,
   A. Otero-de-la-Roza, J. Mullin, P. Nichols, R. Peverati, J. Pittner, Y. Zhao,
        P.-D. Fan, A. Fonari, M. J. Williamson, R. J. Harrison, J. R. Rehr,
      M. Dupuis, D. Silverstein, D. M. A. Smith, J. Nieplocha, V. Tipparaju,
    M. Krishnan, B. E. Van Kuiken, A. Vazquez-Mayagoitia, L. Jensen, M. Swart,
      Q. Wu, T. Van Voorhis, A. A. Auer, M. Nooijen, L. D. Crosby, E. Brown,
      G. Cisneros, G. I. Fann, H. Fruchtl, J. Garza, K. Hirao, R. A. Kendall,
      J. A. Nichols, K. Tsemekhman, K. Wolinski, J. Anchell, D. E. Bernholdt,
      P. Borowski, T. Clark, D. Clerc, H. Dachsel, M. J. O. Deegan, K. Dyall,
    D. Elwood, E. Glendening, M. Gutowski, A. C. Hess, J. Jaffe, B. G. Johnson,
     J. Ju, R. Kobayashi, R. Kutteh, Z. Lin, R. Littlefield, X. Long, B. Meng,
      T. Nakajima, S. Niu, L. Pollack, M. Rosing, K. Glaesemann, G. Sandrone,
      M. Stave, H. Taylor, G. Thomas, J. H. van Lenthe, A. T. Wong, Z. Zhang.

 Total times  cpu:     6427.1s     wall:     6710.8s
