 argument  1 = naproxen_355.9_000.inp
 


============================== echo of input deck ==============================
echo
start naproxen_355.9_000.inp
title "naproxen roa calculations at 355.9 nm"
charge 0



geometry units angstrom nocenter noautoz noautosym nucleus point;symmetry c1
 O -2.048605 -0.721840 -0.456245
 C -0.674837 -0.646757 -0.541043
 C -0.121449  0.623317 -0.436988
 C  1.280742  0.814044 -0.510481
 C  1.888654  2.099382 -0.404783
 C  3.258877  2.245662 -0.480267
 C  4.118443  1.123988 -0.672416
 C  3.549889 -0.136576 -0.772394
 C  2.142032 -0.328023 -0.697301
 C  0.169398 -1.778610 -0.724219
 C  5.634881  1.350781 -0.764054
 C  6.329694  0.808178  0.491346
 O  6.541226 -0.550744  0.437182
 O  6.660201  1.475679  1.451632
 C  6.258275  0.813497 -2.075214
 H  5.805717  2.432788 -0.713085
 H  5.783750  1.303910 -2.934209
 H  6.120036 -0.267962 -2.175928
 H  7.335476  1.023528 -2.110083
 H  6.954226 -0.794152  1.293169
 H  1.253413  2.973426 -0.260687
 H  3.699429  3.238749 -0.391841
 H  4.181605 -1.014996 -0.901885
 C  1.540695 -1.611935 -0.798985
 H -0.253240 -2.776231 -0.806365
 H  2.180166 -2.483691 -0.939531
 H -0.783332  1.476876 -0.295943
 C -2.680932 -2.008541 -0.553144
 H -2.359134 -2.679527  0.257524
 H -2.482311 -2.484864 -1.525086
 H -3.753242 -1.813967 -0.457828
end

basis spherical
* library def2-TZVP
end

 set prop:newaoresp 1
 set aor:roadata T
 set cphf:maxsub 100
 set cphf:acc 1.0d-10
 set cphf:maxiter 100

property
    response 1   0.128023
    bdtensor
    convergence 1e-7
    damping 0.0037
    giao
end

dft
 direct
 mult 1
 xc becke88 lyp
 iterations 250
 tolerances tight
 grid xfine
 convergence nolevelshifting
 convergence energy 1e-6
 convergence gradient 1e-6


end

task dft gradient
task dft property
================================================================================


                                         
                                         
 
 
              Northwest Computational Chemistry Package (NWChem) 6.8
              ------------------------------------------------------
 
 
                    Environmental Molecular Sciences Laboratory
                       Pacific Northwest National Laboratory
                                Richland, WA 99352
 
                              Copyright (c) 1994-2017
                       Pacific Northwest National Laboratory
                            Battelle Memorial Institute
 
             NWChem is an open-source computational chemistry package
                        distributed under the terms of the
                      Educational Community License (ECL) 2.0
             A copy of the license is included with this distribution
                              in the LICENSE.TXT file
 
                                  ACKNOWLEDGMENT
                                  --------------

            This software and its documentation were developed at the
            EMSL at Pacific Northwest National Laboratory, a multiprogram
            national laboratory, operated for the U.S. Department of Energy
            by Battelle under Contract Number DE-AC05-76RL01830. Support
            for this work was provided by the Department of Energy Office
            of Biological and Environmental Research, Office of Basic
            Energy Sciences, and the Office of Advanced Scientific Computing.


           Job information
           ---------------

    hostname        = cpn-f15-34.cbls.ccr.buffalo.edu
    program         = /util/academic/nwchem/nwchem-6.8/bin/LINUX64/nwchem
    date            = Tue Feb 26 11:30:26 2019

    compiled        = Tue_Nov_06_14:59:08_2018
    source          = /util/academic/nwchem/nwchem-6.8
    nwchem branch   = 6.8
    nwchem revision = v6.8-47-gdf6c956
    ga revision     = ga-5.6.3
    use scalapack   = F
    input           = naproxen_355.9_000.inp
    prefix          = naproxen_355.9_000.inp.
    data base       = ./naproxen_355.9_000.inp.db
    status          = startup
    nproc           =       11
    time left       =     -1s



           Memory information
           ------------------

    heap     =   13107194 doubles =    100.0 Mbytes
    stack    =   13107199 doubles =    100.0 Mbytes
    global   =   26214400 doubles =    200.0 Mbytes (distinct from heap & stack)
    total    =   52428793 doubles =    400.0 Mbytes
    verify   = yes
    hardfail = no 


           Directory information
           ---------------------
 
  0 permanent = .
  0 scratch   = .
 
 
 
 
                                NWChem Input Module
                                -------------------
 
 
                       naproxen roa calculations at 355.9 nm
                       -------------------------------------

 Scaling coordinates for geometry "geometry" by  1.889725989
 (inverse scale =  0.529177249)

 
 
                             Geometry "geometry" -> ""
                             -------------------------
 
 Output coordinates in angstroms (scale by  1.889725989 to convert to a.u.)
 
  No.       Tag          Charge          X              Y              Z
 ---- ---------------- ---------- -------------- -------------- --------------
    1 O                    8.0000    -2.04860500    -0.72184000    -0.45624500
    2 C                    6.0000    -0.67483700    -0.64675700    -0.54104300
    3 C                    6.0000    -0.12144900     0.62331700    -0.43698800
    4 C                    6.0000     1.28074200     0.81404400    -0.51048100
    5 C                    6.0000     1.88865400     2.09938200    -0.40478300
    6 C                    6.0000     3.25887700     2.24566200    -0.48026700
    7 C                    6.0000     4.11844300     1.12398800    -0.67241600
    8 C                    6.0000     3.54988900    -0.13657600    -0.77239400
    9 C                    6.0000     2.14203200    -0.32802300    -0.69730100
   10 C                    6.0000     0.16939800    -1.77861000    -0.72421900
   11 C                    6.0000     5.63488100     1.35078100    -0.76405400
   12 C                    6.0000     6.32969400     0.80817800     0.49134600
   13 O                    8.0000     6.54122600    -0.55074400     0.43718200
   14 O                    8.0000     6.66020100     1.47567900     1.45163200
   15 C                    6.0000     6.25827500     0.81349700    -2.07521400
   16 H                    1.0000     5.80571700     2.43278800    -0.71308500
   17 H                    1.0000     5.78375000     1.30391000    -2.93420900
   18 H                    1.0000     6.12003600    -0.26796200    -2.17592800
   19 H                    1.0000     7.33547600     1.02352800    -2.11008300
   20 H                    1.0000     6.95422600    -0.79415200     1.29316900
   21 H                    1.0000     1.25341300     2.97342600    -0.26068700
   22 H                    1.0000     3.69942900     3.23874900    -0.39184100
   23 H                    1.0000     4.18160500    -1.01499600    -0.90188500
   24 C                    6.0000     1.54069500    -1.61193500    -0.79898500
   25 H                    1.0000    -0.25324000    -2.77623100    -0.80636500
   26 H                    1.0000     2.18016600    -2.48369100    -0.93953100
   27 H                    1.0000    -0.78333200     1.47687600    -0.29594300
   28 C                    6.0000    -2.68093200    -2.00854100    -0.55314400
   29 H                    1.0000    -2.35913400    -2.67952700     0.25752400
   30 H                    1.0000    -2.48231100    -2.48486400    -1.52508600
   31 H                    1.0000    -3.75324200    -1.81396700    -0.45782800
 
      Atomic Mass 
      ----------- 
 
      O                 15.994910
      C                 12.000000
      H                  1.007825
 

 Effective nuclear repulsion energy (a.u.)    1121.0195999600

            Nuclear Dipole moment (a.u.) 
            ----------------------------
        X                 Y               Z
 ---------------- ---------------- ----------------
   602.9573410481    37.7361064516  -102.3114355395
 
 
            XYZ format geometry
            -------------------
    31
 geometry
 O                    -2.04860500    -0.72184000    -0.45624500
 C                    -0.67483700    -0.64675700    -0.54104300
 C                    -0.12144900     0.62331700    -0.43698800
 C                     1.28074200     0.81404400    -0.51048100
 C                     1.88865400     2.09938200    -0.40478300
 C                     3.25887700     2.24566200    -0.48026700
 C                     4.11844300     1.12398800    -0.67241600
 C                     3.54988900    -0.13657600    -0.77239400
 C                     2.14203200    -0.32802300    -0.69730100
 C                     0.16939800    -1.77861000    -0.72421900
 C                     5.63488100     1.35078100    -0.76405400
 C                     6.32969400     0.80817800     0.49134600
 O                     6.54122600    -0.55074400     0.43718200
 O                     6.66020100     1.47567900     1.45163200
 C                     6.25827500     0.81349700    -2.07521400
 H                     5.80571700     2.43278800    -0.71308500
 H                     5.78375000     1.30391000    -2.93420900
 H                     6.12003600    -0.26796200    -2.17592800
 H                     7.33547600     1.02352800    -2.11008300
 H                     6.95422600    -0.79415200     1.29316900
 H                     1.25341300     2.97342600    -0.26068700
 H                     3.69942900     3.23874900    -0.39184100
 H                     4.18160500    -1.01499600    -0.90188500
 C                     1.54069500    -1.61193500    -0.79898500
 H                    -0.25324000    -2.77623100    -0.80636500
 H                     2.18016600    -2.48369100    -0.93953100
 H                    -0.78333200     1.47687600    -0.29594300
 C                    -2.68093200    -2.00854100    -0.55314400
 H                    -2.35913400    -2.67952700     0.25752400
 H                    -2.48231100    -2.48486400    -1.52508600
 H                    -3.75324200    -1.81396700    -0.45782800
 
 ==============================================================================
                                internuclear distances
 ------------------------------------------------------------------------------
       center one      |      center two      | atomic units |  angstroms
 ------------------------------------------------------------------------------
    2 C                |   1 O                |     2.60485  |     1.37843
    3 C                |   2 C                |     2.62540  |     1.38930
    4 C                |   3 C                |     2.67776  |     1.41701
    5 C                |   4 C                |     2.69432  |     1.42577
    6 C                |   5 C                |     2.60796  |     1.38007
    7 C                |   6 C                |     2.69505  |     1.42616
    8 C                |   7 C                |     2.62003  |     1.38646
    9 C                |   4 C                |     2.72608  |     1.44258
    9 C                |   8 C                |     2.68870  |     1.42280
   10 C                |   2 C                |     2.69071  |     1.42386
   11 C                |   7 C                |     2.90269  |     1.53604
   12 C                |  11 C                |     2.89887  |     1.53402
   13 O                |  12 C                |     2.60093  |     1.37635
   14 O                |  12 C                |     2.29657  |     1.21529
   15 C                |  11 C                |     2.92538  |     1.54804
   16 H                |  11 C                |     2.07227  |     1.09660
   17 H                |  15 C                |     2.07315  |     1.09706
   18 H                |  15 C                |     2.06906  |     1.09490
   19 H                |  15 C                |     2.07499  |     1.09804
   20 H                |  13 O                |     1.85398  |     0.98109
   21 H                |   5 C                |     2.05993  |     1.09007
   22 H                |   6 C                |     2.05982  |     1.09001
   23 H                |   8 C                |     2.05924  |     1.08970
   24 C                |   9 C                |     2.68606  |     1.42140
   24 C                |  10 C                |     2.61427  |     1.38341
   25 H                |  10 C                |     2.05331  |     1.08656
   26 H                |  24 C                |     2.06026  |     1.09025
   27 H                |   3 C                |     2.05845  |     1.08929
   28 C                |   1 O                |     2.71544  |     1.43695
   29 H                |  28 C                |     2.07952  |     1.10044
   30 H                |  28 C                |     2.07956  |     1.10046
   31 H                |  28 C                |     2.06732  |     1.09398
 ------------------------------------------------------------------------------
                         number of included internuclear distances:         32
 ==============================================================================



 ==============================================================================
                                 internuclear angles
 ------------------------------------------------------------------------------
        center 1       |       center 2       |       center 3       |  degrees
 ------------------------------------------------------------------------------
    2 C                |   1 O                |  28 C                |   118.89
    1 O                |   2 C                |   3 C                |   116.24
    1 O                |   2 C                |  10 C                |   123.75
    3 C                |   2 C                |  10 C                |   120.01
    2 C                |   3 C                |   4 C                |   120.89
    2 C                |   3 C                |  27 H                |   118.95
    4 C                |   3 C                |  27 H                |   120.17
    3 C                |   4 C                |   5 C                |   122.64
    3 C                |   4 C                |   9 C                |   119.40
    5 C                |   4 C                |   9 C                |   117.95
    4 C                |   5 C                |   6 C                |   120.99
    4 C                |   5 C                |  21 H                |   118.96
    6 C                |   5 C                |  21 H                |   120.06
    5 C                |   6 C                |   7 C                |   121.49
    5 C                |   6 C                |  22 H                |   119.57
    7 C                |   6 C                |  22 H                |   118.94
    6 C                |   7 C                |   8 C                |   118.53
    6 C                |   7 C                |  11 C                |   119.14
    8 C                |   7 C                |  11 C                |   122.33
    7 C                |   8 C                |   9 C                |   121.62
    7 C                |   8 C                |  23 H                |   120.25
    9 C                |   8 C                |  23 H                |   118.13
    4 C                |   9 C                |   8 C                |   119.41
    4 C                |   9 C                |  24 C                |   118.15
    8 C                |   9 C                |  24 C                |   122.44
    2 C                |  10 C                |  24 C                |   119.93
    2 C                |  10 C                |  25 H                |   120.59
   24 C                |  10 C                |  25 H                |   119.48
    7 C                |  11 C                |  12 C                |   110.25
    7 C                |  11 C                |  15 C                |   113.38
    7 C                |  11 C                |  16 H                |   107.26
   12 C                |  11 C                |  15 C                |   112.83
   12 C                |  11 C                |  16 H                |   103.91
   15 C                |  11 C                |  16 H                |   108.61
   11 C                |  12 C                |  13 O                |   112.75
   11 C                |  12 C                |  14 O                |   125.14
   13 O                |  12 C                |  14 O                |   122.11
   12 C                |  13 O                |  20 H                |   105.98
   11 C                |  15 C                |  17 H                |   109.50
   11 C                |  15 C                |  18 H                |   111.71
   11 C                |  15 C                |  19 H                |   110.83
   17 H                |  15 C                |  18 H                |   108.35
   17 H                |  15 C                |  19 H                |   108.30
   18 H                |  15 C                |  19 H                |   108.05
    9 C                |  24 C                |  10 C                |   121.62
    9 C                |  24 C                |  26 H                |   118.90
   10 C                |  24 C                |  26 H                |   119.47
    1 O                |  28 C                |  29 H                |   111.57
    1 O                |  28 C                |  30 H                |   111.57
    1 O                |  28 C                |  31 H                |   105.44
   29 H                |  28 C                |  30 H                |   109.51
   29 H                |  28 C                |  31 H                |   109.32
   30 H                |  28 C                |  31 H                |   109.32
 ------------------------------------------------------------------------------
                            number of included internuclear angles:         53
 ==============================================================================



  warning:::::::::::::: from_environment
  NWCHEM_BASIS_LIBRARY set to: <
 /util/academic/nwchem/nwchem-6.8/src/basis/libraries>
  but file does not exist !
  using .nwchemrc or compiled library


 Summary of "ao basis" -> "" (spherical)
 ------------------------------------------------------------------------------
       Tag                 Description            Shells   Functions and Types
 ---------------- ------------------------------  ------  ---------------------
 *                         def2-TZVP                  on all atoms 


 
                                 NWChem DFT Module
                                 -----------------
 
 
                       naproxen roa calculations at 355.9 nm
 
 
                      Basis "ao basis" -> "ao basis" (spherical)
                      -----
  O (Oxygen)
  ----------
            Exponent  Coefficients 
       -------------- ---------------------------------------------------------
  1 S  2.70323826E+04  0.000217
  1 S  4.05238714E+03  0.001684
  1 S  9.22327227E+02  0.008740
  1 S  2.61240710E+02  0.035240
  1 S  8.53546414E+01  0.111535
  1 S  3.10350352E+01  0.255890
 
  2 S  1.22608607E+01  0.397687
  2 S  4.99870760E+00  0.246278
 
  3 S  1.17031082E+00  1.000000
 
  4 S  4.64747410E-01  1.000000
 
  5 S  1.85045364E-01  1.000000
 
  6 P  6.32749548E+01  0.006069
  6 P  1.46270494E+01  0.041913
  6 P  4.45012235E+00  0.161538
  6 P  1.52757996E+00  0.357070
 
  7 P  5.29351179E-01  1.000000
 
  8 P  1.74784213E-01  1.000000
 
  9 D  2.31400000E+00  1.000000
 
 10 D  6.45000000E-01  1.000000
 
 11 F  1.42800000E+00  1.000000
 
  C (Carbon)
  ----------
            Exponent  Coefficients 
       -------------- ---------------------------------------------------------
  1 S  1.35753497E+04  0.000222
  1 S  2.03523337E+03  0.001723
  1 S  4.63225624E+02  0.008926
  1 S  1.31200196E+02  0.035728
  1 S  4.28530159E+01  0.110763
  1 S  1.55841858E+01  0.242956
 
  2 S  6.20671385E+00  0.414403
  2 S  2.57648965E+00  0.237450
 
  3 S  5.76963394E-01  1.000000
 
  4 S  2.29728314E-01  1.000000
 
  5 S  9.51644400E-02  1.000000
 
  6 P  3.46972322E+01  0.005333
  6 P  7.95826228E+00  0.035864
  6 P  2.37808269E+00  0.142159
  6 P  8.14332082E-01  0.342705
 
  7 P  2.88875473E-01  1.000000
 
  8 P  1.00568237E-01  1.000000
 
  9 D  1.09700000E+00  1.000000
 
 10 D  3.18000000E-01  1.000000
 
 11 F  7.61000000E-01  1.000000
 
  H (Hydrogen)
  ------------
            Exponent  Coefficients 
       -------------- ---------------------------------------------------------
  1 S  3.40613410E+01  0.006025
  1 S  5.12357460E+00  0.045021
  1 S  1.16466260E+00  0.201897
 
  2 S  3.27230410E-01  1.000000
 
  3 S  1.03072410E-01  1.000000
 
  4 P  8.00000000E-01  1.000000
 


 Summary of "ao basis" -> "ao basis" (spherical)
 ------------------------------------------------------------------------------
       Tag                 Description            Shells   Functions and Types
 ---------------- ------------------------------  ------  ---------------------
 O                         def2-TZVP                11       31   5s3p2d1f
 C                         def2-TZVP                11       31   5s3p2d1f
 H                         def2-TZVP                 4        6   3s1p




 Summary of "ao basis" -> "ao basis" (spherical)
 ------------------------------------------------------------------------------
       Tag                 Description            Shells   Functions and Types
 ---------------- ------------------------------  ------  ---------------------
 O                         def2-TZVP                11       31   5s3p2d1f
 C                         def2-TZVP                11       31   5s3p2d1f
 H                         def2-TZVP                 4        6   3s1p


  Caching 1-el integrals 
 
            General Information
            -------------------
          SCF calculation type: DFT
          Wavefunction type:  closed shell.
          No. of atoms     :    31
          No. of electrons :   122
           Alpha electrons :    61
            Beta electrons :    61
          Charge           :     0
          Spin multiplicity:     1
          Use of symmetry is: off; symmetry adaption is: off
          Maximum number of iterations: 250
          This is a Direct SCF calculation.
          AO basis - number of functions:   611
                     number of shells:   243
          Convergence on energy requested:  1.00D-06
          Convergence on density requested:  1.00D-05
          Convergence on gradient requested:  1.00D-06
 
              XC Information
              --------------
                    Becke 1988 Exchange Functional  1.000          
              Lee-Yang-Parr Correlation Functional  1.000          
 
             Grid Information
             ----------------
          Grid used for XC integration:  xfine     
          Radial quadrature: Mura-Knowles        
          Angular quadrature: Lebedev. 
          Tag              B.-S. Rad. Rad. Pts. Rad. Cut. Ang. Pts.
          ---              ---------- --------- --------- ---------
          O                   0.60      100          18.0      1454
          C                   0.70      100          20.0      1454
          H                   0.35      100          19.0      1202
          Grid pruning is: on 
          Number of quadrature shells:  3100
          Spatial weights used:  Erf1
 
          Convergence Information
          -----------------------
          Convergence aids based upon iterative change in 
          total energy or number of iterations. 
          Levelshifting, if invoked, occurs when the 
          HOMO/LUMO gap drops below (HL_TOL):  1.00D-02
          DIIS, if invoked, will attempt to extrapolate 
          using up to (NFOCK): 10 stored Fock matrices.

                    Damping( 0%)  Levelshifting(0.0)       DIIS
                  --------------- ------------------- ---------------
          dE  on:    start             N/A                start   
          dE off:    2 iters           N/A              250 iters 

 
      Screening Tolerance Information
      -------------------------------
          Density screening/tol_rho:  1.00D-10
          AO Gaussian exp screening on grid/accAOfunc:  14
          CD Gaussian exp screening on grid/accCDfunc:  20
          XC Gaussian exp screening on grid/accXCfunc:  20
          Schwarz screening/accCoul:  1.00D-08

 
 WARNING : Found     2 linear dependencies 
 S eigenvalue threshold:     1.00000E-05
 Smallest S eigenvalue :     5.92429E-06
 Largest  S eigenvalue :     7.46853E-06
 

 !! The overlap matrix has   2 vectors deemed linearly dependent with
    eigenvalues:
 5.92D-06 7.47D-06
 
 
      Superposition of Atomic Density Guess
      -------------------------------------
 
 Sum of atomic energies:        -758.74884536
 
      Non-variational initial energy
      ------------------------------

 Total energy =    -769.924129
 1-e energy   =   -3254.575636
 2-e energy   =    1363.631907
 HOMO         =      -0.233302
 LUMO         =      -0.059124
 
   Time after variat. SCF:     59.8
   Time prior to 1st pass:     59.8

 Grid_pts file          = ./naproxen_355.9_000.inp.gridpts.00
 Record size in doubles =  12289        No. of grid_pts per rec  =   3070
 Max. records in memory =    148        Max. recs in file   =    776221

 Grid integrated density:     121.999624788540
 Requested integration accuracy:   0.10E-07

           Memory utilization after 1st SCF pass: 
           Heap Space remaining (MW):       11.15            11149714
          Stack Space remaining (MW):       13.10            13102884

   convergence    iter        energy       DeltaE   RMS-Dens  Diis-err    time
 ---------------- ----- ----------------- --------- --------- ---------  ------
 d= 0,ls=0.0,diis     1   -767.2415319871 -1.89D+03  5.46D-03  4.15D+00   141.7
 Grid integrated density:     122.000001688874
 Requested integration accuracy:   0.10E-07
 d= 0,ls=0.0,diis     2   -766.6599393211  5.82D-01  4.11D-03  9.90D+00   222.4
 Grid integrated density:     122.000001655396
 Requested integration accuracy:   0.10E-07
 d= 0,ls=0.0,diis     3   -767.4269182719 -7.67D-01  2.21D-03  2.18D+00   302.9
 Grid integrated density:     122.000001769518
 Requested integration accuracy:   0.10E-07
 d= 0,ls=0.0,diis     4   -767.5762422924 -1.49D-01  1.03D-03  5.79D-01   383.5
 Grid integrated density:     122.000001759983
 Requested integration accuracy:   0.10E-07
 d= 0,ls=0.0,diis     5   -767.6239401935 -4.77D-02  3.23D-04  4.99D-02   464.1
 Grid integrated density:     122.000001736385
 Requested integration accuracy:   0.10E-07
 d= 0,ls=0.0,diis     6   -767.6274584238 -3.52D-03  1.35D-04  1.18D-02   544.7
 Grid integrated density:     122.000001735758
 Requested integration accuracy:   0.10E-07
 d= 0,ls=0.0,diis     7   -767.6289218827 -1.46D-03  5.23D-05  1.51D-03   625.2
 Grid integrated density:     122.000001739179
 Requested integration accuracy:   0.10E-07
 d= 0,ls=0.0,diis     8   -767.6290989337 -1.77D-04  2.00D-05  1.87D-04   705.8
 Grid integrated density:     122.000001739662
 Requested integration accuracy:   0.10E-07
 d= 0,ls=0.0,diis     9   -767.6291226935 -2.38D-05  6.44D-06  1.79D-05   786.4
 Grid integrated density:     122.000001739312
 Requested integration accuracy:   0.10E-07
 d= 0,ls=0.0,diis    10   -767.6291246124 -1.92D-06  2.23D-06  2.48D-06   866.9
 Grid integrated density:     122.000001739284
 Requested integration accuracy:   0.10E-07
 d= 0,ls=0.0,diis    11   -767.6291248695 -2.57D-07  9.91D-07  4.49D-07   947.5


         Total DFT energy =     -767.629124869498
      One electron energy =    -3268.549798569314
           Coulomb energy =     1486.707100687802
    Exchange-Corr. energy =     -106.806026948020
 Nuclear repulsion energy =     1121.019599960033

 Numeric. integr. density =      122.000001739284

     Total iterative time =    887.7s


 
                       DFT Final Molecular Orbital Analysis
                       ------------------------------------
 
 Vector    1  Occ=2.000000D+00  E=-1.882023D+01
              MO Center=  6.5D+00, -5.5D-01,  4.4D-01, r^2= 1.5D-02
   Bfn.  Coefficient  Atom+Function         Bfn.  Coefficient  Atom+Function  
  ----- ------------  ---------------      ----- ------------  ---------------
   374      0.638456  13 O  s               373      0.435410  13 O  s         
   375      0.039867  13 O  s               376     -0.034345  13 O  s         
 
 Vector    2  Occ=2.000000D+00  E=-1.880720D+01
              MO Center= -2.0D+00, -7.2D-01, -4.6D-01, r^2= 1.5D-02
   Bfn.  Coefficient  Atom+Function         Bfn.  Coefficient  Atom+Function  
  ----- ------------  ---------------      ----- ------------  ---------------
     2      0.638265   1 O  s                 1      0.435459   1 O  s         
     3      0.041745   1 O  s                 4     -0.039625   1 O  s         
 
 Vector    3  Occ=2.000000D+00  E=-1.876345D+01
              MO Center=  6.7D+00,  1.5D+00,  1.5D+00, r^2= 1.5D-02
   Bfn.  Coefficient  Atom+Function         Bfn.  Coefficient  Atom+Function  
  ----- ------------  ---------------      ----- ------------  ---------------
   405      0.638440  14 O  s               404      0.435400  14 O  s         
   406      0.039995  14 O  s               407     -0.036668  14 O  s         
 
 Vector    4  Occ=2.000000D+00  E=-1.003457D+01
              MO Center=  6.3D+00,  8.1D-01,  4.9D-01, r^2= 2.8D-02
   Bfn.  Coefficient  Atom+Function         Bfn.  Coefficient  Atom+Function  
  ----- ------------  ---------------      ----- ------------  ---------------
   343      0.606441  12 C  s               342      0.467376  12 C  s         
   344      0.043263  12 C  s         
 
 Vector    5  Occ=2.000000D+00  E=-9.970964D+00
              MO Center= -6.7D-01, -6.5D-01, -5.4D-01, r^2= 2.8D-02
   Bfn.  Coefficient  Atom+Function         Bfn.  Coefficient  Atom+Function  
  ----- ------------  ---------------      ----- ------------  ---------------
    33      0.606510   2 C  s                32      0.467314   2 C  s         
    34      0.047496   2 C  s                35     -0.033729   2 C  s         
   106      0.026387   4 C  py              260     -0.025338   9 C  px        
 
 Vector    6  Occ=2.000000D+00  E=-9.965889D+00
              MO Center= -2.7D+00, -2.0D+00, -5.5D-01, r^2= 2.8D-02
   Bfn.  Coefficient  Atom+Function         Bfn.  Coefficient  Atom+Function  
  ----- ------------  ---------------      ----- ------------  ---------------
   564      0.607002  28 C  s               563      0.467298  28 C  s         
   565      0.040029  28 C  s               567      0.027721  28 C  s         
 
 Vector    7  Occ=2.000000D+00  E=-9.935421D+00
              MO Center=  5.6D+00,  1.4D+00, -7.6D-01, r^2= 2.8D-02
   Bfn.  Coefficient  Atom+Function         Bfn.  Coefficient  Atom+Function  
  ----- ------------  ---------------      ----- ------------  ---------------
   312      0.606564  11 C  s               311      0.467316  11 C  s         
   315      0.092299  11 C  s               314     -0.051179  11 C  s         
   313      0.048504  11 C  s         
 
 Vector    8  Occ=2.000000D+00  E=-9.922179D+00
              MO Center=  4.1D+00,  1.1D+00, -6.7D-01, r^2= 3.1D-02
   Bfn.  Coefficient  Atom+Function         Bfn.  Coefficient  Atom+Function  
  ----- ------------  ---------------      ----- ------------  ---------------
   188      0.606137   7 C  s               187      0.467129   7 C  s         
   189      0.053724   7 C  s               190     -0.051850   7 C  s         
   191      0.043731   7 C  s               159      0.029822   6 C  s         
 
 Vector    9  Occ=2.000000D+00  E=-9.921350D+00
              MO Center=  1.3D+00,  8.1D-01, -5.1D-01, r^2= 3.2D-02
   Bfn.  Coefficient  Atom+Function         Bfn.  Coefficient  Atom+Function  
  ----- ------------  ---------------      ----- ------------  ---------------
    95      0.605809   4 C  s                94      0.466943   4 C  s         
    97     -0.061291   4 C  s                96      0.055696   4 C  s         
   252      0.054218   9 C  s                66      0.036767   3 C  s         
   128      0.032803   5 C  s               315      0.028476  11 C  s         
 
 Vector   10  Occ=2.000000D+00  E=-9.918361D+00
              MO Center=  2.1D+00, -3.4D-01, -7.0D-01, r^2= 4.4D-02
   Bfn.  Coefficient  Atom+Function         Bfn.  Coefficient  Atom+Function  
  ----- ------------  ---------------      ----- ------------  ---------------
   250      0.603762   9 C  s               249      0.465396   9 C  s         
   252     -0.062679   9 C  s                97      0.057536   4 C  s         
   251      0.056230   9 C  s               515      0.049783  24 C  s         
   221      0.039182   8 C  s               514      0.038191  24 C  s         
   517      0.034857  24 C  s         
 
 Vector   11  Occ=2.000000D+00  E=-9.916671D+00
              MO Center=  1.4D+00, -1.6D+00, -7.9D-01, r^2= 2.1D-01
   Bfn.  Coefficient  Atom+Function         Bfn.  Coefficient  Atom+Function  
  ----- ------------  ---------------      ----- ------------  ---------------
   515      0.574736  24 C  s               514      0.442647  24 C  s         
   281      0.188119  10 C  s               280      0.144716  10 C  s         
   250     -0.048097   9 C  s               516      0.043571  24 C  s         
   249     -0.037226   9 C  s               261     -0.034458   9 C  py        
   252      0.032483   9 C  s               253     -0.030296   9 C  s         
 
 Vector   12  Occ=2.000000D+00  E=-9.915977D+00
              MO Center=  3.0D-01, -1.8D+00, -7.3D-01, r^2= 2.0D-01
   Bfn.  Coefficient  Atom+Function         Bfn.  Coefficient  Atom+Function  
  ----- ------------  ---------------      ----- ------------  ---------------
   281      0.576781  10 C  s               280      0.444208  10 C  s         
   515     -0.187490  24 C  s               514     -0.144564  24 C  s         
   282      0.041961  10 C  s         
 
 Vector   13  Occ=2.000000D+00  E=-9.911040D+00
              MO Center=  3.2D+00,  2.2D+00, -4.8D-01, r^2= 7.6D-02
   Bfn.  Coefficient  Atom+Function         Bfn.  Coefficient  Atom+Function  
  ----- ------------  ---------------      ----- ------------  ---------------
   157      0.599268   6 C  s               156      0.461492   6 C  s         
   126      0.093044   5 C  s               125      0.071514   5 C  s         
   158      0.044391   6 C  s         
 
 Vector   14  Occ=2.000000D+00  E=-9.910581D+00
              MO Center=  3.5D+00, -1.3D-01, -7.7D-01, r^2= 3.4D-02
   Bfn.  Coefficient  Atom+Function         Bfn.  Coefficient  Atom+Function  
  ----- ------------  ---------------      ----- ------------  ---------------
   219      0.606040   8 C  s               218      0.466899   8 C  s         
   220      0.047571   8 C  s               252      0.033837   9 C  s         
   315      0.033187  11 C  s         
 
 Vector   15  Occ=2.000000D+00  E=-9.909642D+00
              MO Center=  1.9D+00,  2.1D+00, -4.1D-01, r^2= 7.3D-02
   Bfn.  Coefficient  Atom+Function         Bfn.  Coefficient  Atom+Function  
  ----- ------------  ---------------      ----- ------------  ---------------
   126      0.599361   5 C  s               125      0.461668   5 C  s         
   157     -0.092658   6 C  s               156     -0.071515   6 C  s         
   127      0.045207   5 C  s               106      0.033549   4 C  py        
    97      0.030162   4 C  s                98     -0.027058   4 C  s         
   260     -0.026792   9 C  px        
 
 Vector   16  Occ=2.000000D+00  E=-9.907771D+00
              MO Center=  6.3D+00,  8.1D-01, -2.1D+00, r^2= 2.8D-02
   Bfn.  Coefficient  Atom+Function         Bfn.  Coefficient  Atom+Function  
  ----- ------------  ---------------      ----- ------------  ---------------
   436      0.606867  15 C  s               435      0.467240  15 C  s         
   437      0.042029  15 C  s               439      0.036006  15 C  s         
   438     -0.027485  15 C  s         
 
 Vector   17  Occ=2.000000D+00  E=-9.905881D+00
              MO Center= -1.2D-01,  6.2D-01, -4.4D-01, r^2= 2.8D-02
   Bfn.  Coefficient  Atom+Function         Bfn.  Coefficient  Atom+Function  
  ----- ------------  ---------------      ----- ------------  ---------------
    64      0.606494   3 C  s                63      0.467188   3 C  s         
    65      0.046104   3 C  s               105     -0.033789   4 C  px        
    97      0.028300   4 C  s         
 
 Vector   18  Occ=2.000000D+00  E=-1.002527D+00
              MO Center=  6.6D+00,  2.1D-01,  7.5D-01, r^2= 1.1D+00
   Bfn.  Coefficient  Atom+Function         Bfn.  Coefficient  Atom+Function  
  ----- ------------  ---------------      ----- ------------  ---------------
   376      0.331430  13 O  s               375      0.252942  13 O  s         
   407      0.193618  14 O  s               344      0.189643  12 C  s         
   374     -0.173828  13 O  s               406      0.165311  14 O  s         
   345      0.146868  12 C  s               343     -0.117465  12 C  s         
   405     -0.112328  14 O  s               377      0.103885  13 O  s         
 
 Vector   19  Occ=2.000000D+00  E=-9.659943D-01
              MO Center= -1.9D+00, -8.9D-01, -4.9D-01, r^2= 6.9D-01
   Bfn.  Coefficient  Atom+Function         Bfn.  Coefficient  Atom+Function  
  ----- ------------  ---------------      ----- ------------  ---------------
     4      0.424203   1 O  s                 3      0.309741   1 O  s         
     2     -0.214802   1 O  s                 5      0.137355   1 O  s         
    34      0.126519   2 C  s               565      0.102311  28 C  s         
     1     -0.092333   1 O  s                35      0.089292   2 C  s         
    37     -0.080231   2 C  px              566      0.078898  28 C  s         
 
 Vector   20  Occ=2.000000D+00  E=-9.206010D-01
              MO Center=  6.6D+00,  7.1D-01,  9.7D-01, r^2= 1.3D+00
   Bfn.  Coefficient  Atom+Function         Bfn.  Coefficient  Atom+Function  
  ----- ------------  ---------------      ----- ------------  ---------------
   407      0.325239  14 O  s               376     -0.284729  13 O  s         
   406      0.268376  14 O  s               375     -0.208445  13 O  s         
   405     -0.179961  14 O  s               374      0.142515  13 O  s         
   348      0.137954  12 C  py              408      0.113458  14 O  s         
   377     -0.106523  13 O  s               349      0.105457  12 C  pz        
 
 Vector   21  Occ=2.000000D+00  E=-7.879890D-01
              MO Center=  2.0D+00,  3.2D-01, -6.1D-01, r^2= 3.9D+00
   Bfn.  Coefficient  Atom+Function         Bfn.  Coefficient  Atom+Function  
  ----- ------------  ---------------      ----- ------------  ---------------
   251      0.158373   9 C  s                96      0.155444   4 C  s         
   252      0.141637   9 C  s                97      0.138583   4 C  s         
   220      0.115759   8 C  s               189      0.109156   7 C  s         
   190      0.107420   7 C  s               127      0.105345   5 C  s         
   516      0.105071  24 C  s               250     -0.102171   9 C  s         
 
 Vector   22  Occ=2.000000D+00  E=-7.505565D-01
              MO Center=  2.8D+00,  3.8D-01, -6.8D-01, r^2= 8.2D+00
   Bfn.  Coefficient  Atom+Function         Bfn.  Coefficient  Atom+Function  
  ----- ------------  ---------------      ----- ------------  ---------------
   189      0.160810   7 C  s               190      0.160254   7 C  s         
   314      0.159478  11 C  s               313      0.138963  11 C  s         
   282     -0.118859  10 C  s                34     -0.111483   2 C  s         
   158      0.109089   6 C  s                35     -0.108284   2 C  s         
   188     -0.103804   7 C  s               283     -0.103223  10 C  s         
 
 Vector   23  Occ=2.000000D+00  E=-7.137239D-01
              MO Center=  3.4D+00,  6.8D-01, -7.4D-01, r^2= 9.4D+00
   Bfn.  Coefficient  Atom+Function         Bfn.  Coefficient  Atom+Function  
  ----- ------------  ---------------      ----- ------------  ---------------
   314      0.210738  11 C  s               313      0.169605  11 C  s         
   127     -0.142242   5 C  s               437      0.128099  15 C  s         
   128     -0.126423   5 C  s               438      0.121272  15 C  s         
   282      0.116697  10 C  s               312     -0.111168  11 C  s         
   283      0.106932  10 C  s                97     -0.098489   4 C  s         
 
 Vector   24  Occ=2.000000D+00  E=-6.947424D-01
              MO Center=  1.1D+00, -2.1D-01, -6.2D-01, r^2= 6.2D+00
   Bfn.  Coefficient  Atom+Function         Bfn.  Coefficient  Atom+Function  
  ----- ------------  ---------------      ----- ------------  ---------------
   252     -0.169154   9 C  s                65      0.157885   3 C  s         
   516     -0.155476  24 C  s               251     -0.137547   9 C  s         
    66      0.129402   3 C  s               517     -0.128592  24 C  s         
   220     -0.125412   8 C  s                35      0.123650   2 C  s         
    34      0.110436   2 C  s                97      0.106430   4 C  s         
 
 Vector   25  Occ=2.000000D+00  E=-6.622215D-01
              MO Center=  1.7D+00,  1.8D-01, -7.1D-01, r^2= 1.2D+01
   Bfn.  Coefficient  Atom+Function         Bfn.  Coefficient  Atom+Function  
  ----- ------------  ---------------      ----- ------------  ---------------
    97      0.166856   4 C  s                96      0.150933   4 C  s         
   566      0.147938  28 C  s               565      0.144456  28 C  s         
   190     -0.136856   7 C  s                35     -0.126229   2 C  s         
   158     -0.121061   6 C  s               189     -0.118511   7 C  s         
   438      0.118879  15 C  s               437      0.115300  15 C  s         
 
 Vector   26  Occ=2.000000D+00  E=-6.557318D-01
              MO Center=  1.2D+00, -2.1D-01, -6.2D-01, r^2= 8.2D+00
   Bfn.  Coefficient  Atom+Function         Bfn.  Coefficient  Atom+Function  
  ----- ------------  ---------------      ----- ------------  ---------------
   283      0.172028  10 C  s               282      0.161919  10 C  s         
   221     -0.151912   8 C  s               220     -0.150843   8 C  s         
   159      0.140278   6 C  s               158      0.139027   6 C  s         
   566      0.128442  28 C  s               128      0.126365   5 C  s         
   127      0.121790   5 C  s               565      0.122035  28 C  s         
 
 Vector   27  Occ=2.000000D+00  E=-6.187483D-01
              MO Center=  8.2D-01, -3.5D-01, -7.7D-01, r^2= 1.4D+01
   Bfn.  Coefficient  Atom+Function         Bfn.  Coefficient  Atom+Function  
  ----- ------------  ---------------      ----- ------------  ---------------
   566      0.195860  28 C  s               565      0.184163  28 C  s         
    66      0.150750   3 C  s                65      0.133559   3 C  s         
   438     -0.131930  15 C  s               190      0.129622   7 C  s         
   437     -0.121646  15 C  s                 4     -0.119773   1 O  s         
   189      0.112125   7 C  s               564     -0.112014  28 C  s         
 
 Vector   28  Occ=2.000000D+00  E=-5.961674D-01
              MO Center=  5.4D+00,  4.3D-01, -9.1D-01, r^2= 7.8D+00
   Bfn.  Coefficient  Atom+Function         Bfn.  Coefficient  Atom+Function  
  ----- ------------  ---------------      ----- ------------  ---------------
   438      0.235391  15 C  s               437      0.207957  15 C  s         
   345     -0.157795  12 C  s               344     -0.153530  12 C  s         
   436     -0.130756  15 C  s               314     -0.129489  11 C  s         
   318     -0.111456  11 C  pz              379     -0.111482  13 O  py        
   349      0.095823  12 C  pz              407      0.092182  14 O  s         
 
 Vector   29  Occ=2.000000D+00  E=-5.682014D-01
              MO Center=  2.7D+00,  6.3D-02, -4.4D-01, r^2= 9.7D+00
   Bfn.  Coefficient  Atom+Function         Bfn.  Coefficient  Atom+Function  
  ----- ------------  ---------------      ----- ------------  ---------------
   221      0.155575   8 C  s               517     -0.135023  24 C  s         
   283      0.127807  10 C  s               516     -0.116799  24 C  s         
    66     -0.113596   3 C  s               159     -0.110118   6 C  s         
   282      0.110026  10 C  s               220      0.109384   8 C  s         
   128      0.108014   5 C  s               193     -0.107359   7 C  py        
 
 Vector   30  Occ=2.000000D+00  E=-5.463779D-01
              MO Center=  2.7D+00,  2.1D-01, -3.6D-01, r^2= 1.2D+01
   Bfn.  Coefficient  Atom+Function         Bfn.  Coefficient  Atom+Function  
  ----- ------------  ---------------      ----- ------------  ---------------
    97      0.171962   4 C  s               379     -0.136049  13 O  py        
   159     -0.131745   6 C  s                96      0.129408   4 C  s         
   158     -0.115074   6 C  s               314      0.113871  11 C  s         
   382     -0.105776  13 O  py              345     -0.104437  12 C  s         
   283      0.102710  10 C  s                38     -0.099657   2 C  py        
 
 Vector   31  Occ=2.000000D+00  E=-5.351559D-01
              MO Center=  1.5D+00, -4.3D-02, -6.2D-01, r^2= 5.9D+00
   Bfn.  Coefficient  Atom+Function         Bfn.  Coefficient  Atom+Function  
  ----- ------------  ---------------      ----- ------------  ---------------
   252      0.176085   9 C  s               517     -0.144889  24 C  s         
   251      0.133563   9 C  s                66     -0.124897   3 C  s         
    35      0.124226   2 C  s               100     -0.119987   4 C  py        
   516     -0.116951  24 C  s               221     -0.106905   8 C  s         
   285     -0.099043  10 C  px              520      0.098306  24 C  py        
 
 Vector   32  Occ=2.000000D+00  E=-5.185341D-01
              MO Center=  3.4D+00,  3.1D-01, -4.0D-01, r^2= 1.3D+01
   Bfn.  Coefficient  Atom+Function         Bfn.  Coefficient  Atom+Function  
  ----- ------------  ---------------      ----- ------------  ---------------
   314      0.179385  11 C  s               379     -0.149787  13 O  py        
   190     -0.122497   7 C  s               128      0.120404   5 C  s         
   348      0.118277  12 C  py              382     -0.117897  13 O  py        
   313      0.111214  11 C  s               127      0.102471   5 C  s         
    35      0.097751   2 C  s               189     -0.094905   7 C  s         
 
 Vector   33  Occ=2.000000D+00  E=-4.764346D-01
              MO Center= -6.0D-02, -6.8D-01, -5.7D-01, r^2= 9.2D+00
   Bfn.  Coefficient  Atom+Function         Bfn.  Coefficient  Atom+Function  
  ----- ------------  ---------------      ----- ------------  ---------------
     6      0.201778   1 O  px              569     -0.168139  28 C  py        
    37     -0.167260   2 C  px                9      0.161739   1 O  px        
   572     -0.106291  28 C  py                7      0.104155   1 O  py        
   286     -0.101591  10 C  py              131     -0.097430   5 C  py        
    40     -0.095077   2 C  px              221     -0.093356   8 C  s         
 
 Vector   34  Occ=2.000000D+00  E=-4.595566D-01
              MO Center=  2.2D+00,  9.6D-02, -6.0D-01, r^2= 1.0D+01
   Bfn.  Coefficient  Atom+Function         Bfn.  Coefficient  Atom+Function  
  ----- ------------  ---------------      ----- ------------  ---------------
   254      0.132831   9 C  px              286     -0.132448  10 C  py        
   223     -0.121173   8 C  px              546      0.116285  25 H  s         
   190     -0.115192   7 C  s               283      0.112615  10 C  s         
   128     -0.112027   5 C  s                66      0.111153   3 C  s         
    35     -0.104004   2 C  s               316      0.103919  11 C  px        
 
 Vector   35  Occ=2.000000D+00  E=-4.534035D-01
              MO Center=  1.8D+00,  2.8D-01, -4.8D-01, r^2= 1.2D+01
   Bfn.  Coefficient  Atom+Function         Bfn.  Coefficient  Atom+Function  
  ----- ------------  ---------------      ----- ------------  ---------------
    38      0.128862   2 C  py              285      0.113248  10 C  px        
    99      0.106603   4 C  px              161     -0.106352   6 C  px        
    68     -0.104217   3 C  px              224      0.102721   8 C  py        
    69     -0.097191   3 C  py              519     -0.096896  24 C  px        
     6     -0.094147   1 O  px              162     -0.090448   6 C  py        
 
 Vector   36  Occ=2.000000D+00  E=-4.256685D-01
              MO Center=  5.4D+00,  5.0D-01,  1.4D-01, r^2= 8.1D+00
   Bfn.  Coefficient  Atom+Function         Bfn.  Coefficient  Atom+Function  
  ----- ------------  ---------------      ----- ------------  ---------------
   379      0.163595  13 O  py              410     -0.161713  14 O  py        
   380      0.158475  13 O  pz              407     -0.150233  14 O  s         
   349      0.136517  12 C  pz              377     -0.127578  13 O  s         
   382      0.126435  13 O  py              383      0.123003  13 O  pz        
   413     -0.117100  14 O  py              376     -0.114963  13 O  s         
 
 Vector   37  Occ=2.000000D+00  E=-4.198968D-01
              MO Center=  5.0D+00,  7.5D-01,  1.4D-01, r^2= 1.1D+01
   Bfn.  Coefficient  Atom+Function         Bfn.  Coefficient  Atom+Function  
  ----- ------------  ---------------      ----- ------------  ---------------
   407     -0.183514  14 O  s               411     -0.180460  14 O  pz        
   345      0.167160  12 C  s               348      0.141371  12 C  py        
   344      0.132645  12 C  s               318      0.129155  11 C  pz        
   414     -0.127407  14 O  pz              408     -0.126282  14 O  s         
   406     -0.119137  14 O  s               380      0.114494  13 O  pz        
 
 Vector   38  Occ=2.000000D+00  E=-4.158687D-01
              MO Center= -2.2D+00, -1.7D+00, -5.5D-01, r^2= 2.0D+00
   Bfn.  Coefficient  Atom+Function         Bfn.  Coefficient  Atom+Function  
  ----- ------------  ---------------      ----- ------------  ---------------
   570      0.279284  28 C  pz                8      0.224468   1 O  pz        
   573      0.191749  28 C  pz               11      0.183761   1 O  pz        
   601     -0.152933  30 H  s               595      0.150371  29 H  s         
   600     -0.113924  30 H  s               594      0.112010  29 H  s         
    39      0.104097   2 C  pz               14      0.094130   1 O  pz        
 
 Vector   39  Occ=2.000000D+00  E=-4.140636D-01
              MO Center=  2.2D+00, -5.1D-03, -4.3D-01, r^2= 1.2D+01
   Bfn.  Coefficient  Atom+Function         Bfn.  Coefficient  Atom+Function  
  ----- ------------  ---------------      ----- ------------  ---------------
   162      0.150595   6 C  py                7      0.133111   1 O  py        
   286     -0.122408  10 C  py              519     -0.121645  24 C  px        
   100     -0.117043   4 C  py              255      0.108486   9 C  py        
    10      0.106998   1 O  py              380      0.100594  13 O  pz        
   503      0.092430  22 H  s               192      0.091969   7 C  px        
 
 Vector   40  Occ=2.000000D+00  E=-4.024636D-01
              MO Center=  4.2D+00,  4.0D-01, -2.1D-01, r^2= 1.2D+01
   Bfn.  Coefficient  Atom+Function         Bfn.  Coefficient  Atom+Function  
  ----- ------------  ---------------      ----- ------------  ---------------
   347      0.187758  12 C  px              378      0.145470  13 O  px        
   350      0.142102  12 C  px              409      0.141522  14 O  px        
   381      0.117580  13 O  px              412      0.111586  14 O  px        
   223      0.107882   8 C  px               68      0.098105   3 C  px        
   316      0.095587  11 C  px              442      0.090484  15 C  pz        
 
 Vector   41  Occ=2.000000D+00  E=-3.956678D-01
              MO Center=  1.3D+00,  8.8D-02, -5.9D-01, r^2= 1.0D+01
   Bfn.  Coefficient  Atom+Function         Bfn.  Coefficient  Atom+Function  
  ----- ------------  ---------------      ----- ------------  ---------------
    97      0.145535   4 C  s               252     -0.141123   9 C  s         
   224     -0.135776   8 C  py              131     -0.133625   5 C  py        
   568     -0.130825  28 C  px              558     -0.126652  27 H  s         
   509      0.119159  23 H  s               520     -0.112831  24 C  py        
    66     -0.099558   3 C  s                69     -0.098414   3 C  py        
 
 Vector   42  Occ=2.000000D+00  E=-3.894269D-01
              MO Center=  1.8D+00,  1.9D-01, -5.4D-01, r^2= 1.3D+01
   Bfn.  Coefficient  Atom+Function         Bfn.  Coefficient  Atom+Function  
  ----- ------------  ---------------      ----- ------------  ---------------
   130      0.172197   5 C  px              161     -0.143297   6 C  px        
   568      0.134075  28 C  px                7     -0.121767   1 O  py        
   520     -0.118616  24 C  py              497     -0.116184  21 H  s         
   552      0.116473  26 H  s               133      0.103388   5 C  px        
    10     -0.098676   1 O  py              519      0.093780  24 C  px        
 
 Vector   43  Occ=2.000000D+00  E=-3.784402D-01
              MO Center=  4.5D+00,  2.4D-01, -8.1D-01, r^2= 1.4D+01
   Bfn.  Coefficient  Atom+Function         Bfn.  Coefficient  Atom+Function  
  ----- ------------  ---------------      ----- ------------  ---------------
   441      0.153791  15 C  py              378     -0.149423  13 O  px        
   317      0.135871  11 C  py              381     -0.119366  13 O  px        
   479     -0.113494  18 H  s               285      0.110673  10 C  px        
   347     -0.108069  12 C  px              467      0.106880  16 H  s         
   519     -0.102926  24 C  px              444      0.098735  15 C  py        
 
 Vector   44  Occ=2.000000D+00  E=-3.694557D-01
              MO Center=  1.8D+00,  2.2D-01, -6.2D-01, r^2= 7.0D+00
   Bfn.  Coefficient  Atom+Function         Bfn.  Coefficient  Atom+Function  
  ----- ------------  ---------------      ----- ------------  ---------------
   131     -0.151681   5 C  py               69      0.144489   3 C  py        
   520      0.136024  24 C  py              497     -0.130320  21 H  s         
   224     -0.128675   8 C  py              552     -0.125954  26 H  s         
   558      0.119425  27 H  s               519     -0.117675  24 C  px        
   509      0.112608  23 H  s               130      0.092671   5 C  px        
 
 Vector   45  Occ=2.000000D+00  E=-3.630670D-01
              MO Center=  4.7D+00,  3.4D-01, -4.0D-01, r^2= 1.4D+01
   Bfn.  Coefficient  Atom+Function         Bfn.  Coefficient  Atom+Function  
  ----- ------------  ---------------      ----- ------------  ---------------
   380      0.190603  13 O  pz              411      0.182438  14 O  pz        
   383      0.147325  13 O  pz              414      0.132061  14 O  pz        
   440      0.130061  15 C  px              442      0.119365  15 C  pz        
   473     -0.112357  17 H  s               376     -0.106014  13 O  s         
   485      0.101891  19 H  s               568     -0.101246  28 C  px        
 
 Vector   46  Occ=2.000000D+00  E=-3.576711D-01
              MO Center=  2.3D+00, -7.3D-02, -7.4D-01, r^2= 1.4D+01
   Bfn.  Coefficient  Atom+Function         Bfn.  Coefficient  Atom+Function  
  ----- ------------  ---------------      ----- ------------  ---------------
   285      0.142719  10 C  px              568      0.134050  28 C  px        
   519     -0.129077  24 C  px              441     -0.121560  15 C  py        
   161      0.116851   6 C  px              130     -0.111724   5 C  px        
    99      0.102649   4 C  px              607     -0.102067  31 H  s         
   473     -0.095721  17 H  s               571      0.088259  28 C  px        
 
 Vector   47  Occ=2.000000D+00  E=-3.491815D-01
              MO Center=  1.7D+00, -7.9D-02, -5.7D-01, r^2= 8.9D+00
   Bfn.  Coefficient  Atom+Function         Bfn.  Coefficient  Atom+Function  
  ----- ------------  ---------------      ----- ------------  ---------------
   256      0.130230   9 C  pz              101      0.128979   4 C  pz        
    39      0.116569   2 C  pz              104      0.105317   4 C  pz        
   259      0.105732   9 C  pz               70      0.098185   3 C  pz        
   521      0.098407  24 C  pz               42      0.093915   2 C  pz        
   570     -0.093856  28 C  pz              287      0.082032  10 C  pz        
 
 Vector   48  Occ=2.000000D+00  E=-3.451448D-01
              MO Center=  1.9D+00, -7.3D-02, -7.9D-01, r^2= 1.2D+01
   Bfn.  Coefficient  Atom+Function         Bfn.  Coefficient  Atom+Function  
  ----- ------------  ---------------      ----- ------------  ---------------
    38      0.128853   2 C  py              440      0.126632  15 C  px        
   162     -0.113574   6 C  py              546      0.113549  25 H  s         
   286     -0.111825  10 C  py               69     -0.102742   3 C  py        
   224     -0.101072   8 C  py              503     -0.096959  22 H  s         
   193      0.094187   7 C  py              485      0.093275  19 H  s         
 
 Vector   49  Occ=2.000000D+00  E=-3.350272D-01
              MO Center=  4.6D+00,  6.6D-01, -6.5D-01, r^2= 1.1D+01
   Bfn.  Coefficient  Atom+Function         Bfn.  Coefficient  Atom+Function  
  ----- ------------  ---------------      ----- ------------  ---------------
   442      0.198497  15 C  pz              318     -0.155126  11 C  pz        
   349      0.135774  12 C  pz              445      0.132405  15 C  pz        
   473     -0.127395  17 H  s               378     -0.125665  13 O  px        
   410     -0.121101  14 O  py              321     -0.115461  11 C  pz        
   409     -0.107355  14 O  px              381     -0.100654  13 O  px        
 
 Vector   50  Occ=2.000000D+00  E=-3.332310D-01
              MO Center=  3.9D+00,  6.1D-01, -7.7D-01, r^2= 1.1D+01
   Bfn.  Coefficient  Atom+Function         Bfn.  Coefficient  Atom+Function  
  ----- ------------  ---------------      ----- ------------  ---------------
    99     -0.163896   4 C  px              440     -0.154520  15 C  px        
    68      0.153068   3 C  px              485     -0.132910  19 H  s         
   349     -0.111091  12 C  pz              102     -0.105543   4 C  px        
   223     -0.103520   8 C  px              254      0.103140   9 C  px        
   380      0.103392  13 O  pz              162     -0.102080   6 C  py        
 
 Vector   51  Occ=2.000000D+00  E=-3.157064D-01
              MO Center=  4.4D+00,  8.8D-01, -1.1D+00, r^2= 1.1D+01
   Bfn.  Coefficient  Atom+Function         Bfn.  Coefficient  Atom+Function  
  ----- ------------  ---------------      ----- ------------  ---------------
   317      0.209297  11 C  py              441     -0.203498  15 C  py        
   467      0.176515  16 H  s               479      0.167350  18 H  s         
   320      0.139070  11 C  py              444     -0.131549  15 C  py        
   466      0.121382  16 H  s               478      0.115305  18 H  s         
   100     -0.103241   4 C  py              161     -0.093624   6 C  px        
 
 Vector   52  Occ=2.000000D+00  E=-3.096206D-01
              MO Center=  6.9D-01, -2.1D-01, -5.3D-01, r^2= 1.1D+01
   Bfn.  Coefficient  Atom+Function         Bfn.  Coefficient  Atom+Function  
  ----- ------------  ---------------      ----- ------------  ---------------
     8      0.195371   1 O  pz               39      0.178799   2 C  pz        
    11      0.157460   1 O  pz               42      0.142184   2 C  pz        
   570     -0.135307  28 C  pz              163     -0.112687   6 C  pz        
   225     -0.112376   8 C  pz               14      0.108395   1 O  pz        
   132     -0.104437   5 C  pz              595     -0.104819  29 H  s         
 
 Vector   53  Occ=2.000000D+00  E=-3.002342D-01
              MO Center=  3.2D+00,  4.8D-01, -7.3D-01, r^2= 1.1D+01
   Bfn.  Coefficient  Atom+Function         Bfn.  Coefficient  Atom+Function  
  ----- ------------  ---------------      ----- ------------  ---------------
   192      0.145718   7 C  px              316     -0.143193  11 C  px        
   223     -0.119029   8 C  px              224     -0.117581   8 C  py        
   193      0.109932   7 C  py              467     -0.108067  16 H  s         
     6      0.107034   1 O  px              254      0.107369   9 C  px        
   195      0.106483   7 C  px              519     -0.104088  24 C  px        
 
 Vector   54  Occ=2.000000D+00  E=-2.955703D-01
              MO Center=  1.8D+00,  2.7D-01, -5.5D-01, r^2= 1.3D+01
   Bfn.  Coefficient  Atom+Function         Bfn.  Coefficient  Atom+Function  
  ----- ------------  ---------------      ----- ------------  ---------------
     7      0.181667   1 O  py               10      0.145475   1 O  py        
    98      0.133208   4 C  s               284      0.128642  10 C  s         
   161     -0.119138   6 C  px              192      0.111625   7 C  px        
   316     -0.111434  11 C  px              193     -0.107095   7 C  py        
   222     -0.107374   8 C  s                 6     -0.106038   1 O  px        
 
 Vector   55  Occ=2.000000D+00  E=-2.819049D-01
              MO Center=  6.3D-01, -3.2D-01, -4.8D-01, r^2= 1.0D+01
   Bfn.  Coefficient  Atom+Function         Bfn.  Coefficient  Atom+Function  
  ----- ------------  ---------------      ----- ------------  ---------------
     7      0.186160   1 O  py               10      0.149300   1 O  py        
   255      0.142098   9 C  py              100     -0.138944   4 C  py        
    38     -0.135608   2 C  py              286      0.129759  10 C  py        
     6     -0.121404   1 O  px              520     -0.118942  24 C  py        
   292      0.115652  10 C  py              284      0.111097  10 C  s         
 
 Vector   56  Occ=2.000000D+00  E=-2.768256D-01
              MO Center=  6.1D+00,  4.9D-01,  6.8D-01, r^2= 4.8D+00
   Bfn.  Coefficient  Atom+Function         Bfn.  Coefficient  Atom+Function  
  ----- ------------  ---------------      ----- ------------  ---------------
   378     -0.295788  13 O  px              409      0.286987  14 O  px        
   222      0.278271   8 C  s               381     -0.237108  13 O  px        
   412      0.227785  14 O  px              160     -0.211429   6 C  s         
   384     -0.195841  13 O  px              415      0.160499  14 O  px        
   199      0.148912   7 C  py              411     -0.131780  14 O  pz        
 
 Vector   57  Occ=2.000000D+00  E=-2.674207D-01
              MO Center=  1.3D+00, -2.2D-01, -6.0D-01, r^2= 8.2D+00
   Bfn.  Coefficient  Atom+Function         Bfn.  Coefficient  Atom+Function  
  ----- ------------  ---------------      ----- ------------  ---------------
   521     -0.206029  24 C  pz                8      0.196995   1 O  pz        
   524     -0.169139  24 C  pz              163      0.162773   6 C  pz        
    11      0.159212   1 O  pz              287     -0.150174  10 C  pz        
   132      0.134400   5 C  pz              166      0.133976   6 C  pz        
   256     -0.126431   9 C  pz              290     -0.124561  10 C  pz        
 
 Vector   58  Occ=2.000000D+00  E=-2.475944D-01
              MO Center=  2.5D+00,  5.9D-01, -3.5D-01, r^2= 8.8D+00
   Bfn.  Coefficient  Atom+Function         Bfn.  Coefficient  Atom+Function  
  ----- ------------  ---------------      ----- ------------  ---------------
   101      0.189916   4 C  pz              225     -0.169610   8 C  pz        
   194     -0.161805   7 C  pz              104      0.157166   4 C  pz        
    70      0.153559   3 C  pz              410      0.143874  14 O  py        
   228     -0.138290   8 C  pz              197     -0.135162   7 C  pz        
     8     -0.131762   1 O  pz              132      0.129066   5 C  pz        
 
 Vector   59  Occ=2.000000D+00  E=-2.280052D-01
              MO Center=  5.4D+00,  9.4D-01,  6.8D-01, r^2= 8.6D+00
   Bfn.  Coefficient  Atom+Function         Bfn.  Coefficient  Atom+Function  
  ----- ------------  ---------------      ----- ------------  ---------------
   410      0.311716  14 O  py              413      0.247224  14 O  py        
   315     -0.237339  11 C  s               416      0.190135  14 O  py        
   411     -0.186078  14 O  pz              379      0.151227  13 O  py        
   414     -0.146339  14 O  pz              409     -0.132217  14 O  px        
   382      0.126299  13 O  py              318     -0.122159  11 C  pz        
 
 Vector   60  Occ=2.000000D+00  E=-2.096313D-01
              MO Center=  1.6D+00,  2.2D-02, -6.0D-01, r^2= 6.7D+00
   Bfn.  Coefficient  Atom+Function         Bfn.  Coefficient  Atom+Function  
  ----- ------------  ---------------      ----- ------------  ---------------
   287      0.224730  10 C  pz              163      0.201902   6 C  pz        
   290      0.185898  10 C  pz              256     -0.173025   9 C  pz        
   166      0.167242   6 C  pz              293      0.157962  10 C  pz        
   259     -0.143954   9 C  pz                8     -0.133862   1 O  pz        
   169      0.134289   6 C  pz              101     -0.127239   4 C  pz        
 
 Vector   61  Occ=2.000000D+00  E=-1.797335D-01
              MO Center=  1.2D+00,  1.9D-01, -5.5D-01, r^2= 7.5D+00
   Bfn.  Coefficient  Atom+Function         Bfn.  Coefficient  Atom+Function  
  ----- ------------  ---------------      ----- ------------  ---------------
    70     -0.207836   3 C  pz                8      0.199288   1 O  pz        
    73     -0.174762   3 C  pz              132      0.163522   5 C  pz        
    11      0.160896   1 O  pz              194     -0.159126   7 C  pz        
    39     -0.154784   2 C  pz              521      0.150679  24 C  pz        
    14      0.139199   1 O  pz               76     -0.139819   3 C  pz        
 
 Vector   62  Occ=0.000000D+00  E=-7.068620D-02
              MO Center=  1.9D+00,  1.2D-01, -6.1D-01, r^2= 6.8D+00
   Bfn.  Coefficient  Atom+Function         Bfn.  Coefficient  Atom+Function  
  ----- ------------  ---------------      ----- ------------  ---------------
   527      0.264268  24 C  pz              138     -0.231361   5 C  pz        
   231     -0.221025   8 C  pz              293     -0.219794  10 C  pz        
   439      0.211714  15 C  s                76      0.209400   3 C  pz        
   521      0.205309  24 C  pz              225     -0.201702   8 C  pz        
   132     -0.184578   5 C  pz              169      0.182995   6 C  pz        
 
 Vector   63  Occ=0.000000D+00  E=-4.561048D-02
              MO Center=  3.9D+00,  6.9D-01, -1.2D-01, r^2= 9.9D+00
   Bfn.  Coefficient  Atom+Function         Bfn.  Coefficient  Atom+Function  
  ----- ------------  ---------------      ----- ------------  ---------------
   222     -0.380699   8 C  s               160      0.353951   6 C  s         
   169     -0.289531   6 C  pz              439      0.289966  15 C  s         
   199     -0.283573   7 C  py              350     -0.241819  12 C  px        
   315     -0.235527  11 C  s               200      0.230581   7 C  pz        
   347     -0.222082  12 C  px              129     -0.212673   5 C  s         
 
 Vector   64  Occ=0.000000D+00  E=-2.312302D-02
              MO Center=  4.0D+00,  5.2D-01,  1.9D-02, r^2= 1.0D+01
   Bfn.  Coefficient  Atom+Function         Bfn.  Coefficient  Atom+Function  
  ----- ------------  ---------------      ----- ------------  ---------------
   222     -0.378990   8 C  s               160      0.350504   6 C  s         
   350     -0.296086  12 C  px              347     -0.292280  12 C  px        
   199     -0.260829   7 C  py              200     -0.261406   7 C  pz        
   315     -0.237407  11 C  s               129     -0.233531   5 C  s         
    45      0.230575   2 C  pz              262      0.219291   9 C  pz        
 
 Vector   65  Occ=0.000000D+00  E=-1.332268D-02
              MO Center=  1.9D+00,  1.8D-01, -5.5D-01, r^2= 6.5D+00
   Bfn.  Coefficient  Atom+Function         Bfn.  Coefficient  Atom+Function  
  ----- ------------  ---------------      ----- ------------  ---------------
   315      0.531493  11 C  s               527     -0.408865  24 C  pz        
   138     -0.390592   5 C  pz               76     -0.386356   3 C  pz        
   231     -0.381395   8 C  pz              262      0.342308   9 C  pz        
   346     -0.327498  12 C  s               107      0.302117   4 C  pz        
   492     -0.256343  20 H  s               169      0.194709   6 C  pz        
 
 Vector   66  Occ=0.000000D+00  E= 4.537570D-03
              MO Center=  6.5D+00, -2.5D-01,  6.3D-01, r^2= 8.0D+00
   Bfn.  Coefficient  Atom+Function         Bfn.  Coefficient  Atom+Function  
  ----- ------------  ---------------      ----- ------------  ---------------
   315      3.094877  11 C  s               492     -1.301380  20 H  s         
   346     -1.277021  12 C  s               439      1.270720  15 C  s         
   198     -1.166116   7 C  px              468     -0.798120  16 H  s         
    98      0.734165   4 C  s               324      0.728607  11 C  pz        
   105      0.688851   4 C  px              480     -0.599187  18 H  s         
 
 Vector   67  Occ=0.000000D+00  E= 1.684993D-02
              MO Center= -1.7D+00, -2.8D+00, -7.0D-01, r^2= 7.2D+00
   Bfn.  Coefficient  Atom+Function         Bfn.  Coefficient  Atom+Function  
  ----- ------------  ---------------      ----- ------------  ---------------
   567      3.797919  28 C  s               547     -1.742951  25 H  s         
   596     -1.551135  29 H  s               602     -1.558274  30 H  s         
   260     -1.537298   9 C  px               43      1.471901   2 C  px        
   292     -1.252466  10 C  py              106      1.086769   4 C  py        
   608     -0.921369  31 H  s               553     -0.813263  26 H  s         
 
 Vector   68  Occ=0.000000D+00  E= 3.239432D-02
              MO Center=  3.6D+00,  8.9D-01, -6.2D-01, r^2= 2.2D+01
   Bfn.  Coefficient  Atom+Function         Bfn.  Coefficient  Atom+Function  
  ----- ------------  ---------------      ----- ------------  ---------------
   439      2.345145  15 C  s               315      1.654898  11 C  s         
   198     -1.264309   7 C  px              468     -1.241726  16 H  s         
   504     -1.133086  22 H  s               498     -1.039751  21 H  s         
   284      1.003839  10 C  s                98      0.968894   4 C  s         
   474     -0.863972  17 H  s               105      0.837993   4 C  px        
 
 Vector   69  Occ=0.000000D+00  E= 3.716926D-02
              MO Center=  9.9D-01, -8.2D-01, -8.1D-01, r^2= 2.1D+01
   Bfn.  Coefficient  Atom+Function         Bfn.  Coefficient  Atom+Function  
  ----- ------------  ---------------      ----- ------------  ---------------
   284      1.631238  10 C  s               439     -1.521895  15 C  s         
   553     -1.247171  26 H  s               315     -1.190096  11 C  s         
   567     -1.156306  28 C  s               468      1.023760  16 H  s         
     5     -0.820141   1 O  s               547     -0.803263  25 H  s         
   602      0.732071  30 H  s               596      0.724798  29 H  s         
 
 Vector   70  Occ=0.000000D+00  E= 4.178242D-02
              MO Center=  3.5D+00,  7.4D-01, -1.0D+00, r^2= 1.7D+01
   Bfn.  Coefficient  Atom+Function         Bfn.  Coefficient  Atom+Function  
  ----- ------------  ---------------      ----- ------------  ---------------
   439      3.221252  15 C  s               480     -1.316221  18 H  s         
   315     -1.293523  11 C  s               498      1.290742  21 H  s         
   106     -1.050696   4 C  py              504      1.036641  22 H  s         
   229      1.028302   8 C  px              260      0.932455   9 C  px        
   486     -0.933790  19 H  s               261     -0.895232   9 C  py        
 
 Vector   71  Occ=0.000000D+00  E= 5.146843D-02
              MO Center=  5.9D-01, -4.9D-01, -7.0D-01, r^2= 1.9D+01
   Bfn.  Coefficient  Atom+Function         Bfn.  Coefficient  Atom+Function  
  ----- ------------  ---------------      ----- ------------  ---------------
   553      1.517465  26 H  s               526      1.300655  24 C  py        
   498      1.220894  21 H  s               559      1.210594  27 H  s         
   510      1.109464  23 H  s                75     -1.050362   3 C  py        
     5     -0.981652   1 O  s               439      0.925914  15 C  s         
   198      0.914106   7 C  px              315     -0.855463  11 C  s         
 
 Vector   72  Occ=0.000000D+00  E= 5.551018D-02
              MO Center=  2.1D+00,  2.6D-01, -6.5D-01, r^2= 1.1D+01
   Bfn.  Coefficient  Atom+Function         Bfn.  Coefficient  Atom+Function  
  ----- ------------  ---------------      ----- ------------  ---------------
   315      1.407531  11 C  s               439     -1.249670  15 C  s         
   486      0.686632  19 H  s               169      0.510744   6 C  pz        
   198     -0.508252   7 C  px              293      0.489092  10 C  pz        
    45     -0.465326   2 C  pz              200     -0.463003   7 C  pz        
   553     -0.349631  26 H  s                76      0.342331   3 C  pz        
 
 Vector   73  Occ=0.000000D+00  E= 6.228247D-02
              MO Center=  2.8D+00,  1.1D+00, -8.5D-01, r^2= 2.0D+01
   Bfn.  Coefficient  Atom+Function         Bfn.  Coefficient  Atom+Function  
  ----- ------------  ---------------      ----- ------------  ---------------
   315      3.684945  11 C  s               439     -2.981287  15 C  s         
   253     -2.004458   9 C  s               468     -1.553287  16 H  s         
   168      1.468730   6 C  py              504     -1.414492  22 H  s         
   559      1.375675  27 H  s               498      1.336580  21 H  s         
   137     -1.288314   5 C  py              480      1.128263  18 H  s         
 
 Vector   74  Occ=0.000000D+00  E= 6.825950D-02
              MO Center=  1.7D+00,  1.1D-01, -7.6D-01, r^2= 2.0D+01
   Bfn.  Coefficient  Atom+Function         Bfn.  Coefficient  Atom+Function  
  ----- ------------  ---------------      ----- ------------  ---------------
   260      1.940185   9 C  px              160      1.820540   6 C  s         
   284     -1.808898  10 C  s               559      1.584820  27 H  s         
   105      1.513624   4 C  px              525     -1.438404  24 C  px        
   547      1.355588  25 H  s               229      1.340932   8 C  px        
   504     -1.331170  22 H  s               510     -1.311228  23 H  s         
 
 Vector   75  Occ=0.000000D+00  E= 7.501609D-02
              MO Center= -2.8D+00, -1.4D+00, -5.0D-01, r^2= 1.1D+01
   Bfn.  Coefficient  Atom+Function         Bfn.  Coefficient  Atom+Function  
  ----- ------------  ---------------      ----- ------------  ---------------
   608      2.776111  31 H  s               574      1.613479  28 C  px        
   602     -0.953451  30 H  s               596     -0.914172  29 H  s         
    67     -0.754831   3 C  s               498     -0.738707  21 H  s         
   559      0.558401  27 H  s               518     -0.548489  24 C  s         
   526      0.545435  24 C  py              291      0.532109  10 C  px        
 
 Vector   76  Occ=0.000000D+00  E= 8.340556D-02
              MO Center=  5.7D+00,  9.4D-01, -1.4D+00, r^2= 1.1D+01
   Bfn.  Coefficient  Atom+Function         Bfn.  Coefficient  Atom+Function  
  ----- ------------  ---------------      ----- ------------  ---------------
   315      4.777355  11 C  s               346     -2.293739  12 C  s         
   439     -2.085820  15 C  s               474      1.894523  17 H  s         
   446      1.432233  15 C  px              191     -1.370881   7 C  s         
   198     -1.361684   7 C  px              486     -1.278287  19 H  s         
   222     -1.203090   8 C  s               408      0.971396  14 O  s         
 
 Vector   77  Occ=0.000000D+00  E= 8.584264D-02
              MO Center= -1.9D+00, -2.6D+00, -6.8D-01, r^2= 6.4D+00
   Bfn.  Coefficient  Atom+Function         Bfn.  Coefficient  Atom+Function  
  ----- ------------  ---------------      ----- ------------  ---------------
   596      2.129625  29 H  s               602     -2.085239  30 H  s         
   576     -1.354213  28 C  pz              315     -0.474206  11 C  s         
   474      0.293944  17 H  s               486     -0.293917  19 H  s         
   570     -0.281437  28 C  pz              198      0.245905   7 C  px        
    14      0.228207   1 O  pz              439      0.202491  15 C  s         
 
 Vector   78  Occ=0.000000D+00  E= 8.757865D-02
              MO Center=  4.4D+00,  7.6D-01, -1.4D+00, r^2= 1.3D+01
   Bfn.  Coefficient  Atom+Function         Bfn.  Coefficient  Atom+Function  
  ----- ------------  ---------------      ----- ------------  ---------------
   315      4.970456  11 C  s               198     -2.177576   7 C  px        
   439     -1.751068  15 C  s               346     -1.626390  12 C  s         
   323     -1.460992  11 C  py              105      1.443150   4 C  px        
   474     -1.402162  17 H  s               486      1.313602  19 H  s         
   448     -1.201076  15 C  pz              261     -1.050483   9 C  py        
 
 Vector   79  Occ=0.000000D+00  E= 9.438533D-02
              MO Center=  2.0D+00,  6.6D-01, -7.7D-01, r^2= 2.1D+01
   Bfn.  Coefficient  Atom+Function         Bfn.  Coefficient  Atom+Function  
  ----- ------------  ---------------      ----- ------------  ---------------
   315      3.216536  11 C  s               253      2.743293   9 C  s         
    98      2.514721   4 C  s                67     -2.257355   3 C  s         
   518     -2.093537  24 C  s               129     -1.997575   5 C  s         
   559     -1.966487  27 H  s                74     -1.813558   3 C  px        
   468     -1.811333  16 H  s               547      1.703690  25 H  s         
 
 Vector   80  Occ=0.000000D+00  E= 1.061457D-01
              MO Center=  3.5D+00, -1.0D+00, -1.3D+00, r^2= 1.9D+01
   Bfn.  Coefficient  Atom+Function         Bfn.  Coefficient  Atom+Function  
  ----- ------------  ---------------      ----- ------------  ---------------
   315      3.887207  11 C  s               547     -2.176168  25 H  s         
   526      2.070680  24 C  py              553      1.981133  26 H  s         
    67      1.919864   3 C  s               292     -1.886715  10 C  py        
   439     -1.583145  15 C  s               480     -1.345406  18 H  s         
   346     -1.316377  12 C  s               486      1.297091  19 H  s         
 
 Vector   81  Occ=0.000000D+00  E= 1.175696D-01
              MO Center=  2.2D+00,  1.1D+00, -5.0D-01, r^2= 1.5D+01
   Bfn.  Coefficient  Atom+Function         Bfn.  Coefficient  Atom+Function  
  ----- ------------  ---------------      ----- ------------  ---------------
   199      2.482790   7 C  py              315     -2.265913  11 C  s         
    67      1.880767   3 C  s               222      1.786505   8 C  s         
   498      1.737535  21 H  s               137     -1.696660   5 C  py        
   168      1.701395   6 C  py              230      1.694980   8 C  py        
   504     -1.593942  22 H  s               261     -1.566018   9 C  py        
 
 Vector   82  Occ=0.000000D+00  E= 1.201789D-01
[...]
   Bfn.  Coefficient  Atom+Function         Bfn.  Coefficient  Atom+Function  
  ----- ------------  ---------------      ----- ------------  ---------------
   258      1.911742   9 C  py              260      1.815511   9 C  px        
   106     -1.755823   4 C  py              315      1.760983  11 C  s         
   113      1.722154   4 C  d -2            517      1.707365  24 C  s         
   103      1.654839   4 C  py              261     -1.618700   9 C  py        
   268     -1.588327   9 C  d -2            190      1.471048   7 C  s         
 
 Vector  604  Occ=0.000000D+00  E= 2.277240D+01
              MO Center=  1.8D+00,  2.6D-01, -4.9D-01, r^2= 7.4D+00
   Bfn.  Coefficient  Atom+Function         Bfn.  Coefficient  Atom+Function  
  ----- ------------  ---------------      ----- ------------  ---------------
   190      3.009213   7 C  s               191     -2.171786   7 C  s         
   314     -1.977238  11 C  s               105     -1.888827   4 C  px        
   159     -1.808186   6 C  s               283     -1.650422  10 C  s         
   189     -1.636533   7 C  s                35      1.618400   2 C  s         
   128      1.447172   5 C  s               222      1.415381   8 C  s         
 
 Vector  605  Occ=0.000000D+00  E= 2.286722D+01
              MO Center=  5.6D+00,  6.9D-01,  2.1D-01, r^2= 2.9D+00
   Bfn.  Coefficient  Atom+Function         Bfn.  Coefficient  Atom+Function  
  ----- ------------  ---------------      ----- ------------  ---------------
   315      1.906783  11 C  s               344      1.852309  12 C  s         
   352      1.670625  12 C  pz              343     -1.653792  12 C  s         
   407     -1.537468  14 O  s               191     -1.250279   7 C  s         
   342      1.237524  12 C  s               226      1.035637   8 C  px        
   319      1.025055  11 C  px              414      0.890194  14 O  pz        
 
 Vector  606  Occ=0.000000D+00  E= 2.326168D+01
              MO Center=  1.8D+00,  2.8D-01, -6.0D-01, r^2= 2.1D+00
   Bfn.  Coefficient  Atom+Function         Bfn.  Coefficient  Atom+Function  
  ----- ------------  ---------------      ----- ------------  ---------------
   252     -7.277923   9 C  s                97      7.207845   4 C  s         
   221      4.150914   8 C  s                66     -3.736810   3 C  s         
   128     -3.376835   5 C  s               517      3.074313  24 C  s         
   190     -2.978710   7 C  s                96     -2.668323   4 C  s         
   251      2.637841   9 C  s               226     -2.269865   8 C  px        
 
 Vector  607  Occ=0.000000D+00  E= 4.335844D+01
              MO Center=  6.6D+00, -3.5D-01,  5.3D-01, r^2= 5.8D-01
   Bfn.  Coefficient  Atom+Function         Bfn.  Coefficient  Atom+Function  
  ----- ------------  ---------------      ----- ------------  ---------------
   376      2.449926  13 O  s               315      1.868318  11 C  s         
   375     -1.774748  13 O  s               374      1.644964  13 O  s         
   373     -1.326809  13 O  s               377     -1.142491  13 O  s         
   222     -1.104486   8 C  s               314     -1.026057  11 C  s         
   191     -0.996437   7 C  s               198     -0.973972   7 C  px        
 
 Vector  608  Occ=0.000000D+00  E= 4.344987D+01
              MO Center=  6.6D+00,  1.3D+00,  1.4D+00, r^2= 5.8D-01
   Bfn.  Coefficient  Atom+Function         Bfn.  Coefficient  Atom+Function  
  ----- ------------  ---------------      ----- ------------  ---------------
   407      2.683533  14 O  s               406     -1.781104  14 O  s         
   405      1.646505  14 O  s               404     -1.327102  14 O  s         
   408     -1.261338  14 O  s               376     -1.004143  13 O  s         
   315      0.941296  11 C  s               191     -0.931657   7 C  s         
   352     -0.823101  12 C  pz              222      0.773503   8 C  s         
 
 Vector  609  Occ=0.000000D+00  E= 4.376522D+01
              MO Center= -2.0D+00, -7.2D-01, -4.6D-01, r^2= 1.5D-01
   Bfn.  Coefficient  Atom+Function         Bfn.  Coefficient  Atom+Function  
  ----- ------------  ---------------      ----- ------------  ---------------
     4      3.186355   1 O  s                 3     -2.084087   1 O  s         
     2      1.752738   1 O  s                 1     -1.399107   1 O  s         
    43     -1.145916   2 C  px               71      1.111944   3 C  px        
    40      1.047050   2 C  px              102      1.049997   4 C  px        
    97     -0.975601   4 C  s               284      0.882773  10 C  s         
 

 center of mass
 --------------
 x =   4.96602813 y =   0.34320326 z =  -0.79188865

 moments of inertia (a.u.)
 ------------------
        1938.011620291441       -1782.833392345753        -506.100769912038
       -1782.833392345753        8333.342262900454        -128.792532650522
        -506.100769912038        -128.792532650522        9297.094450199262
 
     Multipole analysis of the density
     ---------------------------------
 
     L   x y z        total         alpha         beta         nuclear
     -   - - -        -----         -----         ----         -------
     0   0 0 0     -0.000000    -61.000000    -61.000000    122.000000
 
     1   1 0 0     -0.554247   -301.755794   -301.755794    602.957341
     1   0 1 0     -1.010679    -19.373393    -19.373393     37.736106
     1   0 0 1     -0.542605     50.884415     50.884415   -102.311436
 
     2   2 0 0    -74.145669  -3657.498556  -3657.498556   7240.851442
     2   1 1 0     -3.710278   -587.186064   -587.186064   1170.661849
     2   1 0 1     -5.665919    135.039251    135.039251   -275.744420
     2   0 2 0    -68.628036   -459.124721   -459.124721    849.621406
     2   0 1 1     -2.874581    -16.924137    -16.924137     30.973693
     2   0 0 2    -77.862074   -219.149575   -219.149575    360.437076
 
 *** CALLING NEW AORESP DRIVER FOR CLOSED AND OPEN SHELLS ***
 Entering AOResponse driver routine


--------------------------------------------------------------------------------

          ****************
          *** RESPONSE ***
          ****************

 Response module for NWChem and dynamic CPKS solver
 developed by J. Autschbach and coworkers, SUNY Buffalo
 The methodology used in this program is described in 
 ChemPhysChem 12 (2011), 3224-3235 (main reference)
 J. Chem. Phys. 123 (2005), 114103
 J. Chem. Phys. 122 (2005), 224115
 J. Chem. Phys. 122 (2005), 074105
 Comp. Lett. 3 (2007), 131-150 (contact JA for a copy)
 Please cite this work in publications based on results
 obtained with this code. Thank you!

 For extension of response module to open shell
 calculations please acknowledge:
 F. Aquino, Northwestern University, Schatz Rsrch Group
 The update to the methodology is described in
 J. Phys. Chem. A 118 (2014) 517-525



          -----------------------------------------------
          Solving response equations for perturbing field
          -----------------------------------------------

 number of frequencies:     1
 frequency in a.u.:  0.1280230E+00
 Perturbing field: electric
 Using GIAO formalism for OptRot
 Adding quadrupole terms to OptRot
 to create an origin in dependent tensor.
 Using El. Dipole Length Gauge
 
 Applying DAMPING constant of  0.003700 a.u.
 
 Setting up CPKS
 with frequency omega =      0.12802300 a.u.
 and a damping of            0.00370000 a.u.

 
                            NWChem Dynamic CPHF Module
                            --------------------------
 
 
    scftype = RHF 
    nclosed =   61
      nopen =    0
  variables =   133712
  num. vecs =        3
  tolerance =   1.0D-07
  max. iter =  100

 Grid integrated density:     122.000001737551
 Requested integration accuracy:   0.10E-07
 SCF residual:   1.778647857865634E-004


Iterative solution of linear equations
  No. of variables    66856
  No. of equations        3
  Maximum subspace       99
       Convergence  1.0D-07
        Start time   1372.1


   iter   nsub   residual    time 
   ----  ------  --------  --------- 
 dft_CPHF2_read: failed to open./naproxen_355.9_000.inp.aoresp_fiao_f1
     1      3    9.13D+01    1729.0
     2      6    2.89D+01    2087.5
     3      9    7.09D+00    2450.5
     4     12    2.08D+00    2808.7
     5     15    4.34D-01    3168.4
     6     18    2.55D-01    3525.1
     7     21    1.36D-01    3881.3
     8     24    1.63D-02    4237.3
     9     27    2.76D-03    4592.2
    10     30    9.87D-04    4948.9
    11     33    6.16D-04    5303.4
    12     36    7.67D-05    5665.1
    13     39    7.20D-06    6029.0
    14     42    2.53D-06    6390.6
    15     45    9.14D-07    6750.9
    16     48    2.42D-07    7111.9
    17     51    1.95D-07    7474.0
    18     54    1.20D-07    7835.3
    19     57    7.39D-08    8195.9

 Calculating some arrays needed for GIAO optical rotation

    0 giaofock schwarz done =      45.02%
    0 giaofock schwarz done =      47.99%
 Grid integrated density:     122.000001737770
 Requested integration accuracy:   0.10E-07
 aor_r1_tensor_giao: roadata output requested
 dip-quad polarizability Re:

              1        2        3        4        5        6      
    1 3332.1125 237.1325-346.6130 -45.1048 -91.8234 140.4187
    2  429.8662 901.2272 -54.6297 133.5856-212.9207   5.7754
    3  118.1494  32.5944 735.2799  15.3914  34.7284-268.8914
 traceless dip-quad polarizability:

              1        2        3      
    1 3284.4556 355.6988-519.9195
    2  355.6988*********-137.7352
    3 -519.9195-137.7352*********

              1        2        3      
    1  360.18571351.8407 -81.9446
    2 1351.8407 -84.2352-319.3811
    3  -81.9446-319.3811-275.9505

              1        2        3      
    1  244.8994  48.89161102.9198
    2   48.8916  90.7624  52.0926
    3 1102.9198  52.0926-335.6618

 roa begin

 alpha real:
 XX       0.4090991974937E+03
 XY       0.7739076474596E+02
 XZ       0.3509963923763E+01
 YX       0.7739076522553E+02
 YY       0.2189666721284E+03
 YZ       0.7862023801027E+01
 ZX       0.3509963875519E+01
 ZY       0.7862023806973E+01
 ZZ       0.1250012486180E+03

 alpha im:
 XX       0.4238894071604E+02
 XY       0.5763419499132E+02
 XZ       0.7226770414358E+01
 YX       0.5763419632680E+02
 YY       0.1397972256463E+03
 YZ       0.1702314918480E+02
 ZX       0.7226770435347E+01
 ZY       0.1702314888375E+02
 ZZ       0.2649513532022E+01

 beta real:
 XX      -0.5270113609660E+01
 XY       0.3914323330415E+02
 XZ       0.1308722224664E+02
 YX      -0.1436407084424E+02
 YY       0.7699030597604E+01
 YZ      -0.5276123167508E+02
 ZX      -0.3525730715980E+01
 ZY       0.4471191571232E+02
 ZZ      -0.5725018148871E+00

 G-prime = -omega beta(real):
 XX      -0.5270113609660E+01
 XY       0.3914323330415E+02
 XZ       0.1308722224664E+02
 YX      -0.1436407084424E+02
 YY       0.7699030597604E+01
 YZ      -0.5276123167508E+02
 ZX      -0.3525730715980E+01
 ZY       0.4471191571232E+02
 ZZ      -0.5725018148871E+00

 beta im:
 XX      -0.4745068896620E+01
 XY       0.8887586072158E+01
 XZ      -0.1201072897253E+02
 YX      -0.1194330134824E+02
 YY       0.1462487502630E+02
 YZ      -0.3877369463983E+02
 ZX      -0.1481909674561E+01
 ZY       0.2437747233885E+01
 ZZ      -0.4565696517960E+01

 G-prime = -omega beta(imag):
 XX      -0.4745068896620E+01
 XY       0.8887586072158E+01
 XZ      -0.1201072897253E+02
 YX      -0.1194330134824E+02
 YY       0.1462487502630E+02
 YZ      -0.3877369463983E+02
 ZX      -0.1481909674561E+01
 ZY       0.2437747233885E+01
 ZZ      -0.4565696517960E+01

 dipole-quadrupole real (Cartesian):
 XXX      0.3332112536201E+04
 XXY      0.2371325203174E+03
 XXZ     -0.3466129745217E+03
 XYY     -0.4510482062007E+02
 XYZ     -0.9182344223302E+02
 XZZ      0.1404186922594E+03
 YXX      0.4298662047421E+03
 YXY      0.9012271653350E+03
 YXZ     -0.5462971116213E+02
 YYY      0.1335856037612E+03
 YYZ     -0.2129207340915E+03
 YZZ      0.5775362290906E+01
 ZXX      0.1181494054613E+03
 ZXY      0.3259439913229E+02
 ZXZ      0.7352798598632E+03
 ZYY      0.1539135946024E+02
 ZYZ      0.3472836843490E+02
 ZZZ     -0.2688914316551E+03

 dipole-quadrupole imag (Cartesian):
 XXX      0.3633286349892E+03
 XXY      0.1191628188884E+03
 XXZ     -0.4518658266535E+01
 XYY     -0.1121665593868E+01
 XYZ     -0.6465555337814E+02
 XZZ      0.1742271434220E+02
 YXX      0.4739464080451E+03
 YXY      0.2659857741478E+03
 YXZ      0.1197397097280E+02
 YYY      0.3239810808981E+01
 YYZ     -0.1562761008659E+03
 YZZ      0.1659321811863E+02
 ZXX      0.6229735985326E+02
 ZXY      0.3248765435838E+02
 ZXZ      0.5433223371253E+01
 ZYY      0.3487023304981E+00
 ZYZ     -0.1905883331999E+02
 ZZZ      0.1182808880724E+01

 dipole-quadrupole (traceless):
 XXX      0.3284455600381E+04
 XXY      0.3556987804762E+03
 XXZ     -0.5199194617825E+03
 XYY     -0.1781370434850E+04
 XYZ     -0.1377351633495E+03
 XZZ     -0.1503085165531E+04
 YXX      0.3601857217160E+03
 YXY      0.1351840748003E+04
 YXZ     -0.8194456674319E+02
 YYY     -0.8423517975533E+02
 YYZ     -0.3193811011372E+03
 YZZ     -0.2759505419607E+03
 ZXX      0.2448994415587E+03
 ZXY      0.4889159869843E+02
 ZXZ      0.1102919789795E+04
 ZYY      0.9076237255716E+02
 ZYZ      0.5209255265234E+02
 ZZZ     -0.3356618141159E+03

 roa end


 Electric Dipole Response Matrix (nonzero elements):

              1        2        3      
    1  409.0992  77.3908   3.5100
    2   77.3908 218.9667   7.8620
    3    3.5100   7.8620 125.0012
 
 Imaginary part:

              1        2        3      
    1   42.3889  57.6342   7.2268
    2   57.6342 139.7972  17.0231
    3    7.2268  17.0231   2.6495

 ------------------------------------------
 average:       251.02237 + I      61.61189


 DFT Linear Response polarizability / au 
 Frequency  =       0.1280230 / au
 Wavelength =     355.8997446 / nm
              X              Y              Z
 -----------------------------------------------
 X     409.0991975     77.3907647      3.5099639
 Y      77.3907652    218.9666721      7.8620238
 Z       3.5099639      7.8620238    125.0012486
 -----------------------------------------------
 Eigenvalues =     436.7305784    192.0267341    124.3098058
 Isotropic   =     251.0223727
 Anisotropic =     232.4308449
 -----------------------------------------------
 *************************

 DFT Linear Response IMAG polarizability / au 
 Frequency  =       0.1280230 / au
 Wavelength =     355.8997446 / nm
              X              Y              Z
 -----------------------------------------------
 X      42.3889407     57.6341950      7.2267704
 Y      57.6341963    139.7972256     17.0231492
 Z       7.2267704     17.0231489      2.6495135
 -----------------------------------------------
 Eigenvalues =      15.6604033    168.6089144      0.5663622
 Isotropic   =      61.6118933
 Anisotropic =     131.4779785
 -----------------------------------------------
 *************************

 Magnetic Dipole Response Matrix (nonzero elements):
 Optical rotation tensor Beta
 (Buckingham-Dunn version including dipole-quadrupole terms)

              1        2        3      
    1   -2.4467 -37.6636 -92.7645
    2  -37.6636   2.0711 -56.4307
    3  -92.7645 -56.4307 -14.1250
 
 Imaginary part:

              1        2        3      
    1   37.0642 -69.4218  93.8170
    2   93.2903-114.2363 302.8651
    3   11.5753 -19.0415  35.6631

 ------------------------------------------
 average:        -4.83355 + I     -13.83634

 Principal components and PAS (Real part)
               -134.22744
                 86.71486
                 33.01194
 ------------------------
 average:        -4.83355

              1        2        3      
    1    0.5974   0.6716  -0.4384
    2    0.4421   0.1803   0.8787
    3    0.6691  -0.7187  -0.1892

 Chiral response tensor (Real part):

              1        2        3      
    1   -6.0270  18.8318  46.3823
    2   18.8318  -8.2858  28.2154
    3   46.3823  28.2154  -0.1878
 
 Principal components and PAS (Real part)
                 59.86340
                -50.60775
                -23.75629
 ------------------------
 average:        -4.83355

              1        2        3      
    1    0.5974   0.6716  -0.4384
    2    0.4421   0.1803   0.8787
    3    0.6691  -0.7187  -0.1892
 Exiting AOResponse driver routine

 Task  times  cpu:     8301.1s     wall:     8661.8s
 
 
                                NWChem Input Module
                                -------------------
 
 
 Summary of allocated global arrays
-----------------------------------
  No active global arrays



                         GA Statistics for process    0
                         ------------------------------

       create   destroy   get      put      acc     scatter   gather  read&inc
calls: 9023     9023     2.91e+08 5.02e+07 9.21e+06 8226        0     3188     
number of processes/call 1.00e+00 1.01e+00 1.21e+00 0.00e+00 0.00e+00
bytes total:             4.67e+10 1.90e+09 4.64e+10 0.00e+00 0.00e+00 2.55e+04
bytes remote:            1.86e+10 5.97e+08 2.19e+10 -4.48e+02 0.00e+00 0.00e+00
Max memory consumed for GA by this process: 128676136 bytes
 
MA_summarize_allocated_blocks: starting scan ...
MA_summarize_allocated_blocks: scan completed: 0 heap blocks, 0 stack blocks
MA usage statistics:

	allocation statistics:
					      heap	     stack
					      ----	     -----
	current number of blocks	         0	         0
	maximum number of blocks	        24	        52
	current total bytes		         0	         0
	maximum total bytes		  15665040	 104632024
	maximum total K-bytes		     15666	    104633
	maximum total M-bytes		        16	       105
 
 
                                     CITATION
                                     --------
                Please cite the following reference when publishing
                           results obtained with NWChem:
 
                 M. Valiev, E.J. Bylaska, N. Govind, K. Kowalski,
              T.P. Straatsma, H.J.J. van Dam, D. Wang, J. Nieplocha,
                        E. Apra, T.L. Windus, W.A. de Jong
                 "NWChem: a comprehensive and scalable open-source
                  solution for large scale molecular simulations"
                      Comput. Phys. Commun. 181, 1477 (2010)
                           doi:10.1016/j.cpc.2010.04.018
 
                                      AUTHORS
                                      -------
          E. Apra, E. J. Bylaska, W. A. de Jong, N. Govind, K. Kowalski,
       T. P. Straatsma, M. Valiev, H. J. J. van Dam, D. Wang, T. L. Windus,
        J. Hammond, J. Autschbach, K. Bhaskaran-Nair, J. Brabec, K. Lopata,
    S. A. Fischer, S. Krishnamoorthy, M. Jacquelin, W. Ma, M. Klemm, O. Villa,
      Y. Chen, V. Anisimov, F. Aquino, S. Hirata, M. T. Hackler, V. Konjkov,
            D. Mejia-Rodriguez, T. Risthaus, M. Malagoli, A. Marenich,
   A. Otero-de-la-Roza, J. Mullin, P. Nichols, R. Peverati, J. Pittner, Y. Zhao,
        P.-D. Fan, A. Fonari, M. J. Williamson, R. J. Harrison, J. R. Rehr,
      M. Dupuis, D. Silverstein, D. M. A. Smith, J. Nieplocha, V. Tipparaju,
    M. Krishnan, B. E. Van Kuiken, A. Vazquez-Mayagoitia, L. Jensen, M. Swart,
      Q. Wu, T. Van Voorhis, A. A. Auer, M. Nooijen, L. D. Crosby, E. Brown,
      G. Cisneros, G. I. Fann, H. Fruchtl, J. Garza, K. Hirao, R. A. Kendall,
      J. A. Nichols, K. Tsemekhman, K. Wolinski, J. Anchell, D. E. Bernholdt,
      P. Borowski, T. Clark, D. Clerc, H. Dachsel, M. J. O. Deegan, K. Dyall,
    D. Elwood, E. Glendening, M. Gutowski, A. C. Hess, J. Jaffe, B. G. Johnson,
     J. Ju, R. Kobayashi, R. Kutteh, Z. Lin, R. Littlefield, X. Long, B. Meng,
      T. Nakajima, S. Niu, L. Pollack, M. Rosing, K. Glaesemann, G. Sandrone,
      M. Stave, H. Taylor, G. Thomas, J. H. van Lenthe, A. T. Wong, Z. Zhang.

 Total times  cpu:     9405.5s     wall:     9778.8s
