 argument  1 = naproxen_355.9_138.inp
 


============================== echo of input deck ==============================
echo
start naproxen_355.9_138.inp
title "naproxen roa calculations at 355.9 nm"
charge 0



geometry units angstrom nocenter noautoz noautosym nucleus point;symmetry c1
 O -2.046247 -0.722562 -0.456484
 C -0.674003 -0.648396 -0.541284
 C -0.121037  0.623498 -0.436992
 C  1.278055  0.810940 -0.510656
 C  1.888458  2.100948 -0.404591
 C  3.259208  2.246344 -0.480200
 C  4.118793  1.122702 -0.672617
 C  3.550995 -0.135661 -0.772353
 C  2.139940 -0.329469 -0.697327
 C  0.168008 -1.777639 -0.724016
 C  5.634923  1.351534 -0.763881
 C  6.329739  0.807824  0.491508
 O  6.541259 -0.550486  0.437358
 O  6.660125  1.475561  1.451401
 C  6.258125  0.813081 -2.075243
 H  5.804414  2.433774 -0.713717
 H  5.784094  1.304563 -2.933923
 H  6.120843 -0.268333 -2.177455
 H  7.335132  1.024328 -2.109651
 H  6.954393 -0.795961  1.292633
 H  1.254394  2.976076 -0.260436
 H  3.707260  3.236312 -0.392775
 H  4.187755 -1.010502 -0.901928
 C  1.541554 -1.610613 -0.798893
 H -0.262877 -2.771629 -0.805207
 H  2.189737 -2.475891 -0.939318
 H -0.773544  1.484047 -0.295821
 C -2.684864 -2.007171 -0.552723
 H -2.347431 -2.674239  0.254907
 H -2.470287 -2.480103 -1.523005
 H -3.761079 -1.833564 -0.459441
end

basis spherical
* library def2-TZVP
end

 set prop:newaoresp 1
 set aor:roadata T
 set cphf:maxsub 100
 set cphf:acc 1.0d-10
 set cphf:maxiter 100

property
    response 1   0.128023
    bdtensor
    convergence 1e-7
    damping 0.0037
    giao
end

dft
 direct
 mult 1
 xc becke88 lyp
 iterations 250
 tolerances tight
 grid xfine
 convergence nolevelshifting
 convergence energy 1e-6
 convergence gradient 1e-6


end

task dft gradient
task dft property
================================================================================


                                         
                                         
 
 
              Northwest Computational Chemistry Package (NWChem) 6.8
              ------------------------------------------------------
 
 
                    Environmental Molecular Sciences Laboratory
                       Pacific Northwest National Laboratory
                                Richland, WA 99352
 
                              Copyright (c) 1994-2017
                       Pacific Northwest National Laboratory
                            Battelle Memorial Institute
 
             NWChem is an open-source computational chemistry package
                        distributed under the terms of the
                      Educational Community License (ECL) 2.0
             A copy of the license is included with this distribution
                              in the LICENSE.TXT file
 
                                  ACKNOWLEDGMENT
                                  --------------

            This software and its documentation were developed at the
            EMSL at Pacific Northwest National Laboratory, a multiprogram
            national laboratory, operated for the U.S. Department of Energy
            by Battelle under Contract Number DE-AC05-76RL01830. Support
            for this work was provided by the Department of Energy Office
            of Biological and Environmental Research, Office of Basic
            Energy Sciences, and the Office of Advanced Scientific Computing.


           Job information
           ---------------

    hostname        = cpn-p27-08-02.cbls.ccr.buffalo.edu
    program         = /util/academic/nwchem/nwchem-6.8/bin/LINUX64/nwchem
    date            = Wed Feb 27 09:15:00 2019

    compiled        = Tue_Nov_06_14:59:08_2018
    source          = /util/academic/nwchem/nwchem-6.8
    nwchem branch   = 6.8
    nwchem revision = v6.8-47-gdf6c956
    ga revision     = ga-5.6.3
    use scalapack   = F
    input           = naproxen_355.9_138.inp
    prefix          = naproxen_355.9_138.inp.
    data base       = ./naproxen_355.9_138.inp.db
    status          = startup
    nproc           =       11
    time left       =     -1s



           Memory information
           ------------------

    heap     =   13107200 doubles =    100.0 Mbytes
    stack    =   13107197 doubles =    100.0 Mbytes
    global   =   26214400 doubles =    200.0 Mbytes (distinct from heap & stack)
    total    =   52428797 doubles =    400.0 Mbytes
    verify   = yes
    hardfail = no 


           Directory information
           ---------------------
 
  0 permanent = .
  0 scratch   = .
 
 
 
 
                                NWChem Input Module
                                -------------------
 
 
                       naproxen roa calculations at 355.9 nm
                       -------------------------------------

 Scaling coordinates for geometry "geometry" by  1.889725989
 (inverse scale =  0.529177249)

 
 
                             Geometry "geometry" -> ""
                             -------------------------
 
 Output coordinates in angstroms (scale by  1.889725989 to convert to a.u.)
 
  No.       Tag          Charge          X              Y              Z
 ---- ---------------- ---------- -------------- -------------- --------------
    1 O                    8.0000    -2.04624700    -0.72256200    -0.45648400
    2 C                    6.0000    -0.67400300    -0.64839600    -0.54128400
    3 C                    6.0000    -0.12103700     0.62349800    -0.43699200
    4 C                    6.0000     1.27805500     0.81094000    -0.51065600
    5 C                    6.0000     1.88845800     2.10094800    -0.40459100
    6 C                    6.0000     3.25920800     2.24634400    -0.48020000
    7 C                    6.0000     4.11879300     1.12270200    -0.67261700
    8 C                    6.0000     3.55099500    -0.13566100    -0.77235300
    9 C                    6.0000     2.13994000    -0.32946900    -0.69732700
   10 C                    6.0000     0.16800800    -1.77763900    -0.72401600
   11 C                    6.0000     5.63492300     1.35153400    -0.76388100
   12 C                    6.0000     6.32973900     0.80782400     0.49150800
   13 O                    8.0000     6.54125900    -0.55048600     0.43735800
   14 O                    8.0000     6.66012500     1.47556100     1.45140100
   15 C                    6.0000     6.25812500     0.81308100    -2.07524300
   16 H                    1.0000     5.80441400     2.43377400    -0.71371700
   17 H                    1.0000     5.78409400     1.30456300    -2.93392300
   18 H                    1.0000     6.12084300    -0.26833300    -2.17745500
   19 H                    1.0000     7.33513200     1.02432800    -2.10965100
   20 H                    1.0000     6.95439300    -0.79596100     1.29263300
   21 H                    1.0000     1.25439400     2.97607600    -0.26043600
   22 H                    1.0000     3.70726000     3.23631200    -0.39277500
   23 H                    1.0000     4.18775500    -1.01050200    -0.90192800
   24 C                    6.0000     1.54155400    -1.61061300    -0.79889300
   25 H                    1.0000    -0.26287700    -2.77162900    -0.80520700
   26 H                    1.0000     2.18973700    -2.47589100    -0.93931800
   27 H                    1.0000    -0.77354400     1.48404700    -0.29582100
   28 C                    6.0000    -2.68486400    -2.00717100    -0.55272300
   29 H                    1.0000    -2.34743100    -2.67423900     0.25490700
   30 H                    1.0000    -2.47028700    -2.48010300    -1.52300500
   31 H                    1.0000    -3.76107900    -1.83356400    -0.45944100
 
      Atomic Mass 
      ----------- 
 
      O                 15.994910
      C                 12.000000
      H                  1.007825
 

 Effective nuclear repulsion energy (a.u.)    1121.1005011255

            Nuclear Dipole moment (a.u.) 
            ----------------------------
        X                 Y               Z
 ---------------- ---------------- ----------------
   602.9950543096    37.7501376670  -102.3145743744
 
 
            XYZ format geometry
            -------------------
    31
 geometry
 O                    -2.04624700    -0.72256200    -0.45648400
 C                    -0.67400300    -0.64839600    -0.54128400
 C                    -0.12103700     0.62349800    -0.43699200
 C                     1.27805500     0.81094000    -0.51065600
 C                     1.88845800     2.10094800    -0.40459100
 C                     3.25920800     2.24634400    -0.48020000
 C                     4.11879300     1.12270200    -0.67261700
 C                     3.55099500    -0.13566100    -0.77235300
 C                     2.13994000    -0.32946900    -0.69732700
 C                     0.16800800    -1.77763900    -0.72401600
 C                     5.63492300     1.35153400    -0.76388100
 C                     6.32973900     0.80782400     0.49150800
 O                     6.54125900    -0.55048600     0.43735800
 O                     6.66012500     1.47556100     1.45140100
 C                     6.25812500     0.81308100    -2.07524300
 H                     5.80441400     2.43377400    -0.71371700
 H                     5.78409400     1.30456300    -2.93392300
 H                     6.12084300    -0.26833300    -2.17745500
 H                     7.33513200     1.02432800    -2.10965100
 H                     6.95439300    -0.79596100     1.29263300
 H                     1.25439400     2.97607600    -0.26043600
 H                     3.70726000     3.23631200    -0.39277500
 H                     4.18775500    -1.01050200    -0.90192800
 C                     1.54155400    -1.61061300    -0.79889300
 H                    -0.26287700    -2.77162900    -0.80520700
 H                     2.18973700    -2.47589100    -0.93931800
 H                    -0.77354400     1.48404700    -0.29582100
 C                    -2.68486400    -2.00717100    -0.55272300
 H                    -2.34743100    -2.67423900     0.25490700
 H                    -2.47028700    -2.48010300    -1.52300500
 H                    -3.76107900    -1.83356400    -0.45944100
 
 ==============================================================================
                                internuclear distances
 ------------------------------------------------------------------------------
       center one      |      center two      | atomic units |  angstroms
 ------------------------------------------------------------------------------
    2 C                |   1 O                |     2.60189  |     1.37686
    3 C                |   2 C                |     2.62826  |     1.39081
    4 C                |   3 C                |     2.67115  |     1.41351
    5 C                |   4 C                |     2.70433  |     1.43107
    6 C                |   5 C                |     2.60879  |     1.38051
    7 C                |   6 C                |     2.69806  |     1.42775
    8 C                |   7 C                |     2.61563  |     1.38413
    9 C                |   4 C                |     2.72424  |     1.44160
    9 C                |   8 C                |     2.69527  |     1.42628
   10 C                |   2 C                |     2.68418  |     1.42041
   11 C                |   7 C                |     2.90265  |     1.53602
   12 C                |  11 C                |     2.89960  |     1.53440
   13 O                |  12 C                |     2.59978  |     1.37575
   14 O                |  12 C                |     2.29617  |     1.21508
   15 C                |  11 C                |     2.92632  |     1.54854
   16 H                |  11 C                |     2.07224  |     1.09658
   17 H                |  15 C                |     2.07319  |     1.09708
   18 H                |  15 C                |     2.06901  |     1.09487
   19 H                |  15 C                |     2.07505  |     1.09807
   20 H                |  13 O                |     1.85389  |     0.98104
   21 H                |   5 C                |     2.06029  |     1.09026
   22 H                |   6 C                |     2.06009  |     1.09015
   23 H                |   8 C                |     2.05937  |     1.08977
   24 C                |   9 C                |     2.67896  |     1.41764
   24 C                |  10 C                |     2.61857  |     1.38569
   25 H                |  10 C                |     2.05300  |     1.08640
   26 H                |  24 C                |     2.06021  |     1.09021
   27 H                |   3 C                |     2.05819  |     1.08915
   28 C                |   1 O                |     2.71708  |     1.43782
   29 H                |  28 C                |     2.07965  |     1.10050
   30 H                |  28 C                |     2.07969  |     1.10052
   31 H                |  28 C                |     2.06757  |     1.09411
 ------------------------------------------------------------------------------
                         number of included internuclear distances:         32
 ==============================================================================



 ==============================================================================
                                 internuclear angles
 ------------------------------------------------------------------------------
        center 1       |       center 2       |       center 3       |  degrees
 ------------------------------------------------------------------------------
    2 C                |   1 O                |  28 C                |   119.12
    1 O                |   2 C                |   3 C                |   116.16
    1 O                |   2 C                |  10 C                |   123.77
    3 C                |   2 C                |  10 C                |   120.07
    2 C                |   3 C                |   4 C                |   120.72
    2 C                |   3 C                |  27 H                |   119.61
    4 C                |   3 C                |  27 H                |   119.67
    3 C                |   4 C                |   5 C                |   122.54
    3 C                |   4 C                |   9 C                |   119.58
    5 C                |   4 C                |   9 C                |   117.88
    4 C                |   5 C                |   6 C                |   120.96
    4 C                |   5 C                |  21 H                |   119.03
    6 C                |   5 C                |  21 H                |   120.01
    5 C                |   6 C                |   7 C                |   121.49
    5 C                |   6 C                |  22 H                |   119.96
    7 C                |   6 C                |  22 H                |   118.56
    6 C                |   7 C                |   8 C                |   118.57
    6 C                |   7 C                |  11 C                |   119.01
    8 C                |   7 C                |  11 C                |   122.42
    7 C                |   8 C                |   9 C                |   121.71
    7 C                |   8 C                |  23 H                |   119.91
    9 C                |   8 C                |  23 H                |   118.38
    4 C                |   9 C                |   8 C                |   119.39
    4 C                |   9 C                |  24 C                |   118.15
    8 C                |   9 C                |  24 C                |   122.45
    2 C                |  10 C                |  24 C                |   119.92
    2 C                |  10 C                |  25 H                |   120.13
   24 C                |  10 C                |  25 H                |   119.96
    7 C                |  11 C                |  12 C                |   110.22
    7 C                |  11 C                |  15 C                |   113.31
    7 C                |  11 C                |  16 H                |   107.27
   12 C                |  11 C                |  15 C                |   112.79
   12 C                |  11 C                |  16 H                |   104.02
   15 C                |  11 C                |  16 H                |   108.65
   11 C                |  12 C                |  13 O                |   112.78
   11 C                |  12 C                |  14 O                |   125.08
   13 O                |  12 C                |  14 O                |   122.13
   12 C                |  13 O                |  20 H                |   106.11
   11 C                |  15 C                |  17 H                |   109.46
   11 C                |  15 C                |  18 H                |   111.84
   11 C                |  15 C                |  19 H                |   110.75
   17 H                |  15 C                |  18 H                |   108.38
   17 H                |  15 C                |  19 H                |   108.25
   18 H                |  15 C                |  19 H                |   108.06
    9 C                |  24 C                |  10 C                |   121.56
    9 C                |  24 C                |  26 H                |   118.39
   10 C                |  24 C                |  26 H                |   120.04
    1 O                |  28 C                |  29 H                |   110.87
    1 O                |  28 C                |  30 H                |   110.88
    1 O                |  28 C                |  31 H                |   106.82
   29 H                |  28 C                |  30 H                |   109.07
   29 H                |  28 C                |  31 H                |   109.59
   30 H                |  28 C                |  31 H                |   109.58
 ------------------------------------------------------------------------------
                            number of included internuclear angles:         53
 ==============================================================================



  warning:::::::::::::: from_environment
  NWCHEM_BASIS_LIBRARY set to: <
 /util/academic/nwchem/nwchem-6.8/src/basis/libraries>
  but file does not exist !
  using .nwchemrc or compiled library


 Summary of "ao basis" -> "" (spherical)
 ------------------------------------------------------------------------------
       Tag                 Description            Shells   Functions and Types
 ---------------- ------------------------------  ------  ---------------------
 *                         def2-TZVP                  on all atoms 


 
                                 NWChem DFT Module
                                 -----------------
 
 
                       naproxen roa calculations at 355.9 nm
 
 
                      Basis "ao basis" -> "ao basis" (spherical)
                      -----
  O (Oxygen)
  ----------
            Exponent  Coefficients 
       -------------- ---------------------------------------------------------
  1 S  2.70323826E+04  0.000217
  1 S  4.05238714E+03  0.001684
  1 S  9.22327227E+02  0.008740
  1 S  2.61240710E+02  0.035240
  1 S  8.53546414E+01  0.111535
  1 S  3.10350352E+01  0.255890
 
  2 S  1.22608607E+01  0.397687
  2 S  4.99870760E+00  0.246278
 
  3 S  1.17031082E+00  1.000000
 
  4 S  4.64747410E-01  1.000000
 
  5 S  1.85045364E-01  1.000000
 
  6 P  6.32749548E+01  0.006069
  6 P  1.46270494E+01  0.041913
  6 P  4.45012235E+00  0.161538
  6 P  1.52757996E+00  0.357070
 
  7 P  5.29351179E-01  1.000000
 
  8 P  1.74784213E-01  1.000000
 
  9 D  2.31400000E+00  1.000000
 
 10 D  6.45000000E-01  1.000000
 
 11 F  1.42800000E+00  1.000000
 
  C (Carbon)
  ----------
            Exponent  Coefficients 
       -------------- ---------------------------------------------------------
  1 S  1.35753497E+04  0.000222
  1 S  2.03523337E+03  0.001723
  1 S  4.63225624E+02  0.008926
  1 S  1.31200196E+02  0.035728
  1 S  4.28530159E+01  0.110763
  1 S  1.55841858E+01  0.242956
 
  2 S  6.20671385E+00  0.414403
  2 S  2.57648965E+00  0.237450
 
  3 S  5.76963394E-01  1.000000
 
  4 S  2.29728314E-01  1.000000
 
  5 S  9.51644400E-02  1.000000
 
  6 P  3.46972322E+01  0.005333
  6 P  7.95826228E+00  0.035864
  6 P  2.37808269E+00  0.142159
  6 P  8.14332082E-01  0.342705
 
  7 P  2.88875473E-01  1.000000
 
  8 P  1.00568237E-01  1.000000
 
  9 D  1.09700000E+00  1.000000
 
 10 D  3.18000000E-01  1.000000
 
 11 F  7.61000000E-01  1.000000
 
  H (Hydrogen)
  ------------
            Exponent  Coefficients 
       -------------- ---------------------------------------------------------
  1 S  3.40613410E+01  0.006025
  1 S  5.12357460E+00  0.045021
  1 S  1.16466260E+00  0.201897
 
  2 S  3.27230410E-01  1.000000
 
  3 S  1.03072410E-01  1.000000
 
  4 P  8.00000000E-01  1.000000
 


 Summary of "ao basis" -> "ao basis" (spherical)
 ------------------------------------------------------------------------------
       Tag                 Description            Shells   Functions and Types
 ---------------- ------------------------------  ------  ---------------------
 O                         def2-TZVP                11       31   5s3p2d1f
 C                         def2-TZVP                11       31   5s3p2d1f
 H                         def2-TZVP                 4        6   3s1p




 Summary of "ao basis" -> "ao basis" (spherical)
 ------------------------------------------------------------------------------
       Tag                 Description            Shells   Functions and Types
 ---------------- ------------------------------  ------  ---------------------
 O                         def2-TZVP                11       31   5s3p2d1f
 C                         def2-TZVP                11       31   5s3p2d1f
 H                         def2-TZVP                 4        6   3s1p


  Caching 1-el integrals 
 
            General Information
            -------------------
          SCF calculation type: DFT
          Wavefunction type:  closed shell.
          No. of atoms     :    31
          No. of electrons :   122
           Alpha electrons :    61
            Beta electrons :    61
          Charge           :     0
          Spin multiplicity:     1
          Use of symmetry is: off; symmetry adaption is: off
          Maximum number of iterations: 250
          This is a Direct SCF calculation.
          AO basis - number of functions:   611
                     number of shells:   243
          Convergence on energy requested:  1.00D-06
          Convergence on density requested:  1.00D-05
          Convergence on gradient requested:  1.00D-06
 
              XC Information
              --------------
                    Becke 1988 Exchange Functional  1.000          
              Lee-Yang-Parr Correlation Functional  1.000          
 
             Grid Information
             ----------------
          Grid used for XC integration:  xfine     
          Radial quadrature: Mura-Knowles        
          Angular quadrature: Lebedev. 
          Tag              B.-S. Rad. Rad. Pts. Rad. Cut. Ang. Pts.
          ---              ---------- --------- --------- ---------
          O                   0.60      100          18.0      1454
          C                   0.70      100          20.0      1454
          H                   0.35      100          19.0      1202
          Grid pruning is: on 
          Number of quadrature shells:  3100
          Spatial weights used:  Erf1
 
          Convergence Information
          -----------------------
          Convergence aids based upon iterative change in 
          total energy or number of iterations. 
          Levelshifting, if invoked, occurs when the 
          HOMO/LUMO gap drops below (HL_TOL):  1.00D-02
          DIIS, if invoked, will attempt to extrapolate 
          using up to (NFOCK): 10 stored Fock matrices.

                    Damping( 0%)  Levelshifting(0.0)       DIIS
                  --------------- ------------------- ---------------
          dE  on:    start             N/A                start   
          dE off:    2 iters           N/A              250 iters 

 
      Screening Tolerance Information
      -------------------------------
          Density screening/tol_rho:  1.00D-10
          AO Gaussian exp screening on grid/accAOfunc:  14
          CD Gaussian exp screening on grid/accCDfunc:  20
          XC Gaussian exp screening on grid/accXCfunc:  20
          Schwarz screening/accCoul:  1.00D-08

 
 WARNING : Found     2 linear dependencies 
 S eigenvalue threshold:     1.00000E-05
 Smallest S eigenvalue :     5.93669E-06
 Largest  S eigenvalue :     7.42566E-06
 

 !! The overlap matrix has   2 vectors deemed linearly dependent with
    eigenvalues:
 5.94D-06 7.43D-06
 
 
      Superposition of Atomic Density Guess
      -------------------------------------
 
 Sum of atomic energies:        -758.74884536
 
      Non-variational initial energy
      ------------------------------

 Total energy =    -769.926032
 1-e energy   =   -3254.736608
 2-e energy   =    1363.710075
 HOMO         =      -0.233241
 LUMO         =      -0.059422
 
   Time after variat. SCF:     49.6
   Time prior to 1st pass:     49.6

 Grid_pts file          = ./naproxen_355.9_138.inp.gridpts.00
 Record size in doubles =  12289        No. of grid_pts per rec  =   3070
 Max. records in memory =    148        Max. recs in file   =    762380

 Grid integrated density:     121.999634497211
 Requested integration accuracy:   0.10E-07

           Memory utilization after 1st SCF pass: 
           Heap Space remaining (MW):       11.15            11149720
          Stack Space remaining (MW):       13.10            13102884

   convergence    iter        energy       DeltaE   RMS-Dens  Diis-err    time
 ---------------- ----- ----------------- --------- --------- ---------  ------
 d= 0,ls=0.0,diis     1   -767.2424988539 -1.89D+03  5.46D-03  4.15D+00   116.7
 Grid integrated density:     122.000001672678
 Requested integration accuracy:   0.10E-07
 d= 0,ls=0.0,diis     2   -766.6620241766  5.80D-01  4.11D-03  9.88D+00   182.9
 Grid integrated density:     122.000001633297
 Requested integration accuracy:   0.10E-07
 d= 0,ls=0.0,diis     3   -767.4269143918 -7.65D-01  2.21D-03  2.18D+00   249.0
 Grid integrated density:     122.000001752732
 Requested integration accuracy:   0.10E-07
 d= 0,ls=0.0,diis     4   -767.5762877600 -1.49D-01  1.03D-03  5.76D-01   315.2
 Grid integrated density:     122.000001742253
 Requested integration accuracy:   0.10E-07
 d= 0,ls=0.0,diis     5   -767.6237422998 -4.75D-02  3.23D-04  4.99D-02   381.3
 Grid integrated density:     122.000001717803
 Requested integration accuracy:   0.10E-07
 d= 0,ls=0.0,diis     6   -767.6272462299 -3.50D-03  1.35D-04  1.19D-02   447.5
 Grid integrated density:     122.000001717213
 Requested integration accuracy:   0.10E-07
 d= 0,ls=0.0,diis     7   -767.6287218660 -1.48D-03  5.24D-05  1.51D-03   513.5
 Grid integrated density:     122.000001720815
 Requested integration accuracy:   0.10E-07
 d= 0,ls=0.0,diis     8   -767.6288993842 -1.78D-04  2.01D-05  1.88D-04   579.7
 Grid integrated density:     122.000001721288
 Requested integration accuracy:   0.10E-07
 d= 0,ls=0.0,diis     9   -767.6289233009 -2.39D-05  6.44D-06  1.81D-05   645.8
 Grid integrated density:     122.000001720926
 Requested integration accuracy:   0.10E-07
 d= 0,ls=0.0,diis    10   -767.6289252351 -1.93D-06  2.23D-06  2.48D-06   712.0
 Grid integrated density:     122.000001720878
 Requested integration accuracy:   0.10E-07
 d= 0,ls=0.0,diis    11   -767.6289254924 -2.57D-07  9.96D-07  4.51D-07   778.2


         Total DFT energy =     -767.628925492398
      One electron energy =    -3268.711859820600
           Coulomb energy =     1486.788680717036
    Exchange-Corr. energy =     -106.806247514374
 Nuclear repulsion energy =     1121.100501125541

 Numeric. integr. density =      122.000001720878

     Total iterative time =    728.6s


 
                       DFT Final Molecular Orbital Analysis
                       ------------------------------------
 
 Vector    1  Occ=2.000000D+00  E=-1.882029D+01
              MO Center=  6.5D+00, -5.5D-01,  4.4D-01, r^2= 1.5D-02
   Bfn.  Coefficient  Atom+Function         Bfn.  Coefficient  Atom+Function  
  ----- ------------  ---------------      ----- ------------  ---------------
   374      0.638455  13 O  s               373      0.435410  13 O  s         
   375      0.039871  13 O  s               376     -0.034362  13 O  s         
 
 Vector    2  Occ=2.000000D+00  E=-1.880691D+01
              MO Center= -2.0D+00, -7.2D-01, -4.6D-01, r^2= 1.5D-02
   Bfn.  Coefficient  Atom+Function         Bfn.  Coefficient  Atom+Function  
  ----- ------------  ---------------      ----- ------------  ---------------
     2      0.638264   1 O  s                 1      0.435459   1 O  s         
     3      0.041749   1 O  s                 4     -0.039651   1 O  s         
 
 Vector    3  Occ=2.000000D+00  E=-1.876332D+01
              MO Center=  6.7D+00,  1.5D+00,  1.5D+00, r^2= 1.5D-02
   Bfn.  Coefficient  Atom+Function         Bfn.  Coefficient  Atom+Function  
  ----- ------------  ---------------      ----- ------------  ---------------
   405      0.638440  14 O  s               404      0.435400  14 O  s         
   406      0.039996  14 O  s               407     -0.036670  14 O  s         
 
 Vector    4  Occ=2.000000D+00  E=-1.003453D+01
              MO Center=  6.3D+00,  8.1D-01,  4.9D-01, r^2= 2.8D-02
   Bfn.  Coefficient  Atom+Function         Bfn.  Coefficient  Atom+Function  
  ----- ------------  ---------------      ----- ------------  ---------------
   343      0.606438  12 C  s               342      0.467376  12 C  s         
   344      0.043266  12 C  s         
 
 Vector    5  Occ=2.000000D+00  E=-9.971056D+00
              MO Center= -6.7D-01, -6.5D-01, -5.4D-01, r^2= 2.8D-02
   Bfn.  Coefficient  Atom+Function         Bfn.  Coefficient  Atom+Function  
  ----- ------------  ---------------      ----- ------------  ---------------
    33      0.606505   2 C  s                32      0.467314   2 C  s         
    34      0.047489   2 C  s                35     -0.033757   2 C  s         
   106      0.026414   4 C  py              260     -0.025205   9 C  px        
 
 Vector    6  Occ=2.000000D+00  E=-9.966317D+00
              MO Center= -2.7D+00, -2.0D+00, -5.5D-01, r^2= 2.8D-02
   Bfn.  Coefficient  Atom+Function         Bfn.  Coefficient  Atom+Function  
  ----- ------------  ---------------      ----- ------------  ---------------
   564      0.607005  28 C  s               563      0.467299  28 C  s         
   565      0.040011  28 C  s               567      0.027555  28 C  s         
 
 Vector    7  Occ=2.000000D+00  E=-9.935458D+00
              MO Center=  5.6D+00,  1.4D+00, -7.6D-01, r^2= 2.8D-02
   Bfn.  Coefficient  Atom+Function         Bfn.  Coefficient  Atom+Function  
  ----- ------------  ---------------      ----- ------------  ---------------
   312      0.606565  11 C  s               311      0.467316  11 C  s         
   315      0.092257  11 C  s               314     -0.051161  11 C  s         
   313      0.048497  11 C  s         
 
 Vector    8  Occ=2.000000D+00  E=-9.921823D+00
              MO Center=  4.1D+00,  1.1D+00, -6.7D-01, r^2= 3.2D-02
   Bfn.  Coefficient  Atom+Function         Bfn.  Coefficient  Atom+Function  
  ----- ------------  ---------------      ----- ------------  ---------------
   188      0.606052   7 C  s               187      0.467066   7 C  s         
   189      0.053802   7 C  s               190     -0.051934   7 C  s         
   191      0.043486   7 C  s               159      0.030138   6 C  s         
 
 Vector    9  Occ=2.000000D+00  E=-9.921250D+00
              MO Center=  1.3D+00,  8.1D-01, -5.1D-01, r^2= 3.4D-02
   Bfn.  Coefficient  Atom+Function         Bfn.  Coefficient  Atom+Function  
  ----- ------------  ---------------      ----- ------------  ---------------
    95      0.605761   4 C  s                94      0.466905   4 C  s         
    97     -0.061226   4 C  s                96      0.055674   4 C  s         
   252      0.054227   9 C  s                66      0.036761   3 C  s         
   128      0.032623   5 C  s               315      0.028055  11 C  s         
 
 Vector   10  Occ=2.000000D+00  E=-9.918110D+00
              MO Center=  2.1D+00, -3.4D-01, -7.0D-01, r^2= 4.8D-02
   Bfn.  Coefficient  Atom+Function         Bfn.  Coefficient  Atom+Function  
  ----- ------------  ---------------      ----- ------------  ---------------
   250      0.603128   9 C  s               249      0.464906   9 C  s         
   252     -0.062333   9 C  s               515      0.057186  24 C  s         
    97      0.056842   4 C  s               251      0.056171   9 C  s         
   514      0.043888  24 C  s               221      0.039376   8 C  s         
   517      0.034732  24 C  s         
 
 Vector   11  Occ=2.000000D+00  E=-9.916583D+00
              MO Center=  1.4D+00, -1.6D+00, -7.9D-01, r^2= 1.9D-01
   Bfn.  Coefficient  Atom+Function         Bfn.  Coefficient  Atom+Function  
  ----- ------------  ---------------      ----- ------------  ---------------
   515      0.578755  24 C  s               514      0.445754  24 C  s         
   281      0.173030  10 C  s               280      0.133102  10 C  s         
   250     -0.055686   9 C  s               516      0.043964  24 C  s         
   249     -0.043082   9 C  s               261     -0.034543   9 C  py        
   252      0.032568   9 C  s               253     -0.030134   9 C  s         
 
 Vector   12  Occ=2.000000D+00  E=-9.915850D+00
              MO Center=  2.8D-01, -1.8D+00, -7.3D-01, r^2= 1.7D-01
   Bfn.  Coefficient  Atom+Function         Bfn.  Coefficient  Atom+Function  
  ----- ------------  ---------------      ----- ------------  ---------------
   281      0.581477  10 C  s               280      0.447820  10 C  s         
   515     -0.172393  24 C  s               514     -0.132932  24 C  s         
   282      0.042239  10 C  s         
 
 Vector   13  Occ=2.000000D+00  E=-9.911132D+00
              MO Center=  3.2D+00,  2.2D+00, -4.8D-01, r^2= 1.1D-01
   Bfn.  Coefficient  Atom+Function         Bfn.  Coefficient  Atom+Function  
  ----- ------------  ---------------      ----- ------------  ---------------
   157      0.592368   6 C  s               156      0.456165   6 C  s         
   126      0.130399   5 C  s               125      0.100285   5 C  s         
   158      0.043849   6 C  s               222      0.025226   8 C  s         
 
 Vector   14  Occ=2.000000D+00  E=-9.910496D+00
              MO Center=  3.5D+00, -1.3D-01, -7.7D-01, r^2= 3.6D-02
   Bfn.  Coefficient  Atom+Function         Bfn.  Coefficient  Atom+Function  
  ----- ------------  ---------------      ----- ------------  ---------------
   219      0.605970   8 C  s               218      0.466847   8 C  s         
   220      0.047585   8 C  s               252      0.035021   9 C  s         
   315      0.033450  11 C  s         
 
 Vector   15  Occ=2.000000D+00  E=-9.910128D+00
              MO Center=  2.0D+00,  2.1D+00, -4.1D-01, r^2= 1.2D-01
   Bfn.  Coefficient  Atom+Function         Bfn.  Coefficient  Atom+Function  
  ----- ------------  ---------------      ----- ------------  ---------------
   126      0.592267   5 C  s               125      0.456205   5 C  s         
   157     -0.129850   6 C  s               156     -0.100157   6 C  s         
   127      0.044598   5 C  s               106      0.032972   4 C  py        
    97      0.030975   4 C  s               260     -0.026350   9 C  px        
    98     -0.026011   4 C  s         
 
 Vector   16  Occ=2.000000D+00  E=-9.907778D+00
              MO Center=  6.3D+00,  8.1D-01, -2.1D+00, r^2= 2.8D-02
   Bfn.  Coefficient  Atom+Function         Bfn.  Coefficient  Atom+Function  
  ----- ------------  ---------------      ----- ------------  ---------------
   436      0.606868  15 C  s               435      0.467240  15 C  s         
   437      0.042035  15 C  s               439      0.036003  15 C  s         
   438     -0.027530  15 C  s         
 
 Vector   17  Occ=2.000000D+00  E=-9.905805D+00
              MO Center= -1.2D-01,  6.2D-01, -4.4D-01, r^2= 2.8D-02
   Bfn.  Coefficient  Atom+Function         Bfn.  Coefficient  Atom+Function  
  ----- ------------  ---------------      ----- ------------  ---------------
    64      0.606488   3 C  s                63      0.467186   3 C  s         
    65      0.046107   3 C  s               105     -0.033935   4 C  px        
    97      0.027046   4 C  s         
 
 Vector   18  Occ=2.000000D+00  E=-1.002673D+00
              MO Center=  6.6D+00,  2.1D-01,  7.5D-01, r^2= 1.1D+00
   Bfn.  Coefficient  Atom+Function         Bfn.  Coefficient  Atom+Function  
  ----- ------------  ---------------      ----- ------------  ---------------
   376      0.331712  13 O  s               375      0.253150  13 O  s         
   407      0.193268  14 O  s               344      0.189654  12 C  s         
   374     -0.173975  13 O  s               406      0.165048  14 O  s         
   345      0.146754  12 C  s               343     -0.117467  12 C  s         
   405     -0.112153  14 O  s               377      0.103966  13 O  s         
 
 Vector   19  Occ=2.000000D+00  E=-9.661474D-01
              MO Center= -1.9D+00, -8.9D-01, -4.9D-01, r^2= 6.9D-01
   Bfn.  Coefficient  Atom+Function         Bfn.  Coefficient  Atom+Function  
  ----- ------------  ---------------      ----- ------------  ---------------
     4      0.423991   1 O  s                 3      0.309629   1 O  s         
     2     -0.214738   1 O  s                 5      0.137377   1 O  s         
    34      0.127100   2 C  s               565      0.101965  28 C  s         
     1     -0.092306   1 O  s                35      0.089289   2 C  s         
    37     -0.080521   2 C  px              566      0.078635  28 C  s         
 
 Vector   20  Occ=2.000000D+00  E=-9.206716D-01
              MO Center=  6.6D+00,  7.1D-01,  9.7D-01, r^2= 1.3D+00
   Bfn.  Coefficient  Atom+Function         Bfn.  Coefficient  Atom+Function  
  ----- ------------  ---------------      ----- ------------  ---------------
   407      0.325336  14 O  s               376     -0.284426  13 O  s         
   406      0.268519  14 O  s               375     -0.208211  13 O  s         
   405     -0.180056  14 O  s               374      0.142354  13 O  s         
   348      0.138048  12 C  py              408      0.113445  14 O  s         
   377     -0.106417  13 O  s               349      0.105530  12 C  pz        
 
 Vector   21  Occ=2.000000D+00  E=-7.879036D-01
              MO Center=  2.0D+00,  3.0D-01, -6.1D-01, r^2= 3.9D+00
   Bfn.  Coefficient  Atom+Function         Bfn.  Coefficient  Atom+Function  
  ----- ------------  ---------------      ----- ------------  ---------------
   251      0.158692   9 C  s                96      0.155515   4 C  s         
   252      0.141921   9 C  s                97      0.138608   4 C  s         
   220      0.114899   8 C  s               189      0.108030   7 C  s         
   190      0.106456   7 C  s               516      0.106364  24 C  s         
   127      0.103805   5 C  s               250     -0.102391   9 C  s         
 
 Vector   22  Occ=2.000000D+00  E=-7.506870D-01
              MO Center=  2.8D+00,  4.0D-01, -6.8D-01, r^2= 8.2D+00
   Bfn.  Coefficient  Atom+Function         Bfn.  Coefficient  Atom+Function  
  ----- ------------  ---------------      ----- ------------  ---------------
   189      0.162101   7 C  s               190      0.161496   7 C  s         
   314      0.160105  11 C  s               313      0.139540  11 C  s         
   282     -0.117611  10 C  s                34     -0.110620   2 C  s         
   158      0.109699   6 C  s                35     -0.107506   2 C  s         
   188     -0.104657   7 C  s               283     -0.102174  10 C  s         
 
 Vector   23  Occ=2.000000D+00  E=-7.133636D-01
              MO Center=  3.4D+00,  6.8D-01, -7.4D-01, r^2= 9.4D+00
   Bfn.  Coefficient  Atom+Function         Bfn.  Coefficient  Atom+Function  
  ----- ------------  ---------------      ----- ------------  ---------------
   314      0.210384  11 C  s               313      0.169293  11 C  s         
   127     -0.141767   5 C  s               437      0.128200  15 C  s         
   128     -0.126399   5 C  s               438      0.121442  15 C  s         
   282      0.116714  10 C  s               312     -0.110956  11 C  s         
   283      0.106875  10 C  s                97     -0.097954   4 C  s         
 
 Vector   24  Occ=2.000000D+00  E=-6.946733D-01
              MO Center=  1.1D+00, -2.1D-01, -6.2D-01, r^2= 6.2D+00
   Bfn.  Coefficient  Atom+Function         Bfn.  Coefficient  Atom+Function  
  ----- ------------  ---------------      ----- ------------  ---------------
   252     -0.169182   9 C  s                65      0.158168   3 C  s         
   516     -0.156780  24 C  s               251     -0.137463   9 C  s         
    66      0.129670   3 C  s               517     -0.129885  24 C  s         
   220     -0.123997   8 C  s                35      0.122883   2 C  s         
    34      0.109779   2 C  s                97      0.106763   4 C  s         
 
 Vector   25  Occ=2.000000D+00  E=-6.623832D-01
              MO Center=  1.7D+00,  1.7D-01, -7.1D-01, r^2= 1.2D+01
   Bfn.  Coefficient  Atom+Function         Bfn.  Coefficient  Atom+Function  
  ----- ------------  ---------------      ----- ------------  ---------------
    97      0.166532   4 C  s                96      0.150631   4 C  s         
   566      0.148509  28 C  s               565      0.144813  28 C  s         
   190     -0.135780   7 C  s                35     -0.126645   2 C  s         
   158     -0.120381   6 C  s               438      0.118556  15 C  s         
   189     -0.117691   7 C  s               437      0.115042  15 C  s         
 
 Vector   26  Occ=2.000000D+00  E=-6.554170D-01
              MO Center=  1.1D+00, -2.1D-01, -6.1D-01, r^2= 8.2D+00
   Bfn.  Coefficient  Atom+Function         Bfn.  Coefficient  Atom+Function  
  ----- ------------  ---------------      ----- ------------  ---------------
   283      0.172225  10 C  s               282      0.161771  10 C  s         
   221     -0.151630   8 C  s               220     -0.150476   8 C  s         
   159      0.140475   6 C  s               158      0.139193   6 C  s         
   566      0.130225  28 C  s               128      0.126658   5 C  s         
   565      0.123667  28 C  s               127      0.121907   5 C  s         
 
 Vector   27  Occ=2.000000D+00  E=-6.189799D-01
              MO Center=  8.4D-01, -3.4D-01, -7.7D-01, r^2= 1.4D+01
   Bfn.  Coefficient  Atom+Function         Bfn.  Coefficient  Atom+Function  
  ----- ------------  ---------------      ----- ------------  ---------------
   566      0.194748  28 C  s               565      0.182988  28 C  s         
    66      0.149466   3 C  s                65      0.132938   3 C  s         
   438     -0.131010  15 C  s               190      0.129679   7 C  s         
   437     -0.120998  15 C  s                 4     -0.119409   1 O  s         
   189      0.112415   7 C  s               564     -0.111314  28 C  s         
 
 Vector   28  Occ=2.000000D+00  E=-5.962530D-01
              MO Center=  5.5D+00,  4.3D-01, -9.1D-01, r^2= 7.7D+00
   Bfn.  Coefficient  Atom+Function         Bfn.  Coefficient  Atom+Function  
  ----- ------------  ---------------      ----- ------------  ---------------
   438      0.235824  15 C  s               437      0.208414  15 C  s         
   345     -0.157451  12 C  s               344     -0.153274  12 C  s         
   436     -0.131040  15 C  s               314     -0.129344  11 C  s         
   318     -0.111295  11 C  pz              379     -0.111748  13 O  py        
   349      0.095568  12 C  pz              407      0.092078  14 O  s         
 
 Vector   29  Occ=2.000000D+00  E=-5.686123D-01
              MO Center=  2.7D+00,  7.7D-02, -4.3D-01, r^2= 9.7D+00
   Bfn.  Coefficient  Atom+Function         Bfn.  Coefficient  Atom+Function  
  ----- ------------  ---------------      ----- ------------  ---------------
   221      0.154877   8 C  s               517     -0.134288  24 C  s         
   283      0.126255  10 C  s               516     -0.116266  24 C  s         
    66     -0.114071   3 C  s               159     -0.110102   6 C  s         
   128      0.108646   5 C  s               220      0.108458   8 C  s         
   282      0.108680  10 C  s               379      0.107470  13 O  py        
 
 Vector   30  Occ=2.000000D+00  E=-5.461692D-01
              MO Center=  2.7D+00,  2.0D-01, -3.7D-01, r^2= 1.3D+01
   Bfn.  Coefficient  Atom+Function         Bfn.  Coefficient  Atom+Function  
  ----- ------------  ---------------      ----- ------------  ---------------
    97      0.171864   4 C  s               379     -0.136536  13 O  py        
   159     -0.130188   6 C  s                96      0.129524   4 C  s         
   314      0.116312  11 C  s               158     -0.113798   6 C  s         
   382     -0.106151  13 O  py              283      0.102921  10 C  s         
   345     -0.103302  12 C  s                38     -0.101464   2 C  py        
 
 Vector   31  Occ=2.000000D+00  E=-5.351879D-01
              MO Center=  1.5D+00, -3.8D-02, -6.2D-01, r^2= 5.9D+00
   Bfn.  Coefficient  Atom+Function         Bfn.  Coefficient  Atom+Function  
  ----- ------------  ---------------      ----- ------------  ---------------
   252      0.177404   9 C  s               517     -0.144859  24 C  s         
   251      0.134382   9 C  s                35      0.125080   2 C  s         
    66     -0.122605   3 C  s               100     -0.120375   4 C  py        
   516     -0.116949  24 C  s               221     -0.105783   8 C  s         
   285     -0.098527  10 C  px              128     -0.097830   5 C  s         
 
 Vector   32  Occ=2.000000D+00  E=-5.185186D-01
              MO Center=  3.4D+00,  3.0D-01, -4.0D-01, r^2= 1.3D+01
   Bfn.  Coefficient  Atom+Function         Bfn.  Coefficient  Atom+Function  
  ----- ------------  ---------------      ----- ------------  ---------------
   314      0.178597  11 C  s               379     -0.148655  13 O  py        
   190     -0.122560   7 C  s               128      0.120920   5 C  s         
   348      0.117636  12 C  py              382     -0.116992  13 O  py        
   313      0.110614  11 C  s               127      0.102920   5 C  s         
    35      0.098733   2 C  s               189     -0.094836   7 C  s         
 
 Vector   33  Occ=2.000000D+00  E=-4.762033D-01
              MO Center= -4.0D-02, -6.7D-01, -5.7D-01, r^2= 9.2D+00
   Bfn.  Coefficient  Atom+Function         Bfn.  Coefficient  Atom+Function  
  ----- ------------  ---------------      ----- ------------  ---------------
     6      0.202768   1 O  px               37     -0.168416   2 C  px        
   569     -0.167087  28 C  py                9      0.162489   1 O  px        
   572     -0.106043  28 C  py                7      0.103261   1 O  py        
   286     -0.102799  10 C  py              131     -0.097333   5 C  py        
    40     -0.095819   2 C  px              221     -0.093731   8 C  s         
 
 Vector   34  Occ=2.000000D+00  E=-4.596494D-01
              MO Center=  2.1D+00,  9.6D-02, -6.0D-01, r^2= 1.0D+01
   Bfn.  Coefficient  Atom+Function         Bfn.  Coefficient  Atom+Function  
  ----- ------------  ---------------      ----- ------------  ---------------
   254      0.132849   9 C  px              286     -0.131949  10 C  py        
   223     -0.120225   8 C  px              546      0.117628  25 H  s         
   128     -0.115040   5 C  s               190     -0.114073   7 C  s         
   283      0.111006  10 C  s                66      0.109748   3 C  s         
   159      0.104094   6 C  s                35     -0.102972   2 C  s         
 
 Vector   35  Occ=2.000000D+00  E=-4.535175D-01
              MO Center=  1.9D+00,  2.8D-01, -4.8D-01, r^2= 1.2D+01
   Bfn.  Coefficient  Atom+Function         Bfn.  Coefficient  Atom+Function  
  ----- ------------  ---------------      ----- ------------  ---------------
    38      0.128771   2 C  py              285      0.111704  10 C  px        
    68     -0.104176   3 C  px               99      0.103137   4 C  px        
   161     -0.101017   6 C  px              224      0.099156   8 C  py        
   316      0.098057  11 C  px              519     -0.098277  24 C  px        
     6     -0.095955   1 O  px              192     -0.091493   7 C  px        
 
 Vector   36  Occ=2.000000D+00  E=-4.256403D-01
              MO Center=  5.4D+00,  5.0D-01,  1.3D-01, r^2= 8.1D+00
   Bfn.  Coefficient  Atom+Function         Bfn.  Coefficient  Atom+Function  
  ----- ------------  ---------------      ----- ------------  ---------------
   379      0.164621  13 O  py              410     -0.161011  14 O  py        
   380      0.157595  13 O  pz              407     -0.147882  14 O  s         
   349      0.136515  12 C  pz              377     -0.126782  13 O  s         
   382      0.127293  13 O  py              383      0.122365  13 O  pz        
   413     -0.116666  14 O  py              376     -0.114246  13 O  s         
 
 Vector   37  Occ=2.000000D+00  E=-4.199227D-01
              MO Center=  5.0D+00,  7.3D-01,  1.4D-01, r^2= 1.2D+01
   Bfn.  Coefficient  Atom+Function         Bfn.  Coefficient  Atom+Function  
  ----- ------------  ---------------      ----- ------------  ---------------
   407     -0.184409  14 O  s               411     -0.180591  14 O  pz        
   345      0.167748  12 C  s               348      0.140106  12 C  py        
   344      0.133152  12 C  s               318      0.128070  11 C  pz        
   408     -0.126906  14 O  s               414     -0.127445  14 O  pz        
   406     -0.119714  14 O  s               380      0.115598  13 O  pz        
 
 Vector   38  Occ=2.000000D+00  E=-4.158217D-01
              MO Center= -2.2D+00, -1.7D+00, -5.5D-01, r^2= 2.0D+00
   Bfn.  Coefficient  Atom+Function         Bfn.  Coefficient  Atom+Function  
  ----- ------------  ---------------      ----- ------------  ---------------
   570      0.278311  28 C  pz                8      0.225336   1 O  pz        
   573      0.191368  28 C  pz               11      0.184503   1 O  pz        
   601     -0.152282  30 H  s               595      0.149730  29 H  s         
   600     -0.113462  30 H  s               594      0.111552  29 H  s         
    39      0.105206   2 C  pz               14      0.094651   1 O  pz        
 
 Vector   39  Occ=2.000000D+00  E=-4.141058D-01
              MO Center=  2.2D+00, -1.2D-02, -4.2D-01, r^2= 1.2D+01
   Bfn.  Coefficient  Atom+Function         Bfn.  Coefficient  Atom+Function  
  ----- ------------  ---------------      ----- ------------  ---------------
   162      0.150890   6 C  py                7      0.133785   1 O  py        
   286     -0.122125  10 C  py              519     -0.122121  24 C  px        
   100     -0.114423   4 C  py               10      0.107556   1 O  py        
   255      0.107248   9 C  py              380      0.100325  13 O  pz        
   503      0.094446  22 H  s               192      0.090523   7 C  px        
 
 Vector   40  Occ=2.000000D+00  E=-4.025190D-01
              MO Center=  4.2D+00,  3.9D-01, -2.1D-01, r^2= 1.2D+01
   Bfn.  Coefficient  Atom+Function         Bfn.  Coefficient  Atom+Function  
  ----- ------------  ---------------      ----- ------------  ---------------
   347      0.186998  12 C  px              378      0.145119  13 O  px        
   350      0.141495  12 C  px              409      0.140819  14 O  px        
   381      0.117289  13 O  px              412      0.111034  14 O  px        
   223      0.107858   8 C  px               68      0.096844   3 C  px        
   316      0.094958  11 C  px              442      0.090089  15 C  pz        
 
 Vector   41  Occ=2.000000D+00  E=-3.959085D-01
              MO Center=  1.3D+00,  6.3D-02, -6.0D-01, r^2= 1.1D+01
   Bfn.  Coefficient  Atom+Function         Bfn.  Coefficient  Atom+Function  
  ----- ------------  ---------------      ----- ------------  ---------------
    97      0.145426   4 C  s               252     -0.140856   9 C  s         
   568     -0.136425  28 C  px              224     -0.131473   8 C  py        
   131     -0.130367   5 C  py              558     -0.125378  27 H  s         
   509      0.115644  23 H  s               520     -0.109483  24 C  py        
    66     -0.101220   3 C  s               607      0.101542  31 H  s         
 
 Vector   42  Occ=2.000000D+00  E=-3.896784D-01
              MO Center=  1.8D+00,  1.9D-01, -5.3D-01, r^2= 1.3D+01
   Bfn.  Coefficient  Atom+Function         Bfn.  Coefficient  Atom+Function  
  ----- ------------  ---------------      ----- ------------  ---------------
   130      0.168857   5 C  px              161     -0.139079   6 C  px        
   568      0.132237  28 C  px              520     -0.123448  24 C  py        
   497     -0.117200  21 H  s               552      0.117279  26 H  s         
     7     -0.114471   1 O  py              133      0.100245   5 C  px        
    69     -0.094985   3 C  py              607     -0.093749  31 H  s         
 
 Vector   43  Occ=2.000000D+00  E=-3.786748D-01
              MO Center=  4.4D+00,  2.2D-01, -8.2D-01, r^2= 1.4D+01
   Bfn.  Coefficient  Atom+Function         Bfn.  Coefficient  Atom+Function  
  ----- ------------  ---------------      ----- ------------  ---------------
   441      0.151087  15 C  py              378     -0.148387  13 O  px        
   317      0.137792  11 C  py              381     -0.118485  13 O  px        
   285      0.114362  10 C  px              479     -0.111252  18 H  s         
   467      0.107653  16 H  s               519     -0.107319  24 C  px        
   347     -0.106449  12 C  px              568      0.097799  28 C  px        
 
 Vector   44  Occ=2.000000D+00  E=-3.692951D-01
              MO Center=  1.8D+00,  2.5D-01, -6.1D-01, r^2= 7.1D+00
   Bfn.  Coefficient  Atom+Function         Bfn.  Coefficient  Atom+Function  
  ----- ------------  ---------------      ----- ------------  ---------------
   131     -0.152890   5 C  py               69      0.145805   3 C  py        
   520      0.133824  24 C  py              497     -0.131810  21 H  s         
   224     -0.128391   8 C  py              552     -0.123491  26 H  s         
   558      0.119413  27 H  s               519     -0.116177  24 C  px        
   509      0.112192  23 H  s               130      0.093580   5 C  px        
 
 Vector   45  Occ=2.000000D+00  E=-3.633170D-01
              MO Center=  4.4D+00,  2.9D-01, -4.0D-01, r^2= 1.5D+01
   Bfn.  Coefficient  Atom+Function         Bfn.  Coefficient  Atom+Function  
  ----- ------------  ---------------      ----- ------------  ---------------
   380      0.183918  13 O  pz              411      0.176827  14 O  pz        
   383      0.142338  13 O  pz              414      0.128064  14 O  pz        
   440      0.124069  15 C  px              442      0.114221  15 C  pz        
   568     -0.109541  28 C  px              473     -0.102503  17 H  s         
   376     -0.099953  13 O  s               485      0.098977  19 H  s         
 
 Vector   46  Occ=2.000000D+00  E=-3.581281D-01
              MO Center=  2.7D+00,  2.5D-02, -7.4D-01, r^2= 1.4D+01
   Bfn.  Coefficient  Atom+Function         Bfn.  Coefficient  Atom+Function  
  ----- ------------  ---------------      ----- ------------  ---------------
   285      0.134382  10 C  px              441     -0.122738  15 C  py        
   568      0.122858  28 C  px              519     -0.122026  24 C  px        
   161      0.115231   6 C  px              130     -0.108534   5 C  px        
   473     -0.106464  17 H  s                99      0.099298   4 C  px        
   380      0.099276  13 O  pz              607     -0.094057  31 H  s         
 
 Vector   47  Occ=2.000000D+00  E=-3.491650D-01
              MO Center=  1.7D+00, -8.7D-02, -5.7D-01, r^2= 8.9D+00
   Bfn.  Coefficient  Atom+Function         Bfn.  Coefficient  Atom+Function  
  ----- ------------  ---------------      ----- ------------  ---------------
   256      0.129038   9 C  pz              101      0.127999   4 C  pz        
    39      0.115960   2 C  pz              104      0.104528   4 C  pz        
   259      0.104816   9 C  pz              521      0.098401  24 C  pz        
    70      0.097730   3 C  pz              570     -0.094032  28 C  pz        
    42      0.093432   2 C  pz              286     -0.081725  10 C  py        
 
 Vector   48  Occ=2.000000D+00  E=-3.451997D-01
              MO Center=  2.0D+00, -7.5D-02, -8.0D-01, r^2= 1.2D+01
   Bfn.  Coefficient  Atom+Function         Bfn.  Coefficient  Atom+Function  
  ----- ------------  ---------------      ----- ------------  ---------------
   440      0.127804  15 C  px               38      0.124467   2 C  py        
   162     -0.113929   6 C  py              546      0.113227  25 H  s         
   286     -0.110044  10 C  py              224     -0.100614   8 C  py        
    69     -0.097835   3 C  py              503     -0.096639  22 H  s         
   485      0.094355  19 H  s               193      0.093607   7 C  py        
 
 Vector   49  Occ=2.000000D+00  E=-3.348561D-01
              MO Center=  4.7D+00,  6.7D-01, -6.4D-01, r^2= 1.1D+01
   Bfn.  Coefficient  Atom+Function         Bfn.  Coefficient  Atom+Function  
  ----- ------------  ---------------      ----- ------------  ---------------
   442      0.202658  15 C  pz              318     -0.158459  11 C  pz        
   349      0.141804  12 C  pz              445      0.135233  15 C  pz        
   473     -0.132410  17 H  s               378     -0.127760  13 O  px        
   410     -0.126552  14 O  py              321     -0.117833  11 C  pz        
   409     -0.108565  14 O  px              381     -0.102251  13 O  px        
 
 Vector   50  Occ=2.000000D+00  E=-3.330409D-01
              MO Center=  3.7D+00,  6.0D-01, -7.7D-01, r^2= 1.1D+01
   Bfn.  Coefficient  Atom+Function         Bfn.  Coefficient  Atom+Function  
  ----- ------------  ---------------      ----- ------------  ---------------
    99     -0.169843   4 C  px               68      0.158348   3 C  px        
   440     -0.153212  15 C  px              485     -0.132441  19 H  s         
   102     -0.108823   4 C  px              223     -0.107589   8 C  px        
   162     -0.106412   6 C  py              254      0.106429   9 C  px        
   349     -0.102601  12 C  pz              380      0.099775  13 O  pz        
 
 Vector   51  Occ=2.000000D+00  E=-3.158713D-01
              MO Center=  4.4D+00,  8.9D-01, -1.1D+00, r^2= 1.0D+01
   Bfn.  Coefficient  Atom+Function         Bfn.  Coefficient  Atom+Function  
  ----- ------------  ---------------      ----- ------------  ---------------
   317      0.210058  11 C  py              441     -0.203963  15 C  py        
   467      0.177346  16 H  s               479      0.167611  18 H  s         
   320      0.139537  11 C  py              444     -0.131803  15 C  py        
   466      0.121903  16 H  s               478      0.115522  18 H  s         
   100     -0.102871   4 C  py              161     -0.094020   6 C  px        
 
 Vector   52  Occ=2.000000D+00  E=-3.093503D-01
              MO Center=  7.2D-01, -2.0D-01, -5.3D-01, r^2= 1.1D+01
   Bfn.  Coefficient  Atom+Function         Bfn.  Coefficient  Atom+Function  
  ----- ------------  ---------------      ----- ------------  ---------------
     8      0.194033   1 O  pz               39      0.178242   2 C  pz        
    11      0.156311   1 O  pz               42      0.141697   2 C  pz        
   570     -0.135798  28 C  pz              163     -0.112601   6 C  pz        
   225     -0.112887   8 C  pz               14      0.107734   1 O  pz        
   601      0.104712  30 H  s               132     -0.104024   5 C  pz        
 
 Vector   53  Occ=2.000000D+00  E=-3.003810D-01
              MO Center=  3.2D+00,  4.8D-01, -7.3D-01, r^2= 1.1D+01
   Bfn.  Coefficient  Atom+Function         Bfn.  Coefficient  Atom+Function  
  ----- ------------  ---------------      ----- ------------  ---------------
   192      0.145335   7 C  px              316     -0.143253  11 C  px        
   223     -0.118091   8 C  px              224     -0.117783   8 C  py        
   193      0.110532   7 C  py                6      0.106573   1 O  px        
   467     -0.106860  16 H  s               195      0.106184   7 C  px        
   254      0.106086   9 C  px              519     -0.103291  24 C  px        
 
 Vector   54  Occ=2.000000D+00  E=-2.951887D-01
              MO Center=  1.8D+00,  2.9D-01, -5.4D-01, r^2= 1.3D+01
   Bfn.  Coefficient  Atom+Function         Bfn.  Coefficient  Atom+Function  
  ----- ------------  ---------------      ----- ------------  ---------------
     7      0.181313   1 O  py               10      0.145142   1 O  py        
    98      0.135645   4 C  s               284      0.127598  10 C  s         
   161     -0.118658   6 C  px              192      0.112076   7 C  px        
   316     -0.111545  11 C  px              193     -0.108545   7 C  py        
   222     -0.107295   8 C  s               254      0.106531   9 C  px        
 
 Vector   55  Occ=2.000000D+00  E=-2.816019D-01
              MO Center=  6.1D-01, -3.3D-01, -4.7D-01, r^2= 1.0D+01
   Bfn.  Coefficient  Atom+Function         Bfn.  Coefficient  Atom+Function  
  ----- ------------  ---------------      ----- ------------  ---------------
     7      0.191058   1 O  py               10      0.153164   1 O  py        
   255      0.140218   9 C  py              100     -0.137471   4 C  py        
    38     -0.135832   2 C  py              286      0.129999  10 C  py        
     6     -0.120691   1 O  px              292      0.117454  10 C  py        
   520     -0.117925  24 C  py              284      0.112667  10 C  s         
 
 Vector   56  Occ=2.000000D+00  E=-2.767976D-01
              MO Center=  6.0D+00,  4.9D-01,  6.7D-01, r^2= 5.0D+00
   Bfn.  Coefficient  Atom+Function         Bfn.  Coefficient  Atom+Function  
  ----- ------------  ---------------      ----- ------------  ---------------
   378     -0.294071  13 O  px              409      0.285981  14 O  px        
   222      0.276775   8 C  s               381     -0.235725  13 O  px        
   412      0.226993  14 O  px              160     -0.210301   6 C  s         
   384     -0.194739  13 O  px              415      0.159892  14 O  px        
   199      0.147212   7 C  py              411     -0.131388  14 O  pz        
 
 Vector   57  Occ=2.000000D+00  E=-2.672341D-01
              MO Center=  1.3D+00, -2.1D-01, -6.0D-01, r^2= 8.2D+00
   Bfn.  Coefficient  Atom+Function         Bfn.  Coefficient  Atom+Function  
  ----- ------------  ---------------      ----- ------------  ---------------
   521     -0.205409  24 C  pz                8      0.197092   1 O  pz        
   524     -0.168624  24 C  pz              163      0.163383   6 C  pz        
    11      0.159251   1 O  pz              287     -0.148817  10 C  pz        
   132      0.134204   5 C  pz              166      0.134504   6 C  pz        
   256     -0.126446   9 C  pz              290     -0.123587  10 C  pz        
 
 Vector   58  Occ=2.000000D+00  E=-2.474997D-01
              MO Center=  2.5D+00,  5.8D-01, -3.5D-01, r^2= 8.8D+00
   Bfn.  Coefficient  Atom+Function         Bfn.  Coefficient  Atom+Function  
  ----- ------------  ---------------      ----- ------------  ---------------
   101      0.190467   4 C  pz              225     -0.169096   8 C  pz        
   194     -0.161101   7 C  pz              104      0.157610   4 C  pz        
    70      0.154467   3 C  pz              410      0.143378  14 O  py        
   228     -0.137834   8 C  pz              197     -0.134548   7 C  pz        
     8     -0.130437   1 O  pz              132      0.128979   5 C  pz        
 
 Vector   59  Occ=2.000000D+00  E=-2.278847D-01
              MO Center=  5.5D+00,  9.5D-01,  6.8D-01, r^2= 8.6D+00
   Bfn.  Coefficient  Atom+Function         Bfn.  Coefficient  Atom+Function  
  ----- ------------  ---------------      ----- ------------  ---------------
   410      0.311722  14 O  py              413      0.247236  14 O  py        
   315     -0.237134  11 C  s               416      0.190175  14 O  py        
   411     -0.186436  14 O  pz              379      0.151055  13 O  py        
   414     -0.146613  14 O  pz              409     -0.132297  14 O  px        
   382      0.126172  13 O  py              318     -0.122387  11 C  pz        
 
 Vector   60  Occ=2.000000D+00  E=-2.094539D-01
              MO Center=  1.5D+00,  1.4D-02, -6.0D-01, r^2= 6.7D+00
   Bfn.  Coefficient  Atom+Function         Bfn.  Coefficient  Atom+Function  
  ----- ------------  ---------------      ----- ------------  ---------------
   287      0.225369  10 C  pz              163      0.201149   6 C  pz        
   290      0.186485  10 C  pz              256     -0.172515   9 C  pz        
   166      0.166651   6 C  pz              293      0.158588  10 C  pz        
   259     -0.143632   9 C  pz                8     -0.136324   1 O  pz        
   169      0.133753   6 C  pz              101     -0.126695   4 C  pz        
 
 Vector   61  Occ=2.000000D+00  E=-1.796173D-01
              MO Center=  1.2D+00,  1.9D-01, -5.5D-01, r^2= 7.5D+00
   Bfn.  Coefficient  Atom+Function         Bfn.  Coefficient  Atom+Function  
  ----- ------------  ---------------      ----- ------------  ---------------
    70     -0.206924   3 C  pz                8      0.199157   1 O  pz        
    73     -0.174009   3 C  pz              132      0.164023   5 C  pz        
    11      0.160753   1 O  pz              194     -0.159289   7 C  pz        
    39     -0.153579   2 C  pz              521      0.150863  24 C  pz        
   225     -0.140545   8 C  pz               14      0.139342   1 O  pz        
 
 Vector   62  Occ=0.000000D+00  E=-7.081868D-02
              MO Center=  1.9D+00,  1.3D-01, -6.1D-01, r^2= 6.8D+00
   Bfn.  Coefficient  Atom+Function         Bfn.  Coefficient  Atom+Function  
  ----- ------------  ---------------      ----- ------------  ---------------
   527      0.263047  24 C  pz              138     -0.232452   5 C  pz        
   231     -0.220656   8 C  pz              293     -0.218065  10 C  pz        
   439      0.213692  15 C  s                76      0.208753   3 C  pz        
   521      0.204894  24 C  pz              225     -0.201585   8 C  pz        
   132     -0.185340   5 C  pz              169      0.184786   6 C  pz        
 
 Vector   63  Occ=0.000000D+00  E=-4.527295D-02
              MO Center=  3.9D+00,  6.9D-01, -1.1D-01, r^2= 9.9D+00
   Bfn.  Coefficient  Atom+Function         Bfn.  Coefficient  Atom+Function  
  ----- ------------  ---------------      ----- ------------  ---------------
   222     -0.381973   8 C  s               160      0.354535   6 C  s         
   439      0.290638  15 C  s               169     -0.287619   6 C  pz        
   199     -0.283477   7 C  py              350     -0.243651  12 C  px        
   315     -0.237600  11 C  s               200      0.229096   7 C  pz        
   347     -0.223793  12 C  px              129     -0.215055   5 C  s         
 
 Vector   64  Occ=0.000000D+00  E=-2.290043D-02
              MO Center=  3.9D+00,  5.1D-01,  1.3D-02, r^2= 1.0D+01
   Bfn.  Coefficient  Atom+Function         Bfn.  Coefficient  Atom+Function  
  ----- ------------  ---------------      ----- ------------  ---------------
   222     -0.376985   8 C  s               160      0.348357   6 C  s         
   350     -0.294686  12 C  px              347     -0.290900  12 C  px        
   200     -0.261523   7 C  pz              199     -0.258187   7 C  py        
   315     -0.241479  11 C  s               129     -0.234321   5 C  s         
    45      0.232487   2 C  pz              262      0.219857   9 C  pz        
 
 Vector   65  Occ=0.000000D+00  E=-1.349291D-02
              MO Center=  1.9D+00,  1.8D-01, -5.5D-01, r^2= 6.5D+00
   Bfn.  Coefficient  Atom+Function         Bfn.  Coefficient  Atom+Function  
  ----- ------------  ---------------      ----- ------------  ---------------
   315      0.528174  11 C  s               527     -0.409255  24 C  pz        
   138     -0.390273   5 C  pz               76     -0.386800   3 C  pz        
   231     -0.378531   8 C  pz              262      0.340793   9 C  pz        
   346     -0.325052  12 C  s               107      0.302086   4 C  pz        
   492     -0.254844  20 H  s               169      0.196196   6 C  pz        
 
 Vector   66  Occ=0.000000D+00  E= 4.446787D-03
              MO Center=  6.5D+00, -2.5D-01,  6.3D-01, r^2= 8.0D+00
   Bfn.  Coefficient  Atom+Function         Bfn.  Coefficient  Atom+Function  
  ----- ------------  ---------------      ----- ------------  ---------------
   315      3.085351  11 C  s               492     -1.302458  20 H  s         
   346     -1.272078  12 C  s               439      1.264989  15 C  s         
   198     -1.158728   7 C  px              468     -0.795413  16 H  s         
    98      0.727389   4 C  s               324      0.725234  11 C  pz        
   105      0.689009   4 C  px              480     -0.596502  18 H  s         
 
 Vector   67  Occ=0.000000D+00  E= 1.694938D-02
              MO Center= -1.7D+00, -2.8D+00, -7.0D-01, r^2= 7.2D+00
   Bfn.  Coefficient  Atom+Function         Bfn.  Coefficient  Atom+Function  
  ----- ------------  ---------------      ----- ------------  ---------------
   567      3.784220  28 C  s               547     -1.735645  25 H  s         
   596     -1.548459  29 H  s               602     -1.555620  30 H  s         
   260     -1.519738   9 C  px               43      1.457878   2 C  px        
   292     -1.244744  10 C  py              106      1.084033   4 C  py        
   608     -0.924575  31 H  s               553     -0.797603  26 H  s         
 
 Vector   68  Occ=0.000000D+00  E= 3.230651D-02
              MO Center=  3.5D+00,  8.7D-01, -6.2D-01, r^2= 2.2D+01
   Bfn.  Coefficient  Atom+Function         Bfn.  Coefficient  Atom+Function  
  ----- ------------  ---------------      ----- ------------  ---------------
   439      2.328184  15 C  s               315      1.636199  11 C  s         
   198     -1.243671   7 C  px              468     -1.238242  16 H  s         
   504     -1.120399  22 H  s               498     -1.034318  21 H  s         
   284      1.023239  10 C  s                98      0.958860   4 C  s         
   474     -0.858908  17 H  s               105      0.829573   4 C  px        
 
 Vector   69  Occ=0.000000D+00  E= 3.713183D-02
              MO Center=  1.0D+00, -7.8D-01, -8.2D-01, r^2= 2.2D+01
   Bfn.  Coefficient  Atom+Function         Bfn.  Coefficient  Atom+Function  
  ----- ------------  ---------------      ----- ------------  ---------------
   439     -1.613404  15 C  s               284      1.604793  10 C  s         
   315     -1.187373  11 C  s               553     -1.191977  26 H  s         
   567     -1.112954  28 C  s               468      1.028814  16 H  s         
     5     -0.830679   1 O  s               547     -0.798284  25 H  s         
   474      0.742446  17 H  s               575      0.741293  28 C  py        
 
 Vector   70  Occ=0.000000D+00  E= 4.172365D-02
              MO Center=  3.5D+00,  7.0D-01, -1.0D+00, r^2= 1.7D+01
   Bfn.  Coefficient  Atom+Function         Bfn.  Coefficient  Atom+Function  
  ----- ------------  ---------------      ----- ------------  ---------------
   439      3.175087  15 C  s               315     -1.309477  11 C  s         
   480     -1.312873  18 H  s               498      1.272332  21 H  s         
   106     -1.065392   4 C  py              229      1.051571   8 C  px        
   504      1.030921  22 H  s               553     -0.951372  26 H  s         
   260      0.943440   9 C  px              486     -0.912975  19 H  s         
 
 Vector   71  Occ=0.000000D+00  E= 5.155240D-02
              MO Center=  6.6D-01, -4.4D-01, -7.0D-01, r^2= 1.9D+01
   Bfn.  Coefficient  Atom+Function         Bfn.  Coefficient  Atom+Function  
  ----- ------------  ---------------      ----- ------------  ---------------
   553      1.535410  26 H  s               526      1.286986  24 C  py        
   498      1.249524  21 H  s               559      1.211063  27 H  s         
   510      1.111611  23 H  s                75     -1.070170   3 C  py        
     5     -0.962743   1 O  s               439      0.958879  15 C  s         
   198      0.912601   7 C  px              315     -0.872368  11 C  s         
 
 Vector   72  Occ=0.000000D+00  E= 5.561664D-02
              MO Center=  2.2D+00,  2.7D-01, -6.6D-01, r^2= 1.1D+01
   Bfn.  Coefficient  Atom+Function         Bfn.  Coefficient  Atom+Function  
  ----- ------------  ---------------      ----- ------------  ---------------
   315      1.416771  11 C  s               439     -1.267842  15 C  s         
   486      0.694533  19 H  s               169      0.511508   6 C  pz        
   198     -0.508985   7 C  px              293      0.486346  10 C  pz        
   200     -0.466133   7 C  pz               45     -0.462463   2 C  pz        
   553     -0.351582  26 H  s                76      0.338183   3 C  pz        
 
 Vector   73  Occ=0.000000D+00  E= 6.216111D-02
              MO Center=  2.8D+00,  1.1D+00, -8.4D-01, r^2= 2.0D+01
   Bfn.  Coefficient  Atom+Function         Bfn.  Coefficient  Atom+Function  
  ----- ------------  ---------------      ----- ------------  ---------------
   315      3.637084  11 C  s               439     -2.975367  15 C  s         
   253     -1.994058   9 C  s               468     -1.533607  16 H  s         
   168      1.458189   6 C  py              504     -1.430764  22 H  s         
   559      1.401180  27 H  s               498      1.318172  21 H  s         
   137     -1.278142   5 C  py              480      1.117204  18 H  s         
 
 Vector   74  Occ=0.000000D+00  E= 6.852368D-02
              MO Center=  1.5D+00,  2.1D-03, -7.5D-01, r^2= 2.0D+01
   Bfn.  Coefficient  Atom+Function         Bfn.  Coefficient  Atom+Function  
  ----- ------------  ---------------      ----- ------------  ---------------
   260      1.926870   9 C  px              284     -1.860906  10 C  s         
   160      1.789380   6 C  s               105      1.516427   4 C  px        
   559      1.511084  27 H  s               525     -1.468500  24 C  px        
   547      1.405213  25 H  s               229      1.337593   8 C  px        
   504     -1.307994  22 H  s               510     -1.292657  23 H  s         
 
 Vector   75  Occ=0.000000D+00  E= 7.490256D-02
              MO Center= -2.6D+00, -1.3D+00, -5.2D-01, r^2= 1.3D+01
   Bfn.  Coefficient  Atom+Function         Bfn.  Coefficient  Atom+Function  
  ----- ------------  ---------------      ----- ------------  ---------------
   608      2.691376  31 H  s               574      1.637022  28 C  px        
   602     -0.973485  30 H  s               596     -0.927976  29 H  s         
   498     -0.790699  21 H  s               559      0.738365  27 H  s         
   315     -0.708121  11 C  s               553      0.673978  26 H  s         
    67     -0.633771   3 C  s               526      0.621461  24 C  py        
 
 Vector   76  Occ=0.000000D+00  E= 8.345262D-02
              MO Center=  5.7D+00,  9.5D-01, -1.4D+00, r^2= 1.1D+01
   Bfn.  Coefficient  Atom+Function         Bfn.  Coefficient  Atom+Function  
  ----- ------------  ---------------      ----- ------------  ---------------
   315      4.733400  11 C  s               346     -2.281171  12 C  s         
   439     -2.063026  15 C  s               474      1.892583  17 H  s         
   446      1.428690  15 C  px              191     -1.379789   7 C  s         
   198     -1.354492   7 C  px              486     -1.279849  19 H  s         
   222     -1.207476   8 C  s               408      0.968850  14 O  s         
 
 Vector   77  Occ=0.000000D+00  E= 8.549686D-02
              MO Center= -1.9D+00, -2.6D+00, -6.8D-01, r^2= 6.2D+00
   Bfn.  Coefficient  Atom+Function         Bfn.  Coefficient  Atom+Function  
  ----- ------------  ---------------      ----- ------------  ---------------
   596      2.124982  29 H  s               602     -2.082088  30 H  s         
   576     -1.352685  28 C  pz              315     -0.341684  11 C  s         
   570     -0.281501  28 C  pz              474      0.276565  17 H  s         
   486     -0.272654  19 H  s                14      0.224761   1 O  pz        
   198      0.192756   7 C  px              573     -0.176261  28 C  pz        
 
 Vector   78  Occ=0.000000D+00  E= 8.761914D-02
              MO Center=  4.5D+00,  7.9D-01, -1.4D+00, r^2= 1.3D+01
   Bfn.  Coefficient  Atom+Function         Bfn.  Coefficient  Atom+Function  
  ----- ------------  ---------------      ----- ------------  ---------------
   315      4.940412  11 C  s               198     -2.168308   7 C  px        
   439     -1.727166  15 C  s               346     -1.622964  12 C  s         
   323     -1.474898  11 C  py              105      1.445232   4 C  px        
   474     -1.411159  17 H  s               486      1.308580  19 H  s         
   448     -1.197157  15 C  pz              261     -1.040560   9 C  py        
 
 Vector   79  Occ=0.000000D+00  E= 9.483175D-02
              MO Center=  2.0D+00,  6.5D-01, -7.9D-01, r^2= 2.1D+01
   Bfn.  Coefficient  Atom+Function         Bfn.  Coefficient  Atom+Function  
  ----- ------------  ---------------      ----- ------------  ---------------
   315      3.332925  11 C  s               253      2.728418   9 C  s         
    98      2.458160   4 C  s                67     -2.270155   3 C  s         
   518     -2.108538  24 C  s               129     -2.064284   5 C  s         
   559     -1.933053  27 H  s               468     -1.801934  16 H  s         
    74     -1.783025   3 C  px              439     -1.692102  15 C  s         
 
 Vector   80  Occ=0.000000D+00  E= 1.063539D-01
              MO Center=  3.5D+00, -1.0D+00, -1.3D+00, r^2= 1.9D+01
   Bfn.  Coefficient  Atom+Function         Bfn.  Coefficient  Atom+Function  
  ----- ------------  ---------------      ----- ------------  ---------------
   315      3.839960  11 C  s               547     -2.191283  25 H  s         
   526      2.059518  24 C  py               67      1.974197   3 C  s         
   553      1.967597  26 H  s               292     -1.872685  10 C  py        
   439     -1.573665  15 C  s               346     -1.337731  12 C  s         
   480     -1.330876  18 H  s               486      1.290764  19 H  s         
 
 Vector   81  Occ=0.000000D+00  E= 1.177336D-01
              MO Center=  2.2D+00,  1.1D+00, -5.0D-01, r^2= 1.5D+01
   Bfn.  Coefficient  Atom+Function         Bfn.  Coefficient  Atom+Function  
  ----- ------------  ---------------      ----- ------------  ---------------
   199      2.489290   7 C  py              315     -2.256959  11 C  s         
    67      1.828365   3 C  s               222      1.778916   8 C  s         
   498      1.698927  21 H  s               230      1.666346   8 C  py        
   168      1.648201   6 C  py              137     -1.632519   5 C  py        
   559     -1.545101  27 H  s               261     -1.535217   9 C  py        
 
[...]
              MO Center=  2.7D+00,  4.9D-01, -5.1D-01, r^2= 4.8D+00
   Bfn.  Coefficient  Atom+Function         Bfn.  Coefficient  Atom+Function  
  ----- ------------  ---------------      ----- ------------  ---------------
   258      1.954299   9 C  py              260      1.788739   9 C  px        
   315      1.762933  11 C  s               106     -1.723273   4 C  py        
   113      1.706764   4 C  d -2            517      1.681931  24 C  s         
   103      1.639710   4 C  py              261     -1.637239   9 C  py        
   268     -1.606031   9 C  d -2            190      1.381904   7 C  s         
 
 Vector  604  Occ=0.000000D+00  E= 2.277436D+01
              MO Center=  1.8D+00,  2.5D-01, -4.8D-01, r^2= 7.5D+00
   Bfn.  Coefficient  Atom+Function         Bfn.  Coefficient  Atom+Function  
  ----- ------------  ---------------      ----- ------------  ---------------
   190      3.037286   7 C  s               191     -2.152958   7 C  s         
   314     -1.974783  11 C  s               105     -1.858347   4 C  px        
   159     -1.852454   6 C  s               283     -1.658635  10 C  s         
   189     -1.637759   7 C  s                35      1.606429   2 C  s         
   128      1.470600   5 C  s               222      1.380071   8 C  s         
 
 Vector  605  Occ=0.000000D+00  E= 2.287028D+01
              MO Center=  5.6D+00,  6.9D-01,  2.0D-01, r^2= 2.9D+00
   Bfn.  Coefficient  Atom+Function         Bfn.  Coefficient  Atom+Function  
  ----- ------------  ---------------      ----- ------------  ---------------
   315      1.919308  11 C  s               344      1.846541  12 C  s         
   352      1.666979  12 C  pz              343     -1.648448  12 C  s         
   407     -1.534941  14 O  s               191     -1.250233   7 C  s         
   342      1.233340  12 C  s               226      1.050842   8 C  px        
   319      1.026003  11 C  px              414      0.888407  14 O  pz        
 
 Vector  606  Occ=0.000000D+00  E= 2.326194D+01
              MO Center=  1.8D+00,  2.7D-01, -6.0D-01, r^2= 2.1D+00
   Bfn.  Coefficient  Atom+Function         Bfn.  Coefficient  Atom+Function  
  ----- ------------  ---------------      ----- ------------  ---------------
   252     -7.266450   9 C  s                97      7.149902   4 C  s         
   221      4.140015   8 C  s                66     -3.736642   3 C  s         
   128     -3.340016   5 C  s               517      3.092749  24 C  s         
   190     -2.961378   7 C  s                96     -2.655570   4 C  s         
   251      2.641910   9 C  s               226     -2.329835   8 C  px        
 
 Vector  607  Occ=0.000000D+00  E= 4.335907D+01
              MO Center=  6.6D+00, -3.5D-01,  5.3D-01, r^2= 5.7D-01
   Bfn.  Coefficient  Atom+Function         Bfn.  Coefficient  Atom+Function  
  ----- ------------  ---------------      ----- ------------  ---------------
   376      2.453079  13 O  s               315      1.869406  11 C  s         
   375     -1.776026  13 O  s               374      1.645728  13 O  s         
   373     -1.327399  13 O  s               377     -1.142308  13 O  s         
   222     -1.101855   8 C  s               314     -1.024726  11 C  s         
   191     -0.997838   7 C  s               198     -0.973703   7 C  px        
 
 Vector  608  Occ=0.000000D+00  E= 4.345001D+01
              MO Center=  6.6D+00,  1.3D+00,  1.4D+00, r^2= 5.7D-01
   Bfn.  Coefficient  Atom+Function         Bfn.  Coefficient  Atom+Function  
  ----- ------------  ---------------      ----- ------------  ---------------
   407      2.684576  14 O  s               406     -1.781856  14 O  s         
   405      1.647230  14 O  s               404     -1.327686  14 O  s         
   408     -1.261695  14 O  s               376     -1.001148  13 O  s         
   315      0.940372  11 C  s               191     -0.933889   7 C  s         
   352     -0.823532  12 C  pz              222      0.768663   8 C  s         
 
 Vector  609  Occ=0.000000D+00  E= 4.376491D+01
              MO Center= -2.0D+00, -7.2D-01, -4.6D-01, r^2= 1.5D-01
   Bfn.  Coefficient  Atom+Function         Bfn.  Coefficient  Atom+Function  
  ----- ------------  ---------------      ----- ------------  ---------------
     4      3.189200   1 O  s                 3     -2.084313   1 O  s         
     2      1.752720   1 O  s                 1     -1.399108   1 O  s         
    43     -1.156825   2 C  px               71      1.098634   3 C  px        
    40      1.053116   2 C  px              102      1.036188   4 C  px        
    97     -0.970900   4 C  s               284      0.870421  10 C  s         
 

 center of mass
 --------------
 x =   4.96602790 y =   0.34320309 z =  -0.79188855

 moments of inertia (a.u.)
 ------------------
        1937.575604396541       -1783.210769707628        -506.109797156071
       -1783.210769707628        8333.757163339946        -128.698301808129
        -506.109797156071        -128.698301808129        9297.181209409833
 
     Multipole analysis of the density
     ---------------------------------
 
     L   x y z        total         alpha         beta         nuclear
     -   - - -        -----         -----         ----         -------
     0   0 0 0     -0.000000    -61.000000    -61.000000    122.000000
 
     1   1 0 0     -0.559748   -301.777401   -301.777401    602.995054
     1   0 1 0     -1.012144    -19.381141    -19.381141     37.750138
     1   0 0 1     -0.541694     50.886440     50.886440   -102.314574
 
     2   2 0 0    -74.031137  -3657.632513  -3657.632513   7241.233888
     2   1 1 0     -3.690152   -587.325668   -587.325668   1170.961184
     2   1 0 1     -5.656575    135.071508    135.071508   -275.799592
     2   0 2 0    -68.665123   -459.028827   -459.028827    849.392531
     2   0 1 1     -2.885796    -16.887953    -16.887953     30.890110
     2   0 0 2    -77.877969   -219.139421   -219.139421    360.400872
 
 *** CALLING NEW AORESP DRIVER FOR CLOSED AND OPEN SHELLS ***
 Entering AOResponse driver routine


--------------------------------------------------------------------------------

          ****************
          *** RESPONSE ***
          ****************

 Response module for NWChem and dynamic CPKS solver
 developed by J. Autschbach and coworkers, SUNY Buffalo
 The methodology used in this program is described in 
 ChemPhysChem 12 (2011), 3224-3235 (main reference)
 J. Chem. Phys. 123 (2005), 114103
 J. Chem. Phys. 122 (2005), 224115
 J. Chem. Phys. 122 (2005), 074105
 Comp. Lett. 3 (2007), 131-150 (contact JA for a copy)
 Please cite this work in publications based on results
 obtained with this code. Thank you!

 For extension of response module to open shell
 calculations please acknowledge:
 F. Aquino, Northwestern University, Schatz Rsrch Group
 The update to the methodology is described in
 J. Phys. Chem. A 118 (2014) 517-525



          -----------------------------------------------
          Solving response equations for perturbing field
          -----------------------------------------------

 number of frequencies:     1
 frequency in a.u.:  0.1280230E+00
 Perturbing field: electric
 Using GIAO formalism for OptRot
 Adding quadrupole terms to OptRot
 to create an origin in dependent tensor.
 Using El. Dipole Length Gauge
 
 Applying DAMPING constant of  0.003700 a.u.
 
 Setting up CPKS
 with frequency omega =      0.12802300 a.u.
 and a damping of            0.00370000 a.u.

 
                            NWChem Dynamic CPHF Module
                            --------------------------
 
 
    scftype = RHF 
    nclosed =   61
      nopen =    0
  variables =   133712
  num. vecs =        3
  tolerance =   1.0D-07
  max. iter =  100

 Grid integrated density:     122.000001717386
 Requested integration accuracy:   0.10E-07
 SCF residual:   1.773199204158075E-004


Iterative solution of linear equations
  No. of variables    66856
  No. of equations        3
  Maximum subspace       99
       Convergence  1.0D-07
        Start time   1118.5


   iter   nsub   residual    time 
   ----  ------  --------  --------- 
 dft_CPHF2_read: failed to open./naproxen_355.9_138.inp.aoresp_fiao_f1
     1      3    9.13D+01    1374.8
     2      6    2.90D+01    1630.6
     3      9    7.11D+00    1889.0
     4     12    2.17D+00    2145.3
     5     15    4.33D-01    2401.7
     6     18    2.58D-01    2657.6
     7     21    1.35D-01    2914.4
     8     24    1.63D-02    3170.0
     9     27    2.87D-03    3426.9
    10     30    9.90D-04    3683.5
    11     33    6.37D-04    3937.5
    12     36    7.28D-05    4194.9
    13     39    7.32D-06    4453.8
    14     42    2.54D-06    4712.0
    15     45    6.41D-07    4971.4
    16     48    2.52D-07    5231.4
    17     51    1.26D-07    5490.9
    18     54    7.86D-08    5749.6

 Calculating some arrays needed for GIAO optical rotation

    0 giaofock schwarz done =      48.28%
    0 giaofock schwarz done =      48.28%
 Grid integrated density:     122.000001717616
 Requested integration accuracy:   0.10E-07
 aor_r1_tensor_giao: roadata output requested
 dip-quad polarizability Re:

              1        2        3        4        5        6      
    1 3313.1020 229.6420-346.8515 -44.9575 -88.0652 139.7121
    2  401.0713 885.8788 -55.4708 134.6303-203.4032   4.8931
    3  114.5809  30.6409 735.6237  15.4891  36.0686-269.0969
 traceless dip-quad polarizability:

              1        2        3      
    1 3265.7247 344.4630-520.2772
    2  344.4630*********-132.0978
    3 -520.2772-132.0978*********

              1        2        3      
    1  331.30961328.8182 -83.2062
    2 1328.8182 -68.3519-305.1048
    3  -83.2062-305.1048-262.9578

              1        2        3      
    1  241.3848  45.96141103.4356
    2   45.9614  92.7471  54.1030
    3 1103.4356  54.1030-334.1318

 roa begin

 alpha real:
 XX       0.4070839490239E+03
 XY       0.7397061992239E+02
 XZ       0.3060637126876E+01
 YX       0.7397061945218E+02
 YY       0.2104740432679E+03
 YZ       0.6813741201440E+01
 ZX       0.3060637299051E+01
 ZY       0.6813741005088E+01
 ZZ       0.1248836300073E+03

 alpha im:
 XX       0.4195486494672E+02
 XY       0.5761274833146E+02
 XZ       0.7210571648281E+01
 YX       0.5761274892858E+02
 YY       0.1400668928854E+03
 YZ       0.1704019106185E+02
 ZX       0.7210571762641E+01
 ZY       0.1704019115804E+02
 ZZ       0.2651021626542E+01

 beta real:
 XX      -0.4990404481248E+01
 XY       0.3872304382331E+02
 XZ       0.1372835159780E+02
 YX      -0.1364816165079E+02
 YY       0.6826695134872E+01
 YZ      -0.5044723281156E+02
 ZX      -0.3441164246234E+01
 ZY       0.4461285246982E+02
 ZZ      -0.2818255425946E+00

 G-prime = -omega beta(real):
 XX      -0.4990404481248E+01
 XY       0.3872304382331E+02
 XZ       0.1372835159780E+02
 YX      -0.1364816165079E+02
 YY       0.6826695134872E+01
 YZ      -0.5044723281156E+02
 ZX      -0.3441164246234E+01
 ZY       0.4461285246982E+02
 ZZ      -0.2818255425946E+00

 beta im:
 XX      -0.4787421265649E+01
 XY       0.8908350992885E+01
 XZ      -0.1285946907012E+02
 YX      -0.1206419515473E+02
 YY       0.1481764769263E+02
 YZ      -0.4070251631989E+02
 ZX      -0.1495260956827E+01
 ZY       0.2459954906504E+01
 ZZ      -0.4799362882983E+01

 G-prime = -omega beta(imag):
 XX      -0.4787421265649E+01
 XY       0.8908350992885E+01
 XZ      -0.1285946907012E+02
 YX      -0.1206419515473E+02
 YY       0.1481764769263E+02
 YZ      -0.4070251631989E+02
 ZX      -0.1495260956827E+01
 ZY       0.2459954906504E+01
 ZZ      -0.4799362882983E+01

 dipole-quadrupole real (Cartesian):
 XXX      0.3313101956049E+04
 XXY      0.2296420032285E+03
 XXZ     -0.3468514888857E+03
 XYY     -0.4495754172358E+02
 XYZ     -0.8806519159175E+02
 XZZ      0.1397121121008E+03
 YXX      0.4010713433814E+03
 YXY      0.8858788245669E+03
 YXZ     -0.5547082482591E+02
 YYY      0.1346303288841E+03
 YYZ     -0.2034031773614E+03
 YZZ      0.4893058136340E+01
 ZXX      0.1145808714480E+03
 ZXY      0.3064091994030E+02
 ZXZ      0.7356237057999E+03
 ZYY      0.1548907972762E+02
 ZYZ      0.3606863457116E+02
 ZZZ     -0.2690968652118E+03

 dipole-quadrupole imag (Cartesian):
 XXX      0.3589010402834E+03
 XXY      0.1187360420059E+03
 XXZ     -0.4408361834109E+01
 XYY     -0.7585789176765E+00
 XYZ     -0.6462235231693E+02
 XZZ      0.1722093810529E+02
 YXX      0.4723409368753E+03
 YXY      0.2661028696526E+03
 YXZ      0.1193212012386E+02
 YYY      0.4031345621626E+01
 YYZ     -0.1565099543016E+03
 YZZ      0.1673172890625E+02
 ZXX      0.6201013358659E+02
 ZXY      0.3247387126425E+02
 ZXZ      0.5444488003939E+01
 ZYY      0.4533874941170E+00
 ZYZ     -0.1907028924959E+02
 ZZZ      0.1194244157611E+01

 dipole-quadrupole (traceless):
 XXX      0.3265724670860E+04
 XXY      0.3444630048428E+03
 XXZ     -0.5202772333285E+03
 XYY     -0.1771364575798E+04
 XYZ     -0.1320977873876E+03
 XZZ     -0.1494360095062E+04
 YXX      0.3313096498711E+03
 YXY      0.1328818236850E+04
 YXZ     -0.8320623723886E+02
 YYY     -0.6835187187470E+02
 YYZ     -0.3051047660421E+03
 YZZ     -0.2629577779964E+03
 ZXX      0.2413847641901E+03
 ZXY      0.4596137991045E+02
 ZXZ      0.1103435558700E+04
 ZYY      0.9274707660950E+02
 ZYZ      0.5410295185674E+02
 ZZZ     -0.3341318407996E+03

 roa end


 Electric Dipole Response Matrix (nonzero elements):

              1        2        3      
    1  407.0839  73.9706   3.0606
    2   73.9706 210.4740   6.8137
    3    3.0606   6.8137 124.8836
 
 Imaginary part:

              1        2        3      
    1   41.9549  57.6127   7.2106
    2   57.6127 140.0669  17.0402
    3    7.2106  17.0402   2.6510

 ------------------------------------------
 average:       247.48054 + I      61.55759


 DFT Linear Response polarizability / au 
 Frequency  =       0.1280230 / au
 Wavelength =     355.8997446 / nm
              X              Y              Z
 -----------------------------------------------
 X     407.0839490     73.9706199      3.0606371
 Y      73.9706195    210.4740433      6.8137412
 Z       3.0606373      6.8137410    124.8836300
 -----------------------------------------------
 Eigenvalues =     431.8889993    186.2432804    124.3093426
 Isotropic   =     247.4805408
 Anisotropic =     230.0600480
 -----------------------------------------------
 *************************

 DFT Linear Response IMAG polarizability / au 
 Frequency  =       0.1280230 / au
 Wavelength =     355.8997446 / nm
              X              Y              Z
 -----------------------------------------------
 X      41.9548649     57.6127483      7.2105716
 Y      57.6127489    140.0668929     17.0401911
 Z       7.2105718     17.0401912      2.6510216
 -----------------------------------------------
 Eigenvalues =      15.3664014    168.7385636      0.5678145
 Isotropic   =      61.5575932
 Anisotropic =     131.6857613
 -----------------------------------------------
 *************************

 Magnetic Dipole Response Matrix (nonzero elements):
 Optical rotation tensor Beta
 (Buckingham-Dunn version including dipole-quadrupole terms)

              1        2        3      
    1   -4.0753 -37.2961 -90.8283
    2  -37.2961   6.0291 -60.9447
    3  -90.8283 -60.9447 -14.0958
 
 Imaginary part:

              1        2        3      
    1   37.3950 -69.5840 100.4466
    2   94.2346-115.7421 317.9313
    3   11.6796 -19.2149  37.4883

 ------------------------------------------
 average:        -4.04736 + I     -13.61959

 Principal components and PAS (Real part)
               -134.95879
                 85.96341
                 36.85331
 ------------------------
 average:        -4.04736

              1        2        3      
    1    0.5925   0.6284  -0.5041
    2    0.4466   0.2646   0.8547
    3    0.6705  -0.7315  -0.1238

 Chiral response tensor (Real part):

              1        2        3      
    1   -4.0334  18.6481  45.4142
    2   18.6481  -9.0856  30.4724
    3   45.4142  30.4724   0.9769
 
 Principal components and PAS (Real part)
                 61.40836
                -49.05274
                -24.49769
 ------------------------
 average:        -4.04736

              1        2        3      
    1    0.5925   0.6284  -0.5041
    2    0.4466   0.2646   0.8547
    3    0.6705  -0.7315  -0.1238
 Exiting AOResponse driver routine

 Task  times  cpu:     5872.5s     wall:     6114.2s
 
 
                                NWChem Input Module
                                -------------------
 
 
 Summary of allocated global arrays
-----------------------------------
  No active global arrays



                         GA Statistics for process    0
                         ------------------------------

       create   destroy   get      put      acc     scatter   gather  read&inc
calls: 8917     8917     2.82e+08 4.75e+07 7.93e+06 8142        0     2585     
number of processes/call 1.00e+00 1.01e+00 1.20e+00 0.00e+00 0.00e+00
bytes total:             4.19e+10 1.81e+09 4.14e+10 0.00e+00 0.00e+00 2.07e+04
bytes remote:            1.57e+10 5.73e+08 1.84e+10 -4.48e+02 0.00e+00 0.00e+00
Max memory consumed for GA by this process: 128676136 bytes
 
MA_summarize_allocated_blocks: starting scan ...
MA_summarize_allocated_blocks: scan completed: 0 heap blocks, 0 stack blocks
MA usage statistics:

	allocation statistics:
					      heap	     stack
					      ----	     -----
	current number of blocks	         0	         0
	maximum number of blocks	        24	        52
	current total bytes		         0	         0
	maximum total bytes		  15664992	 110942920
	maximum total K-bytes		     15665	    110943
	maximum total M-bytes		        16	       111
 
 
                                     CITATION
                                     --------
                Please cite the following reference when publishing
                           results obtained with NWChem:
 
                 M. Valiev, E.J. Bylaska, N. Govind, K. Kowalski,
              T.P. Straatsma, H.J.J. van Dam, D. Wang, J. Nieplocha,
                        E. Apra, T.L. Windus, W.A. de Jong
                 "NWChem: a comprehensive and scalable open-source
                  solution for large scale molecular simulations"
                      Comput. Phys. Commun. 181, 1477 (2010)
                           doi:10.1016/j.cpc.2010.04.018
 
                                      AUTHORS
                                      -------
          E. Apra, E. J. Bylaska, W. A. de Jong, N. Govind, K. Kowalski,
       T. P. Straatsma, M. Valiev, H. J. J. van Dam, D. Wang, T. L. Windus,
        J. Hammond, J. Autschbach, K. Bhaskaran-Nair, J. Brabec, K. Lopata,
    S. A. Fischer, S. Krishnamoorthy, M. Jacquelin, W. Ma, M. Klemm, O. Villa,
      Y. Chen, V. Anisimov, F. Aquino, S. Hirata, M. T. Hackler, V. Konjkov,
            D. Mejia-Rodriguez, T. Risthaus, M. Malagoli, A. Marenich,
   A. Otero-de-la-Roza, J. Mullin, P. Nichols, R. Peverati, J. Pittner, Y. Zhao,
        P.-D. Fan, A. Fonari, M. J. Williamson, R. J. Harrison, J. R. Rehr,
      M. Dupuis, D. Silverstein, D. M. A. Smith, J. Nieplocha, V. Tipparaju,
    M. Krishnan, B. E. Van Kuiken, A. Vazquez-Mayagoitia, L. Jensen, M. Swart,
      Q. Wu, T. Van Voorhis, A. A. Auer, M. Nooijen, L. D. Crosby, E. Brown,
      G. Cisneros, G. I. Fann, H. Fruchtl, J. Garza, K. Hirao, R. A. Kendall,
      J. A. Nichols, K. Tsemekhman, K. Wolinski, J. Anchell, D. E. Bernholdt,
      P. Borowski, T. Clark, D. Clerc, H. Dachsel, M. J. O. Deegan, K. Dyall,
    D. Elwood, E. Glendening, M. Gutowski, A. C. Hess, J. Jaffe, B. G. Johnson,
     J. Ju, R. Kobayashi, R. Kutteh, Z. Lin, R. Littlefield, X. Long, B. Meng,
      T. Nakajima, S. Niu, L. Pollack, M. Rosing, K. Glaesemann, G. Sandrone,
      M. Stave, H. Taylor, G. Thomas, J. H. van Lenthe, A. T. Wong, Z. Zhang.

 Total times  cpu:     6777.0s     wall:     7023.0s
