 argument  1 = naproxen_355.9_137.inp
 


============================== echo of input deck ==============================
echo
start naproxen_355.9_137.inp
title "naproxen roa calculations at 355.9 nm"
charge 0



geometry units angstrom nocenter noautoz noautosym nucleus point;symmetry c1
 O -2.047199 -0.721614 -0.456315
 C -0.676299 -0.647876 -0.541069
 C -0.120608  0.623944 -0.436974
 C  1.279254  0.814256 -0.510353
 C  1.889864  2.099983 -0.404785
 C  3.257193  2.246742 -0.480054
 C  4.121217  1.124014 -0.672576
 C  3.550016 -0.137552 -0.772531
 C  2.141339 -0.329071 -0.697375
 C  0.170594 -1.778180 -0.724252
 C  5.633485  1.350828 -0.764104
 C  6.329949  0.807887  0.491452
 O  6.541230 -0.550506  0.437346
 O  6.660105  1.475570  1.451484
 C  6.258680  0.813190 -2.075182
 H  5.801533  2.433230 -0.713146
 H  5.782602  1.304395 -2.932907
 H  6.119106 -0.267998 -2.176776
 H  7.335671  1.023848 -2.111196
 H  6.954234 -0.795917  1.292706
 H  1.267030  2.983080 -0.260595
 H  3.680317  3.247474 -0.389263
 H  4.176355 -1.020039 -0.901866
 C  1.539952 -1.612167 -0.798963
 H -0.238922 -2.781263 -0.807903
 H  2.169989 -2.490772 -0.939605
 H -0.774120  1.483911 -0.295790
 C -2.682152 -2.008698 -0.553078
 H -2.355848 -2.678004  0.257002
 H -2.478961 -2.483445 -1.524700
 H -3.754917 -1.817074 -0.458044
end

basis spherical
* library def2-TZVP
end

 set prop:newaoresp 1
 set aor:roadata T
 set cphf:maxsub 100
 set cphf:acc 1.0d-10
 set cphf:maxiter 100

property
    response 1   0.128023
    bdtensor
    convergence 1e-7
    damping 0.0037
    giao
end

dft
 direct
 mult 1
 xc becke88 lyp
 iterations 250
 tolerances tight
 grid xfine
 convergence nolevelshifting
 convergence energy 1e-6
 convergence gradient 1e-6


end

task dft gradient
task dft property
================================================================================


                                         
                                         
 
 
              Northwest Computational Chemistry Package (NWChem) 6.8
              ------------------------------------------------------
 
 
                    Environmental Molecular Sciences Laboratory
                       Pacific Northwest National Laboratory
                                Richland, WA 99352
 
                              Copyright (c) 1994-2017
                       Pacific Northwest National Laboratory
                            Battelle Memorial Institute
 
             NWChem is an open-source computational chemistry package
                        distributed under the terms of the
                      Educational Community License (ECL) 2.0
             A copy of the license is included with this distribution
                              in the LICENSE.TXT file
 
                                  ACKNOWLEDGMENT
                                  --------------

            This software and its documentation were developed at the
            EMSL at Pacific Northwest National Laboratory, a multiprogram
            national laboratory, operated for the U.S. Department of Energy
            by Battelle under Contract Number DE-AC05-76RL01830. Support
            for this work was provided by the Department of Energy Office
            of Biological and Environmental Research, Office of Basic
            Energy Sciences, and the Office of Advanced Scientific Computing.


           Job information
           ---------------

    hostname        = cpn-f15-40.cbls.ccr.buffalo.edu
    program         = /util/academic/nwchem/nwchem-6.8/bin/LINUX64/nwchem
    date            = Wed Feb 27 09:14:04 2019

    compiled        = Tue_Nov_06_14:59:08_2018
    source          = /util/academic/nwchem/nwchem-6.8
    nwchem branch   = 6.8
    nwchem revision = v6.8-47-gdf6c956
    ga revision     = ga-5.6.3
    use scalapack   = F
    input           = naproxen_355.9_137.inp
    prefix          = naproxen_355.9_137.inp.
    data base       = ./naproxen_355.9_137.inp.db
    status          = startup
    nproc           =       11
    time left       =     -1s



           Memory information
           ------------------

    heap     =   13107194 doubles =    100.0 Mbytes
    stack    =   13107199 doubles =    100.0 Mbytes
    global   =   26214400 doubles =    200.0 Mbytes (distinct from heap & stack)
    total    =   52428793 doubles =    400.0 Mbytes
    verify   = yes
    hardfail = no 


           Directory information
           ---------------------
 
  0 permanent = .
  0 scratch   = .
 
 
 
 
                                NWChem Input Module
                                -------------------
 
 
                       naproxen roa calculations at 355.9 nm
                       -------------------------------------

 Scaling coordinates for geometry "geometry" by  1.889725989
 (inverse scale =  0.529177249)

 
 
                             Geometry "geometry" -> ""
                             -------------------------
 
 Output coordinates in angstroms (scale by  1.889725989 to convert to a.u.)
 
  No.       Tag          Charge          X              Y              Z
 ---- ---------------- ---------- -------------- -------------- --------------
    1 O                    8.0000    -2.04719900    -0.72161400    -0.45631500
    2 C                    6.0000    -0.67629900    -0.64787600    -0.54106900
    3 C                    6.0000    -0.12060800     0.62394400    -0.43697400
    4 C                    6.0000     1.27925400     0.81425600    -0.51035300
    5 C                    6.0000     1.88986400     2.09998300    -0.40478500
    6 C                    6.0000     3.25719300     2.24674200    -0.48005400
    7 C                    6.0000     4.12121700     1.12401400    -0.67257600
    8 C                    6.0000     3.55001600    -0.13755200    -0.77253100
    9 C                    6.0000     2.14133900    -0.32907100    -0.69737500
   10 C                    6.0000     0.17059400    -1.77818000    -0.72425200
   11 C                    6.0000     5.63348500     1.35082800    -0.76410400
   12 C                    6.0000     6.32994900     0.80788700     0.49145200
   13 O                    8.0000     6.54123000    -0.55050600     0.43734600
   14 O                    8.0000     6.66010500     1.47557000     1.45148400
   15 C                    6.0000     6.25868000     0.81319000    -2.07518200
   16 H                    1.0000     5.80153300     2.43323000    -0.71314600
   17 H                    1.0000     5.78260200     1.30439500    -2.93290700
   18 H                    1.0000     6.11910600    -0.26799800    -2.17677600
   19 H                    1.0000     7.33567100     1.02384800    -2.11119600
   20 H                    1.0000     6.95423400    -0.79591700     1.29270600
   21 H                    1.0000     1.26703000     2.98308000    -0.26059500
   22 H                    1.0000     3.68031700     3.24747400    -0.38926300
   23 H                    1.0000     4.17635500    -1.02003900    -0.90186600
   24 C                    6.0000     1.53995200    -1.61216700    -0.79896300
   25 H                    1.0000    -0.23892200    -2.78126300    -0.80790300
   26 H                    1.0000     2.16998900    -2.49077200    -0.93960500
   27 H                    1.0000    -0.77412000     1.48391100    -0.29579000
   28 C                    6.0000    -2.68215200    -2.00869800    -0.55307800
   29 H                    1.0000    -2.35584800    -2.67800400     0.25700200
   30 H                    1.0000    -2.47896100    -2.48344500    -1.52470000
   31 H                    1.0000    -3.75491700    -1.81707400    -0.45804400
 
      Atomic Mass 
      ----------- 
 
      O                 15.994910
      C                 12.000000
      H                  1.007825
 

 Effective nuclear repulsion energy (a.u.)    1120.9416390025

            Nuclear Dipole moment (a.u.) 
            ----------------------------
        X                 Y               Z
 ---------------- ---------------- ----------------
   602.9587659015    37.7431683576  -102.3117057703
 
 
            XYZ format geometry
            -------------------
    31
 geometry
 O                    -2.04719900    -0.72161400    -0.45631500
 C                    -0.67629900    -0.64787600    -0.54106900
 C                    -0.12060800     0.62394400    -0.43697400
 C                     1.27925400     0.81425600    -0.51035300
 C                     1.88986400     2.09998300    -0.40478500
 C                     3.25719300     2.24674200    -0.48005400
 C                     4.12121700     1.12401400    -0.67257600
 C                     3.55001600    -0.13755200    -0.77253100
 C                     2.14133900    -0.32907100    -0.69737500
 C                     0.17059400    -1.77818000    -0.72425200
 C                     5.63348500     1.35082800    -0.76410400
 C                     6.32994900     0.80788700     0.49145200
 O                     6.54123000    -0.55050600     0.43734600
 O                     6.66010500     1.47557000     1.45148400
 C                     6.25868000     0.81319000    -2.07518200
 H                     5.80153300     2.43323000    -0.71314600
 H                     5.78260200     1.30439500    -2.93290700
 H                     6.11910600    -0.26799800    -2.17677600
 H                     7.33567100     1.02384800    -2.11119600
 H                     6.95423400    -0.79591700     1.29270600
 H                     1.26703000     2.98308000    -0.26059500
 H                     3.68031700     3.24747400    -0.38926300
 H                     4.17635500    -1.02003900    -0.90186600
 C                     1.53995200    -1.61216700    -0.79896300
 H                    -0.23892200    -2.78126300    -0.80790300
 H                     2.16998900    -2.49077200    -0.93960500
 H                    -0.77412000     1.48391100    -0.29579000
 C                    -2.68215200    -2.00869800    -0.55307800
 H                    -2.35584800    -2.67800400     0.25700200
 H                    -2.47896100    -2.48344500    -1.52470000
 H                    -3.75491700    -1.81707400    -0.45804400
 
 ==============================================================================
                                internuclear distances
 ------------------------------------------------------------------------------
       center one      |      center two      | atomic units |  angstroms
 ------------------------------------------------------------------------------
    2 C                |   1 O                |     2.59931  |     1.37550
    3 C                |   2 C                |     2.63015  |     1.39182
    4 C                |   3 C                |     2.67329  |     1.41464
    5 C                |   4 C                |     2.69714  |     1.42726
    6 C                |   5 C                |     2.60261  |     1.37724
    7 C                |   6 C                |     2.70179  |     1.42973
    8 C                |   7 C                |     2.62380  |     1.38846
    9 C                |   4 C                |     2.72891  |     1.44408
    9 C                |   8 C                |     2.69025  |     1.42362
   10 C                |   2 C                |     2.69136  |     1.42421
   11 C                |   7 C                |     2.89491  |     1.53192
   12 C                |  11 C                |     2.90076  |     1.53501
   13 O                |  12 C                |     2.59987  |     1.37579
   14 O                |  12 C                |     2.29620  |     1.21510
   15 C                |  11 C                |     2.92685  |     1.54882
   16 H                |  11 C                |     2.07219  |     1.09655
   17 H                |  15 C                |     2.07322  |     1.09710
   18 H                |  15 C                |     2.06903  |     1.09488
   19 H                |  15 C                |     2.07490  |     1.09799
   20 H                |  13 O                |     1.85390  |     0.98104
   21 H                |   5 C                |     2.06021  |     1.09022
   22 H                |   6 C                |     2.06036  |     1.09029
   23 H                |   8 C                |     2.05955  |     1.08987
   24 C                |   9 C                |     2.68469  |     1.42068
   24 C                |  10 C                |     2.61048  |     1.38141
   25 H                |  10 C                |     2.05353  |     1.08668
   26 H                |  24 C                |     2.06030  |     1.09026
   27 H                |   3 C                |     2.05846  |     1.08929
   28 C                |   1 O                |     2.71826  |     1.43844
   29 H                |  28 C                |     2.07928  |     1.10031
   30 H                |  28 C                |     2.07932  |     1.10033
   31 H                |  28 C                |     2.06714  |     1.09388
 ------------------------------------------------------------------------------
                         number of included internuclear distances:         32
 ==============================================================================



 ==============================================================================
                                 internuclear angles
 ------------------------------------------------------------------------------
        center 1       |       center 2       |       center 3       |  degrees
 ------------------------------------------------------------------------------
    2 C                |   1 O                |  28 C                |   118.93
    1 O                |   2 C                |   3 C                |   116.25
    1 O                |   2 C                |  10 C                |   123.92
    3 C                |   2 C                |  10 C                |   119.83
    2 C                |   3 C                |   4 C                |   120.94
    2 C                |   3 C                |  27 H                |   119.44
    4 C                |   3 C                |  27 H                |   119.62
    3 C                |   4 C                |   5 C                |   122.73
    3 C                |   4 C                |   9 C                |   119.40
    5 C                |   4 C                |   9 C                |   117.87
    4 C                |   5 C                |   6 C                |   121.11
    4 C                |   5 C                |  21 H                |   119.67
    6 C                |   5 C                |  21 H                |   119.22
    5 C                |   6 C                |   7 C                |   121.58
    5 C                |   6 C                |  22 H                |   118.59
    7 C                |   6 C                |  22 H                |   119.83
    6 C                |   7 C                |   8 C                |   118.33
    6 C                |   7 C                |  11 C                |   119.23
    8 C                |   7 C                |  11 C                |   122.43
    7 C                |   8 C                |   9 C                |   121.70
    7 C                |   8 C                |  23 H                |   120.52
    9 C                |   8 C                |  23 H                |   117.77
    4 C                |   9 C                |   8 C                |   119.41
    4 C                |   9 C                |  24 C                |   118.14
    8 C                |   9 C                |  24 C                |   122.45
    2 C                |  10 C                |  24 C                |   120.07
    2 C                |  10 C                |  25 H                |   121.22
   24 C                |  10 C                |  25 H                |   118.71
    7 C                |  11 C                |  12 C                |   110.28
    7 C                |  11 C                |  15 C                |   113.43
    7 C                |  11 C                |  16 H                |   107.14
   12 C                |  11 C                |  15 C                |   112.73
   12 C                |  11 C                |  16 H                |   103.98
   15 C                |  11 C                |  16 H                |   108.67
   11 C                |  12 C                |  13 O                |   112.75
   11 C                |  12 C                |  14 O                |   125.11
   13 O                |  12 C                |  14 O                |   122.13
   12 C                |  13 O                |  20 H                |   106.10
   11 C                |  15 C                |  17 H                |   109.34
   11 C                |  15 C                |  18 H                |   111.71
   11 C                |  15 C                |  19 H                |   110.92
   17 H                |  15 C                |  18 H                |   108.32
   17 H                |  15 C                |  19 H                |   108.31
   18 H                |  15 C                |  19 H                |   108.15
    9 C                |  24 C                |  10 C                |   121.62
    9 C                |  24 C                |  26 H                |   119.50
   10 C                |  24 C                |  26 H                |   118.88
    1 O                |  28 C                |  29 H                |   111.34
    1 O                |  28 C                |  30 H                |   111.34
    1 O                |  28 C                |  31 H                |   105.68
   29 H                |  28 C                |  30 H                |   109.44
   29 H                |  28 C                |  31 H                |   109.48
   30 H                |  28 C                |  31 H                |   109.48
 ------------------------------------------------------------------------------
                            number of included internuclear angles:         53
 ==============================================================================



  warning:::::::::::::: from_environment
  NWCHEM_BASIS_LIBRARY set to: <
 /util/academic/nwchem/nwchem-6.8/src/basis/libraries>
  but file does not exist !
  using .nwchemrc or compiled library


 Summary of "ao basis" -> "" (spherical)
 ------------------------------------------------------------------------------
       Tag                 Description            Shells   Functions and Types
 ---------------- ------------------------------  ------  ---------------------
 *                         def2-TZVP                  on all atoms 


 
                                 NWChem DFT Module
                                 -----------------
 
 
                       naproxen roa calculations at 355.9 nm
 
 
                      Basis "ao basis" -> "ao basis" (spherical)
                      -----
  O (Oxygen)
  ----------
            Exponent  Coefficients 
       -------------- ---------------------------------------------------------
  1 S  2.70323826E+04  0.000217
  1 S  4.05238714E+03  0.001684
  1 S  9.22327227E+02  0.008740
  1 S  2.61240710E+02  0.035240
  1 S  8.53546414E+01  0.111535
  1 S  3.10350352E+01  0.255890
 
  2 S  1.22608607E+01  0.397687
  2 S  4.99870760E+00  0.246278
 
  3 S  1.17031082E+00  1.000000
 
  4 S  4.64747410E-01  1.000000
 
  5 S  1.85045364E-01  1.000000
 
  6 P  6.32749548E+01  0.006069
  6 P  1.46270494E+01  0.041913
  6 P  4.45012235E+00  0.161538
  6 P  1.52757996E+00  0.357070
 
  7 P  5.29351179E-01  1.000000
 
  8 P  1.74784213E-01  1.000000
 
  9 D  2.31400000E+00  1.000000
 
 10 D  6.45000000E-01  1.000000
 
 11 F  1.42800000E+00  1.000000
 
  C (Carbon)
  ----------
            Exponent  Coefficients 
       -------------- ---------------------------------------------------------
  1 S  1.35753497E+04  0.000222
  1 S  2.03523337E+03  0.001723
  1 S  4.63225624E+02  0.008926
  1 S  1.31200196E+02  0.035728
  1 S  4.28530159E+01  0.110763
  1 S  1.55841858E+01  0.242956
 
  2 S  6.20671385E+00  0.414403
  2 S  2.57648965E+00  0.237450
 
  3 S  5.76963394E-01  1.000000
 
  4 S  2.29728314E-01  1.000000
 
  5 S  9.51644400E-02  1.000000
 
  6 P  3.46972322E+01  0.005333
  6 P  7.95826228E+00  0.035864
  6 P  2.37808269E+00  0.142159
  6 P  8.14332082E-01  0.342705
 
  7 P  2.88875473E-01  1.000000
 
  8 P  1.00568237E-01  1.000000
 
  9 D  1.09700000E+00  1.000000
 
 10 D  3.18000000E-01  1.000000
 
 11 F  7.61000000E-01  1.000000
 
  H (Hydrogen)
  ------------
            Exponent  Coefficients 
       -------------- ---------------------------------------------------------
  1 S  3.40613410E+01  0.006025
  1 S  5.12357460E+00  0.045021
  1 S  1.16466260E+00  0.201897
 
  2 S  3.27230410E-01  1.000000
 
  3 S  1.03072410E-01  1.000000
 
  4 P  8.00000000E-01  1.000000
 


 Summary of "ao basis" -> "ao basis" (spherical)
 ------------------------------------------------------------------------------
       Tag                 Description            Shells   Functions and Types
 ---------------- ------------------------------  ------  ---------------------
 O                         def2-TZVP                11       31   5s3p2d1f
 C                         def2-TZVP                11       31   5s3p2d1f
 H                         def2-TZVP                 4        6   3s1p




 Summary of "ao basis" -> "ao basis" (spherical)
 ------------------------------------------------------------------------------
       Tag                 Description            Shells   Functions and Types
 ---------------- ------------------------------  ------  ---------------------
 O                         def2-TZVP                11       31   5s3p2d1f
 C                         def2-TZVP                11       31   5s3p2d1f
 H                         def2-TZVP                 4        6   3s1p


  Caching 1-el integrals 
 
            General Information
            -------------------
          SCF calculation type: DFT
          Wavefunction type:  closed shell.
          No. of atoms     :    31
          No. of electrons :   122
           Alpha electrons :    61
            Beta electrons :    61
          Charge           :     0
          Spin multiplicity:     1
          Use of symmetry is: off; symmetry adaption is: off
          Maximum number of iterations: 250
          This is a Direct SCF calculation.
          AO basis - number of functions:   611
                     number of shells:   243
          Convergence on energy requested:  1.00D-06
          Convergence on density requested:  1.00D-05
          Convergence on gradient requested:  1.00D-06
 
              XC Information
              --------------
                    Becke 1988 Exchange Functional  1.000          
              Lee-Yang-Parr Correlation Functional  1.000          
 
             Grid Information
             ----------------
          Grid used for XC integration:  xfine     
          Radial quadrature: Mura-Knowles        
          Angular quadrature: Lebedev. 
          Tag              B.-S. Rad. Rad. Pts. Rad. Cut. Ang. Pts.
          ---              ---------- --------- --------- ---------
          O                   0.60      100          18.0      1454
          C                   0.70      100          20.0      1454
          H                   0.35      100          19.0      1202
          Grid pruning is: on 
          Number of quadrature shells:  3100
          Spatial weights used:  Erf1
 
          Convergence Information
          -----------------------
          Convergence aids based upon iterative change in 
          total energy or number of iterations. 
          Levelshifting, if invoked, occurs when the 
          HOMO/LUMO gap drops below (HL_TOL):  1.00D-02
          DIIS, if invoked, will attempt to extrapolate 
          using up to (NFOCK): 10 stored Fock matrices.

                    Damping( 0%)  Levelshifting(0.0)       DIIS
                  --------------- ------------------- ---------------
          dE  on:    start             N/A                start   
          dE off:    2 iters           N/A              250 iters 

 
      Screening Tolerance Information
      -------------------------------
          Density screening/tol_rho:  1.00D-10
          AO Gaussian exp screening on grid/accAOfunc:  14
          CD Gaussian exp screening on grid/accCDfunc:  20
          XC Gaussian exp screening on grid/accXCfunc:  20
          Schwarz screening/accCoul:  1.00D-08

 
 WARNING : Found     2 linear dependencies 
 S eigenvalue threshold:     1.00000E-05
 Smallest S eigenvalue :     5.96476E-06
 Largest  S eigenvalue :     7.47394E-06
 

 !! The overlap matrix has   2 vectors deemed linearly dependent with
    eigenvalues:
 5.96D-06 7.47D-06
 
 
      Superposition of Atomic Density Guess
      -------------------------------------
 
 Sum of atomic energies:        -758.74884536
 
      Non-variational initial energy
      ------------------------------

 Total energy =    -769.922979
 1-e energy   =   -3254.419344
 2-e energy   =    1363.554725
 HOMO         =      -0.232795
 LUMO         =      -0.058704
 
   Time after variat. SCF:     58.8
   Time prior to 1st pass:     58.8

 Grid_pts file          = ./naproxen_355.9_137.inp.gridpts.00
 Record size in doubles =  12289        No. of grid_pts per rec  =   3070
 Max. records in memory =    148        Max. recs in file   =    776221

 Grid integrated density:     121.999627171728
 Requested integration accuracy:   0.10E-07

           Memory utilization after 1st SCF pass: 
           Heap Space remaining (MW):       11.15            11149714
          Stack Space remaining (MW):       13.10            13102884

   convergence    iter        energy       DeltaE   RMS-Dens  Diis-err    time
 ---------------- ----- ----------------- --------- --------- ---------  ------
 d= 0,ls=0.0,diis     1   -767.2414711281 -1.89D+03  5.46D-03  4.15D+00   140.7
 Grid integrated density:     122.000001728897
 Requested integration accuracy:   0.10E-07
 d= 0,ls=0.0,diis     2   -766.6594657264  5.82D-01  4.11D-03  9.91D+00   221.0
 Grid integrated density:     122.000001706441
 Requested integration accuracy:   0.10E-07
 d= 0,ls=0.0,diis     3   -767.4266876554 -7.67D-01  2.21D-03  2.19D+00   301.3
 Grid integrated density:     122.000001811715
 Requested integration accuracy:   0.10E-07
 d= 0,ls=0.0,diis     4   -767.5762225246 -1.50D-01  1.03D-03  5.77D-01   381.6
 Grid integrated density:     122.000001805626
 Requested integration accuracy:   0.10E-07
 d= 0,ls=0.0,diis     5   -767.6238080569 -4.76D-02  3.22D-04  4.97D-02   461.9
 Grid integrated density:     122.000001781900
 Requested integration accuracy:   0.10E-07
 d= 0,ls=0.0,diis     6   -767.6273239141 -3.52D-03  1.34D-04  1.17D-02   542.1
 Grid integrated density:     122.000001781201
 Requested integration accuracy:   0.10E-07
 d= 0,ls=0.0,diis     7   -767.6287642063 -1.44D-03  5.22D-05  1.49D-03   622.4
 Grid integrated density:     122.000001784494
 Requested integration accuracy:   0.10E-07
 d= 0,ls=0.0,diis     8   -767.6289391736 -1.75D-04  2.00D-05  1.85D-04   702.7
 Grid integrated density:     122.000001784970
 Requested integration accuracy:   0.10E-07
 d= 0,ls=0.0,diis     9   -767.6289627822 -2.36D-05  6.40D-06  1.76D-05   782.9
 Grid integrated density:     122.000001784638
 Requested integration accuracy:   0.10E-07
 d= 0,ls=0.0,diis    10   -767.6289646603 -1.88D-06  2.23D-06  2.49D-06   863.3
 Grid integrated density:     122.000001784602
 Requested integration accuracy:   0.10E-07
 d= 0,ls=0.0,diis    11   -767.6289649194 -2.59D-07  9.86D-07  4.44D-07   943.5


         Total DFT energy =     -767.628964919395
      One electron energy =    -3268.405070184529
           Coulomb energy =     1486.640271006638
    Exchange-Corr. energy =     -106.805804743984
 Nuclear repulsion energy =     1120.941639002479

 Numeric. integr. density =      122.000001784602

     Total iterative time =    884.7s


 
                       DFT Final Molecular Orbital Analysis
                       ------------------------------------
 
 Vector    1  Occ=2.000000D+00  E=-1.882012D+01
              MO Center=  6.5D+00, -5.5D-01,  4.4D-01, r^2= 1.5D-02
   Bfn.  Coefficient  Atom+Function         Bfn.  Coefficient  Atom+Function  
  ----- ------------  ---------------      ----- ------------  ---------------
   374      0.638455  13 O  s               373      0.435410  13 O  s         
   375      0.039870  13 O  s               376     -0.034358  13 O  s         
 
 Vector    2  Occ=2.000000D+00  E=-1.880748D+01
              MO Center= -2.0D+00, -7.2D-01, -4.6D-01, r^2= 1.5D-02
   Bfn.  Coefficient  Atom+Function         Bfn.  Coefficient  Atom+Function  
  ----- ------------  ---------------      ----- ------------  ---------------
     2      0.638265   1 O  s                 1      0.435458   1 O  s         
     3      0.041749   1 O  s                 4     -0.039676   1 O  s         
 
 Vector    3  Occ=2.000000D+00  E=-1.876320D+01
              MO Center=  6.7D+00,  1.5D+00,  1.5D+00, r^2= 1.5D-02
   Bfn.  Coefficient  Atom+Function         Bfn.  Coefficient  Atom+Function  
  ----- ------------  ---------------      ----- ------------  ---------------
   405      0.638440  14 O  s               404      0.435400  14 O  s         
   406      0.039995  14 O  s               407     -0.036666  14 O  s         
 
 Vector    4  Occ=2.000000D+00  E=-1.003438D+01
              MO Center=  6.3D+00,  8.1D-01,  4.9D-01, r^2= 2.8D-02
   Bfn.  Coefficient  Atom+Function         Bfn.  Coefficient  Atom+Function  
  ----- ------------  ---------------      ----- ------------  ---------------
   343      0.606439  12 C  s               342      0.467376  12 C  s         
   344      0.043265  12 C  s         
 
 Vector    5  Occ=2.000000D+00  E=-9.971470D+00
              MO Center= -6.8D-01, -6.5D-01, -5.4D-01, r^2= 2.8D-02
   Bfn.  Coefficient  Atom+Function         Bfn.  Coefficient  Atom+Function  
  ----- ------------  ---------------      ----- ------------  ---------------
    33      0.606510   2 C  s                32      0.467317   2 C  s         
    34      0.047373   2 C  s                35     -0.033370   2 C  s         
   106      0.026279   4 C  py              260     -0.025275   9 C  px        
 
 Vector    6  Occ=2.000000D+00  E=-9.966210D+00
              MO Center= -2.7D+00, -2.0D+00, -5.5D-01, r^2= 2.8D-02
   Bfn.  Coefficient  Atom+Function         Bfn.  Coefficient  Atom+Function  
  ----- ------------  ---------------      ----- ------------  ---------------
   564      0.607005  28 C  s               563      0.467298  28 C  s         
   565      0.040027  28 C  s               567      0.027619  28 C  s         
 
 Vector    7  Occ=2.000000D+00  E=-9.935108D+00
              MO Center=  5.6D+00,  1.4D+00, -7.6D-01, r^2= 2.8D-02
   Bfn.  Coefficient  Atom+Function         Bfn.  Coefficient  Atom+Function  
  ----- ------------  ---------------      ----- ------------  ---------------
   312      0.606561  11 C  s               311      0.467314  11 C  s         
   315      0.091996  11 C  s               314     -0.050831  11 C  s         
   313      0.048467  11 C  s         
 
 Vector    8  Occ=2.000000D+00  E=-9.922440D+00
              MO Center=  4.1D+00,  1.1D+00, -6.7D-01, r^2= 2.9D-02
   Bfn.  Coefficient  Atom+Function         Bfn.  Coefficient  Atom+Function  
  ----- ------------  ---------------      ----- ------------  ---------------
   188      0.606193   7 C  s               187      0.467168   7 C  s         
   189      0.053608   7 C  s               190     -0.051867   7 C  s         
   191      0.043863   7 C  s               159      0.029409   6 C  s         
 
 Vector    9  Occ=2.000000D+00  E=-9.921211D+00
              MO Center=  1.3D+00,  8.1D-01, -5.1D-01, r^2= 3.1D-02
   Bfn.  Coefficient  Atom+Function         Bfn.  Coefficient  Atom+Function  
  ----- ------------  ---------------      ----- ------------  ---------------
    95      0.605854   4 C  s                94      0.466979   4 C  s         
    97     -0.061490   4 C  s                96      0.055726   4 C  s         
   252      0.054391   9 C  s                66      0.036971   3 C  s         
   128      0.032738   5 C  s               315      0.028521  11 C  s         
 
 Vector   10  Occ=2.000000D+00  E=-9.918242D+00
              MO Center=  2.1D+00, -3.3D-01, -7.0D-01, r^2= 4.0D-02
   Bfn.  Coefficient  Atom+Function         Bfn.  Coefficient  Atom+Function  
  ----- ------------  ---------------      ----- ------------  ---------------
   250      0.604451   9 C  s               249      0.465926   9 C  s         
   252     -0.063160   9 C  s                97      0.058073   4 C  s         
   251      0.056294   9 C  s               515      0.040650  24 C  s         
   221      0.039305   8 C  s               517      0.034824  24 C  s         
   514      0.031158  24 C  s         
 
 Vector   11  Occ=2.000000D+00  E=-9.916161D+00
              MO Center=  1.4D+00, -1.6D+00, -7.9D-01, r^2= 2.5D-01
   Bfn.  Coefficient  Atom+Function         Bfn.  Coefficient  Atom+Function  
  ----- ------------  ---------------      ----- ------------  ---------------
   515      0.565135  24 C  s               514      0.435241  24 C  s         
   281      0.217223  10 C  s               280      0.167127  10 C  s         
   516      0.042744  24 C  s               250     -0.038519   9 C  s         
   261     -0.034173   9 C  py              252      0.030332   9 C  s         
   253     -0.030166   9 C  s               249     -0.029840   9 C  s         
 
 Vector   12  Occ=2.000000D+00  E=-9.915538D+00
              MO Center=  3.5D-01, -1.8D+00, -7.3D-01, r^2= 2.4D-01
   Bfn.  Coefficient  Atom+Function         Bfn.  Coefficient  Atom+Function  
  ----- ------------  ---------------      ----- ------------  ---------------
   281      0.566462  10 C  s               280      0.436273  10 C  s         
   515     -0.216603  24 C  s               514     -0.166991  24 C  s         
   282      0.041350  10 C  s         
 
 Vector   13  Occ=2.000000D+00  E=-9.910727D+00
              MO Center=  3.3D+00,  1.9D+00, -5.3D-01, r^2= 8.6D-01
   Bfn.  Coefficient  Atom+Function         Bfn.  Coefficient  Atom+Function  
  ----- ------------  ---------------      ----- ------------  ---------------
   157      0.549753   6 C  s               156      0.423385   6 C  s         
   219     -0.244782   8 C  s               218     -0.188656   8 C  s         
   126      0.076001   5 C  s               125      0.058446   5 C  s         
   158      0.040740   6 C  s               222      0.030344   8 C  s         
   199      0.025067   7 C  py        
 
 Vector   14  Occ=2.000000D+00  E=-9.910697D+00
              MO Center=  3.5D+00,  2.5D-01, -7.2D-01, r^2= 8.3D-01
   Bfn.  Coefficient  Atom+Function         Bfn.  Coefficient  Atom+Function  
  ----- ------------  ---------------      ----- ------------  ---------------
   219      0.554663   8 C  s               218      0.427284   8 C  s         
   157      0.243247   6 C  s               156      0.187269   6 C  s         
   220      0.043587   8 C  s               315      0.037793  11 C  s         
   126      0.029599   5 C  s               252      0.028167   9 C  s         
 
 Vector   15  Occ=2.000000D+00  E=-9.909093D+00
              MO Center=  1.9D+00,  2.1D+00, -4.1D-01, r^2= 6.2D-02
   Bfn.  Coefficient  Atom+Function         Bfn.  Coefficient  Atom+Function  
  ----- ------------  ---------------      ----- ------------  ---------------
   126      0.601044   5 C  s               125      0.462962   5 C  s         
   157     -0.081209   6 C  s               156     -0.062706   6 C  s         
   127      0.045399   5 C  s               106      0.033093   4 C  py        
    97      0.030913   4 C  s                98     -0.027357   4 C  s         
   260     -0.026763   9 C  px        
 
 Vector   16  Occ=2.000000D+00  E=-9.907611D+00
              MO Center=  6.3D+00,  8.1D-01, -2.1D+00, r^2= 2.8D-02
   Bfn.  Coefficient  Atom+Function         Bfn.  Coefficient  Atom+Function  
  ----- ------------  ---------------      ----- ------------  ---------------
   436      0.606868  15 C  s               435      0.467240  15 C  s         
   437      0.042032  15 C  s               439      0.035964  15 C  s         
   438     -0.027526  15 C  s         
 
 Vector   17  Occ=2.000000D+00  E=-9.905809D+00
              MO Center= -1.2D-01,  6.2D-01, -4.4D-01, r^2= 2.8D-02
   Bfn.  Coefficient  Atom+Function         Bfn.  Coefficient  Atom+Function  
  ----- ------------  ---------------      ----- ------------  ---------------
    64      0.606492   3 C  s                63      0.467187   3 C  s         
    65      0.046128   3 C  s               105     -0.033993   4 C  px        
    97      0.027513   4 C  s         
 
 Vector   18  Occ=2.000000D+00  E=-1.002489D+00
              MO Center=  6.6D+00,  2.1D-01,  7.5D-01, r^2= 1.1D+00
   Bfn.  Coefficient  Atom+Function         Bfn.  Coefficient  Atom+Function  
  ----- ------------  ---------------      ----- ------------  ---------------
   376      0.331669  13 O  s               375      0.253123  13 O  s         
   407      0.193336  14 O  s               344      0.189648  12 C  s         
   374     -0.173954  13 O  s               406      0.165100  14 O  s         
   345      0.146732  12 C  s               343     -0.117461  12 C  s         
   405     -0.112187  14 O  s               377      0.103948  13 O  s         
 
 Vector   19  Occ=2.000000D+00  E=-9.666920D-01
              MO Center= -1.9D+00, -8.9D-01, -4.9D-01, r^2= 6.8D-01
   Bfn.  Coefficient  Atom+Function         Bfn.  Coefficient  Atom+Function  
  ----- ------------  ---------------      ----- ------------  ---------------
     4      0.424213   1 O  s                 3      0.309763   1 O  s         
     2     -0.214820   1 O  s                 5      0.137370   1 O  s         
    34      0.127163   2 C  s               565      0.101692  28 C  s         
     1     -0.092341   1 O  s                35      0.089726   2 C  s         
    37     -0.080971   2 C  px              566      0.078409  28 C  s         
 
 Vector   20  Occ=2.000000D+00  E=-9.205065D-01
              MO Center=  6.6D+00,  7.1D-01,  9.7D-01, r^2= 1.3D+00
   Bfn.  Coefficient  Atom+Function         Bfn.  Coefficient  Atom+Function  
  ----- ------------  ---------------      ----- ------------  ---------------
   407      0.325331  14 O  s               376     -0.284469  13 O  s         
   406      0.268513  14 O  s               375     -0.208245  13 O  s         
   405     -0.180050  14 O  s               374      0.142377  13 O  s         
   348      0.138028  12 C  py              408      0.113456  14 O  s         
   377     -0.106418  13 O  s               349      0.105544  12 C  pz        
 
 Vector   21  Occ=2.000000D+00  E=-7.875926D-01
              MO Center=  2.0D+00,  3.1D-01, -6.1D-01, r^2= 3.9D+00
   Bfn.  Coefficient  Atom+Function         Bfn.  Coefficient  Atom+Function  
  ----- ------------  ---------------      ----- ------------  ---------------
   251      0.158246   9 C  s                96      0.155478   4 C  s         
   252      0.141559   9 C  s                97      0.138583   4 C  s         
   220      0.114955   8 C  s               189      0.108169   7 C  s         
   190      0.106453   7 C  s               516      0.106007  24 C  s         
   127      0.105173   5 C  s               250     -0.102079   9 C  s         
 
 Vector   22  Occ=2.000000D+00  E=-7.503604D-01
              MO Center=  2.8D+00,  3.9D-01, -6.8D-01, r^2= 8.2D+00
   Bfn.  Coefficient  Atom+Function         Bfn.  Coefficient  Atom+Function  
  ----- ------------  ---------------      ----- ------------  ---------------
   189      0.161172   7 C  s               190      0.160768   7 C  s         
   314      0.160756  11 C  s               313      0.140003  11 C  s         
   282     -0.118724  10 C  s                34     -0.110357   2 C  s         
   158      0.109236   6 C  s                35     -0.107037   2 C  s         
   188     -0.104019   7 C  s               283     -0.103219  10 C  s         
 
 Vector   23  Occ=2.000000D+00  E=-7.136298D-01
              MO Center=  3.4D+00,  6.9D-01, -7.4D-01, r^2= 9.3D+00
   Bfn.  Coefficient  Atom+Function         Bfn.  Coefficient  Atom+Function  
  ----- ------------  ---------------      ----- ------------  ---------------
   314      0.209785  11 C  s               313      0.168697  11 C  s         
   127     -0.144012   5 C  s               128     -0.127657   5 C  s         
   437      0.127068  15 C  s               438      0.120260  15 C  s         
   282      0.117205  10 C  s               312     -0.110584  11 C  s         
   283      0.107740  10 C  s                97     -0.099638   4 C  s         
 
 Vector   24  Occ=2.000000D+00  E=-6.946382D-01
              MO Center=  1.1D+00, -2.2D-01, -6.2D-01, r^2= 6.3D+00
   Bfn.  Coefficient  Atom+Function         Bfn.  Coefficient  Atom+Function  
  ----- ------------  ---------------      ----- ------------  ---------------
   252     -0.168559   9 C  s                65      0.158387   3 C  s         
   516     -0.154640  24 C  s               251     -0.137258   9 C  s         
    66      0.129863   3 C  s               517     -0.127815  24 C  s         
    35      0.125167   2 C  s               220     -0.125089   8 C  s         
    34      0.112127   2 C  s                97      0.105429   4 C  s         
 
 Vector   25  Occ=2.000000D+00  E=-6.619493D-01
              MO Center=  1.7D+00,  1.7D-01, -7.1D-01, r^2= 1.2D+01
   Bfn.  Coefficient  Atom+Function         Bfn.  Coefficient  Atom+Function  
  ----- ------------  ---------------      ----- ------------  ---------------
    97      0.166925   4 C  s                96      0.151088   4 C  s         
   566      0.150039  28 C  s               565      0.146390  28 C  s         
   190     -0.134941   7 C  s                35     -0.125172   2 C  s         
   158     -0.121544   6 C  s               438      0.117977  15 C  s         
   189     -0.116789   7 C  s               437      0.114343  15 C  s         
 
 Vector   26  Occ=2.000000D+00  E=-6.559847D-01
              MO Center=  1.2D+00, -2.0D-01, -6.2D-01, r^2= 8.2D+00
   Bfn.  Coefficient  Atom+Function         Bfn.  Coefficient  Atom+Function  
  ----- ------------  ---------------      ----- ------------  ---------------
   283      0.170853  10 C  s               282      0.161070  10 C  s         
   220     -0.151566   8 C  s               221     -0.152252   8 C  s         
   159      0.139794   6 C  s               158      0.138598   6 C  s         
   566      0.128476  28 C  s               128      0.127190   5 C  s         
   127      0.122594   5 C  s               565      0.122107  28 C  s         
 
 Vector   27  Occ=2.000000D+00  E=-6.188469D-01
              MO Center=  9.0D-01, -3.3D-01, -7.8D-01, r^2= 1.4D+01
   Bfn.  Coefficient  Atom+Function         Bfn.  Coefficient  Atom+Function  
  ----- ------------  ---------------      ----- ------------  ---------------
   566      0.193383  28 C  s               565      0.181813  28 C  s         
    66      0.149449   3 C  s               438     -0.134587  15 C  s         
    65      0.132518   3 C  s               190      0.132360   7 C  s         
   437     -0.124024  15 C  s                 4     -0.118921   1 O  s         
   189      0.114241   7 C  s               564     -0.110581  28 C  s         
 
 Vector   28  Occ=2.000000D+00  E=-5.959515D-01
              MO Center=  5.4D+00,  4.2D-01, -9.1D-01, r^2= 7.8D+00
   Bfn.  Coefficient  Atom+Function         Bfn.  Coefficient  Atom+Function  
  ----- ------------  ---------------      ----- ------------  ---------------
   438      0.234584  15 C  s               437      0.207338  15 C  s         
   345     -0.157841  12 C  s               344     -0.153573  12 C  s         
   436     -0.130357  15 C  s               314     -0.129235  11 C  s         
   379     -0.112239  13 O  py              318     -0.111022  11 C  pz        
   349      0.095610  12 C  pz              407      0.092099  14 O  s         
 
 Vector   29  Occ=2.000000D+00  E=-5.675467D-01
              MO Center=  2.8D+00,  5.4D-02, -4.3D-01, r^2= 9.8D+00
   Bfn.  Coefficient  Atom+Function         Bfn.  Coefficient  Atom+Function  
  ----- ------------  ---------------      ----- ------------  ---------------
   221      0.155720   8 C  s               517     -0.135067  24 C  s         
   283      0.125368  10 C  s               516     -0.116756  24 C  s         
    66     -0.111524   3 C  s               220      0.109456   8 C  s         
   379      0.109929  13 O  py              282      0.107746  10 C  s         
   345      0.107966  12 C  s               128      0.107016   5 C  s         
 
 Vector   30  Occ=2.000000D+00  E=-5.465155D-01
              MO Center=  2.6D+00,  2.1D-01, -3.8D-01, r^2= 1.2D+01
   Bfn.  Coefficient  Atom+Function         Bfn.  Coefficient  Atom+Function  
  ----- ------------  ---------------      ----- ------------  ---------------
    97      0.173391   4 C  s               159     -0.135218   6 C  s         
   379     -0.132227  13 O  py               96      0.130309   4 C  s         
   158     -0.117358   6 C  s               314      0.110092  11 C  s         
   283      0.106210  10 C  s               382     -0.102773  13 O  py        
    38     -0.101329   2 C  py              345     -0.101473  12 C  s         
 
 Vector   31  Occ=2.000000D+00  E=-5.350067D-01
              MO Center=  1.5D+00, -6.2D-02, -6.2D-01, r^2= 6.0D+00
   Bfn.  Coefficient  Atom+Function         Bfn.  Coefficient  Atom+Function  
  ----- ------------  ---------------      ----- ------------  ---------------
   252      0.176536   9 C  s               517     -0.143469  24 C  s         
   251      0.133685   9 C  s                66     -0.127063   3 C  s         
    35      0.125835   2 C  s               100     -0.118283   4 C  py        
   516     -0.115529  24 C  s               221     -0.108059   8 C  s         
   285     -0.099599  10 C  px              520      0.099922  24 C  py        
 
 Vector   32  Occ=2.000000D+00  E=-5.184540D-01
              MO Center=  3.4D+00,  3.3D-01, -3.9D-01, r^2= 1.3D+01
   Bfn.  Coefficient  Atom+Function         Bfn.  Coefficient  Atom+Function  
  ----- ------------  ---------------      ----- ------------  ---------------
   314      0.179686  11 C  s               379     -0.150271  13 O  py        
   128      0.123114   5 C  s               190     -0.121947   7 C  s         
   348      0.118321  12 C  py              382     -0.118244  13 O  py        
   313      0.111502  11 C  s               127      0.104254   5 C  s         
    35      0.094432   2 C  s               189     -0.094341   7 C  s         
 
 Vector   33  Occ=2.000000D+00  E=-4.768975D-01
              MO Center= -8.3D-02, -6.9D-01, -5.7D-01, r^2= 9.2D+00
   Bfn.  Coefficient  Atom+Function         Bfn.  Coefficient  Atom+Function  
  ----- ------------  ---------------      ----- ------------  ---------------
     6      0.202701   1 O  px              569     -0.168465  28 C  py        
    37     -0.167144   2 C  px                9      0.162332   1 O  px        
   572     -0.106679  28 C  py                7      0.104621   1 O  py        
   286     -0.100962  10 C  py              131     -0.097492   5 C  py        
    40     -0.094630   2 C  px              221     -0.092401   8 C  s         
 
 Vector   34  Occ=2.000000D+00  E=-4.595669D-01
              MO Center=  2.3D+00,  1.2D-01, -6.0D-01, r^2= 1.0D+01
   Bfn.  Coefficient  Atom+Function         Bfn.  Coefficient  Atom+Function  
  ----- ------------  ---------------      ----- ------------  ---------------
   254      0.132295   9 C  px              286     -0.131191  10 C  py        
   223     -0.121473   8 C  px              190     -0.116918   7 C  s         
   546      0.114961  25 H  s               128     -0.112728   5 C  s         
   283      0.111214  10 C  s                66      0.109670   3 C  s         
   316      0.106488  11 C  px              159      0.102460   6 C  s         
 
 Vector   35  Occ=2.000000D+00  E=-4.529958D-01
              MO Center=  1.8D+00,  2.6D-01, -4.8D-01, r^2= 1.2D+01
   Bfn.  Coefficient  Atom+Function         Bfn.  Coefficient  Atom+Function  
  ----- ------------  ---------------      ----- ------------  ---------------
    38      0.129979   2 C  py              285      0.112955  10 C  px        
    99      0.107268   4 C  px              161     -0.105335   6 C  px        
    68     -0.103933   3 C  px              224      0.102027   8 C  py        
    69     -0.100328   3 C  py              519     -0.096241  24 C  px        
     6     -0.094533   1 O  px              568     -0.093146  28 C  px        
 
 Vector   36  Occ=2.000000D+00  E=-4.255377D-01
              MO Center=  5.4D+00,  5.0D-01,  1.2D-01, r^2= 8.2D+00
   Bfn.  Coefficient  Atom+Function         Bfn.  Coefficient  Atom+Function  
  ----- ------------  ---------------      ----- ------------  ---------------
   379      0.164030  13 O  py              410     -0.159956  14 O  py        
   380      0.155877  13 O  pz              407     -0.147058  14 O  s         
   349      0.135599  12 C  pz              382      0.126841  13 O  py        
   377     -0.125767  13 O  s               383      0.121032  13 O  pz        
   413     -0.115885  14 O  py              376     -0.113257  13 O  s         
 
 Vector   37  Occ=2.000000D+00  E=-4.198124D-01
              MO Center=  5.0D+00,  7.3D-01,  1.5D-01, r^2= 1.2D+01
   Bfn.  Coefficient  Atom+Function         Bfn.  Coefficient  Atom+Function  
  ----- ------------  ---------------      ----- ------------  ---------------
   407     -0.184636  14 O  s               411     -0.181014  14 O  pz        
   345      0.167931  12 C  s               348      0.140131  12 C  py        
   344      0.133156  12 C  s               318      0.127535  11 C  pz        
   414     -0.127766  14 O  pz              408     -0.127004  14 O  s         
   406     -0.119864  14 O  s               380      0.115597  13 O  pz        
 
 Vector   38  Occ=2.000000D+00  E=-4.161076D-01
              MO Center= -2.2D+00, -1.7D+00, -5.5D-01, r^2= 2.0D+00
   Bfn.  Coefficient  Atom+Function         Bfn.  Coefficient  Atom+Function  
  ----- ------------  ---------------      ----- ------------  ---------------
   570      0.278875  28 C  pz                8      0.225041   1 O  pz        
   573      0.191501  28 C  pz               11      0.184238   1 O  pz        
   601     -0.152749  30 H  s               595      0.150105  29 H  s         
   600     -0.113802  30 H  s               594      0.111826  29 H  s         
    39      0.104703   2 C  pz               14      0.094379   1 O  pz        
 
 Vector   39  Occ=2.000000D+00  E=-4.142475D-01
              MO Center=  2.3D+00,  1.2D-02, -4.2D-01, r^2= 1.2D+01
   Bfn.  Coefficient  Atom+Function         Bfn.  Coefficient  Atom+Function  
  ----- ------------  ---------------      ----- ------------  ---------------
   162      0.150386   6 C  py                7      0.131772   1 O  py        
   286     -0.122322  10 C  py              519     -0.119421  24 C  px        
   100     -0.118148   4 C  py              255      0.108531   9 C  py        
    10      0.105946   1 O  py              380      0.103535  13 O  pz        
   503      0.092806  22 H  s               192      0.091050   7 C  px        
 
 Vector   40  Occ=2.000000D+00  E=-4.022854D-01
              MO Center=  4.3D+00,  4.0D-01, -2.1D-01, r^2= 1.2D+01
   Bfn.  Coefficient  Atom+Function         Bfn.  Coefficient  Atom+Function  
  ----- ------------  ---------------      ----- ------------  ---------------
   347      0.188263  12 C  px              378      0.146712  13 O  px        
   350      0.142457  12 C  px              409      0.142341  14 O  px        
   381      0.118575  13 O  px              412      0.112199  14 O  px        
   223      0.106104   8 C  px               68      0.095940   3 C  px        
   316      0.095247  11 C  px              442      0.091297  15 C  pz        
 
 Vector   41  Occ=2.000000D+00  E=-3.955808D-01
              MO Center=  1.3D+00,  9.1D-02, -6.0D-01, r^2= 1.0D+01
   Bfn.  Coefficient  Atom+Function         Bfn.  Coefficient  Atom+Function  
  ----- ------------  ---------------      ----- ------------  ---------------
    97      0.147644   4 C  s               252     -0.143313   9 C  s         
   224     -0.137074   8 C  py              131     -0.132896   5 C  py        
   558     -0.128326  27 H  s               568     -0.127608  28 C  px        
   509      0.121914  23 H  s               520     -0.113159  24 C  py        
    66     -0.099776   3 C  s                68      0.099535   3 C  px        
 
 Vector   42  Occ=2.000000D+00  E=-3.890629D-01
              MO Center=  1.7D+00,  1.4D-01, -5.4D-01, r^2= 1.4D+01
   Bfn.  Coefficient  Atom+Function         Bfn.  Coefficient  Atom+Function  
  ----- ------------  ---------------      ----- ------------  ---------------
   130      0.169235   5 C  px              161     -0.142083   6 C  px        
   568      0.139839  28 C  px                7     -0.123458   1 O  py        
   520     -0.120079  24 C  py              552      0.115947  26 H  s         
   497     -0.111882  21 H  s               133      0.101375   5 C  px        
    10     -0.100088   1 O  py              607     -0.098381  31 H  s         
 
 Vector   43  Occ=2.000000D+00  E=-3.782640D-01
              MO Center=  4.5D+00,  2.5D-01, -8.2D-01, r^2= 1.3D+01
   Bfn.  Coefficient  Atom+Function         Bfn.  Coefficient  Atom+Function  
  ----- ------------  ---------------      ----- ------------  ---------------
   441      0.153880  15 C  py              378     -0.148661  13 O  px        
   317      0.136373  11 C  py              381     -0.118751  13 O  px        
   479     -0.113790  18 H  s               285      0.110988  10 C  px        
   347     -0.107413  12 C  px              467      0.107112  16 H  s         
   519     -0.103585  24 C  px              444      0.098786  15 C  py        
 
 Vector   44  Occ=2.000000D+00  E=-3.695355D-01
              MO Center=  1.8D+00,  2.3D-01, -6.2D-01, r^2= 7.0D+00
   Bfn.  Coefficient  Atom+Function         Bfn.  Coefficient  Atom+Function  
  ----- ------------  ---------------      ----- ------------  ---------------
   131     -0.151404   5 C  py               69      0.142875   3 C  py        
   520      0.135989  24 C  py              497     -0.132417  21 H  s         
   224     -0.128121   8 C  py              552     -0.126566  26 H  s         
   519     -0.118618  24 C  px              558      0.118053  27 H  s         
   509      0.113413  23 H  s               130      0.096656   5 C  px        
 
 Vector   45  Occ=2.000000D+00  E=-3.629034D-01
              MO Center=  4.7D+00,  3.3D-01, -3.9D-01, r^2= 1.4D+01
   Bfn.  Coefficient  Atom+Function         Bfn.  Coefficient  Atom+Function  
  ----- ------------  ---------------      ----- ------------  ---------------
   380      0.191231  13 O  pz              411      0.182633  14 O  pz        
   383      0.147818  13 O  pz              414      0.132169  14 O  pz        
   440      0.127901  15 C  px              442      0.119933  15 C  pz        
   473     -0.111329  17 H  s               376     -0.106032  13 O  s         
   568     -0.101777  28 C  px              485      0.100413  19 H  s         
 
 Vector   46  Occ=2.000000D+00  E=-3.572601D-01
              MO Center=  2.4D+00, -4.3D-02, -7.4D-01, r^2= 1.4D+01
   Bfn.  Coefficient  Atom+Function         Bfn.  Coefficient  Atom+Function  
  ----- ------------  ---------------      ----- ------------  ---------------
   285      0.140490  10 C  px              568      0.132127  28 C  px        
   519     -0.128159  24 C  px              441     -0.122891  15 C  py        
   161      0.117490   6 C  px              130     -0.112837   5 C  px        
    99      0.103193   4 C  px              607     -0.101446  31 H  s         
   473     -0.097031  17 H  s                68     -0.087804   3 C  px        
 
 Vector   47  Occ=2.000000D+00  E=-3.490396D-01
              MO Center=  1.7D+00, -9.1D-02, -5.8D-01, r^2= 8.9D+00
   Bfn.  Coefficient  Atom+Function         Bfn.  Coefficient  Atom+Function  
  ----- ------------  ---------------      ----- ------------  ---------------
   256      0.126799   9 C  pz              101      0.126035   4 C  pz        
    39      0.115403   2 C  pz              104      0.102961   4 C  pz        
   259      0.103097   9 C  pz              521      0.097003  24 C  pz        
    70      0.095973   3 C  pz               42      0.092945   2 C  pz        
   570     -0.093131  28 C  pz              286     -0.086185  10 C  py        
 
 Vector   48  Occ=2.000000D+00  E=-3.452777D-01
              MO Center=  1.9D+00, -8.3D-02, -7.9D-01, r^2= 1.2D+01
   Bfn.  Coefficient  Atom+Function         Bfn.  Coefficient  Atom+Function  
  ----- ------------  ---------------      ----- ------------  ---------------
    38      0.124398   2 C  py              440      0.124937  15 C  px        
   162     -0.113239   6 C  py              546      0.113580  25 H  s         
   286     -0.110920  10 C  py               69     -0.098861   3 C  py        
   224     -0.097770   8 C  py              503     -0.097570  22 H  s         
   193      0.091717   7 C  py              485      0.092086  19 H  s         
 
 Vector   49  Occ=2.000000D+00  E=-3.346610D-01
              MO Center=  4.6D+00,  6.6D-01, -6.6D-01, r^2= 1.1D+01
   Bfn.  Coefficient  Atom+Function         Bfn.  Coefficient  Atom+Function  
  ----- ------------  ---------------      ----- ------------  ---------------
   442      0.198959  15 C  pz              318     -0.154793  11 C  pz        
   349      0.134047  12 C  pz              445      0.132833  15 C  pz        
   473     -0.127489  17 H  s               378     -0.125992  13 O  px        
   410     -0.119860  14 O  py              321     -0.115262  11 C  pz        
   409     -0.107278  14 O  px              381     -0.100947  13 O  px        
 
 Vector   50  Occ=2.000000D+00  E=-3.328594D-01
              MO Center=  4.0D+00,  6.2D-01, -7.7D-01, r^2= 1.1D+01
   Bfn.  Coefficient  Atom+Function         Bfn.  Coefficient  Atom+Function  
  ----- ------------  ---------------      ----- ------------  ---------------
    99     -0.162640   4 C  px              440     -0.155775  15 C  px        
    68      0.151876   3 C  px              485     -0.134107  19 H  s         
   349     -0.112456  12 C  pz              102     -0.104738   4 C  px        
   380      0.105019  13 O  pz              223     -0.102477   8 C  px        
   254      0.101986   9 C  px              162     -0.100677   6 C  py        
 
 Vector   51  Occ=2.000000D+00  E=-3.156763D-01
              MO Center=  4.3D+00,  8.7D-01, -1.1D+00, r^2= 1.1D+01
   Bfn.  Coefficient  Atom+Function         Bfn.  Coefficient  Atom+Function  
  ----- ------------  ---------------      ----- ------------  ---------------
   317      0.207445  11 C  py              441     -0.201427  15 C  py        
   467      0.174582  16 H  s               479      0.165500  18 H  s         
   320      0.137916  11 C  py              444     -0.130223  15 C  py        
   466      0.120239  16 H  s               478      0.114024  18 H  s         
   100     -0.105283   4 C  py              161     -0.094989   6 C  px        
 
 Vector   52  Occ=2.000000D+00  E=-3.095718D-01
              MO Center=  6.9D-01, -2.0D-01, -5.3D-01, r^2= 1.1D+01
   Bfn.  Coefficient  Atom+Function         Bfn.  Coefficient  Atom+Function  
  ----- ------------  ---------------      ----- ------------  ---------------
     8      0.197024   1 O  pz               39      0.177614   2 C  pz        
    11      0.158771   1 O  pz               42      0.141144   2 C  pz        
   570     -0.135631  28 C  pz              163     -0.112186   6 C  pz        
   225     -0.112063   8 C  pz               14      0.109242   1 O  pz        
   132     -0.105304   5 C  pz              595     -0.105033  29 H  s         
 
 Vector   53  Occ=2.000000D+00  E=-3.002617D-01
              MO Center=  3.2D+00,  4.8D-01, -7.4D-01, r^2= 1.1D+01
   Bfn.  Coefficient  Atom+Function         Bfn.  Coefficient  Atom+Function  
  ----- ------------  ---------------      ----- ------------  ---------------
   192      0.143963   7 C  px              316     -0.140746  11 C  px        
   223     -0.119985   8 C  px              224     -0.118344   8 C  py        
   193      0.111174   7 C  py              467     -0.110824  16 H  s         
   254      0.108042   9 C  px                6      0.107315   1 O  px        
   519     -0.106173  24 C  px              195      0.105142   7 C  px        
 
 Vector   54  Occ=2.000000D+00  E=-2.954335D-01
              MO Center=  1.8D+00,  2.7D-01, -5.5D-01, r^2= 1.3D+01
   Bfn.  Coefficient  Atom+Function         Bfn.  Coefficient  Atom+Function  
  ----- ------------  ---------------      ----- ------------  ---------------
     7      0.183772   1 O  py               10      0.147201   1 O  py        
    98      0.134505   4 C  s               284      0.130152  10 C  s         
   161     -0.122062   6 C  px              192      0.111848   7 C  px        
   316     -0.112048  11 C  px              222     -0.106746   8 C  s         
   254      0.107014   9 C  px              292      0.106460  10 C  py        
 
 Vector   55  Occ=2.000000D+00  E=-2.818488D-01
              MO Center=  6.9D-01, -2.9D-01, -4.8D-01, r^2= 1.0D+01
   Bfn.  Coefficient  Atom+Function         Bfn.  Coefficient  Atom+Function  
  ----- ------------  ---------------      ----- ------------  ---------------
     7      0.184513   1 O  py               10      0.148024   1 O  py        
   255      0.142644   9 C  py              100     -0.140235   4 C  py        
    38     -0.135209   2 C  py              286      0.128325  10 C  py        
     6     -0.118838   1 O  px              520     -0.118901  24 C  py        
   292      0.114999  10 C  py              284      0.111487  10 C  s         
 
 Vector   56  Occ=2.000000D+00  E=-2.767048D-01
              MO Center=  6.0D+00,  4.9D-01,  6.8D-01, r^2= 4.8D+00
   Bfn.  Coefficient  Atom+Function         Bfn.  Coefficient  Atom+Function  
  ----- ------------  ---------------      ----- ------------  ---------------
   378     -0.295782  13 O  px              409      0.286790  14 O  px        
   222      0.277508   8 C  s               381     -0.237106  13 O  px        
   412      0.227620  14 O  px              160     -0.209832   6 C  s         
   384     -0.195838  13 O  px              415      0.160370  14 O  px        
   199      0.149515   7 C  py              411     -0.131727  14 O  pz        
 
 Vector   57  Occ=2.000000D+00  E=-2.675300D-01
              MO Center=  1.3D+00, -2.2D-01, -6.0D-01, r^2= 8.1D+00
   Bfn.  Coefficient  Atom+Function         Bfn.  Coefficient  Atom+Function  
  ----- ------------  ---------------      ----- ------------  ---------------
   521     -0.206367  24 C  pz                8      0.195516   1 O  pz        
   524     -0.169299  24 C  pz              163      0.162930   6 C  pz        
    11      0.158027   1 O  pz              287     -0.151521  10 C  pz        
   132      0.135790   5 C  pz              166      0.134056   6 C  pz        
   256     -0.125357   9 C  pz              290     -0.125591  10 C  pz        
 
 Vector   58  Occ=2.000000D+00  E=-2.474344D-01
              MO Center=  2.5D+00,  5.9D-01, -3.5D-01, r^2= 8.9D+00
   Bfn.  Coefficient  Atom+Function         Bfn.  Coefficient  Atom+Function  
  ----- ------------  ---------------      ----- ------------  ---------------
   101      0.189213   4 C  pz              225     -0.169763   8 C  pz        
   194     -0.162299   7 C  pz              104      0.156562   4 C  pz        
    70      0.154382   3 C  pz              410      0.145115  14 O  py        
   228     -0.138454   8 C  pz              197     -0.135599   7 C  pz        
     8     -0.131734   1 O  pz               73      0.128000   3 C  pz        
 
 Vector   59  Occ=2.000000D+00  E=-2.277297D-01
              MO Center=  5.4D+00,  9.4D-01,  6.8D-01, r^2= 8.7D+00
   Bfn.  Coefficient  Atom+Function         Bfn.  Coefficient  Atom+Function  
  ----- ------------  ---------------      ----- ------------  ---------------
   410      0.310956  14 O  py              413      0.246630  14 O  py        
   315     -0.236558  11 C  s               416      0.189704  14 O  py        
   411     -0.185817  14 O  pz              379      0.150778  13 O  py        
   414     -0.146131  14 O  pz              409     -0.132350  14 O  px        
   382      0.125948  13 O  py              318     -0.122302  11 C  pz        
 
 Vector   60  Occ=2.000000D+00  E=-2.095316D-01
              MO Center=  1.6D+00,  3.3D-02, -6.0D-01, r^2= 6.7D+00
   Bfn.  Coefficient  Atom+Function         Bfn.  Coefficient  Atom+Function  
  ----- ------------  ---------------      ----- ------------  ---------------
   287      0.224497  10 C  pz              163      0.202453   6 C  pz        
   290      0.185653  10 C  pz              256     -0.172509   9 C  pz        
   166      0.167621   6 C  pz              293      0.157871  10 C  pz        
   259     -0.143475   9 C  pz              169      0.134681   6 C  pz        
     8     -0.130969   1 O  pz              101     -0.127388   4 C  pz        
 
 Vector   61  Occ=2.000000D+00  E=-1.793992D-01
              MO Center=  1.2D+00,  1.9D-01, -5.5D-01, r^2= 7.6D+00
   Bfn.  Coefficient  Atom+Function         Bfn.  Coefficient  Atom+Function  
  ----- ------------  ---------------      ----- ------------  ---------------
    70     -0.206578   3 C  pz                8      0.199523   1 O  pz        
    73     -0.173738   3 C  pz              132      0.162555   5 C  pz        
    11      0.161116   1 O  pz              194     -0.160995   7 C  pz        
    39     -0.155412   2 C  pz              521      0.149779  24 C  pz        
    14      0.139549   1 O  pz               76     -0.139102   3 C  pz        
 
 Vector   62  Occ=0.000000D+00  E=-7.031326D-02
              MO Center=  1.9D+00,  1.2D-01, -6.1D-01, r^2= 6.9D+00
   Bfn.  Coefficient  Atom+Function         Bfn.  Coefficient  Atom+Function  
  ----- ------------  ---------------      ----- ------------  ---------------
   527      0.264111  24 C  pz              138     -0.230842   5 C  pz        
   231     -0.222521   8 C  pz              293     -0.216745  10 C  pz        
   439      0.215020  15 C  s                76      0.209080   3 C  pz        
   521      0.205185  24 C  pz              225     -0.202283   8 C  pz        
   132     -0.184204   5 C  pz              169      0.179411   6 C  pz        
 
 Vector   63  Occ=0.000000D+00  E=-4.550408D-02
              MO Center=  3.8D+00,  6.8D-01, -1.3D-01, r^2= 1.0D+01
   Bfn.  Coefficient  Atom+Function         Bfn.  Coefficient  Atom+Function  
  ----- ------------  ---------------      ----- ------------  ---------------
   222     -0.376374   8 C  s               160      0.353216   6 C  s         
   169     -0.294064   6 C  pz              439      0.286956  15 C  s         
   199     -0.284976   7 C  py              350     -0.237697  12 C  px        
   315     -0.232674  11 C  s               200      0.231319   7 C  pz        
   347     -0.217969  12 C  px              129     -0.208479   5 C  s         
 
 Vector   64  Occ=0.000000D+00  E=-2.302035D-02
              MO Center=  4.0D+00,  5.2D-01,  3.2D-02, r^2= 1.0D+01
   Bfn.  Coefficient  Atom+Function         Bfn.  Coefficient  Atom+Function  
  ----- ------------  ---------------      ----- ------------  ---------------
   222     -0.384387   8 C  s               160      0.359871   6 C  s         
   350     -0.299366  12 C  px              347     -0.295188  12 C  px        
   199     -0.271043   7 C  py              200     -0.257927   7 C  pz        
   315     -0.236099  11 C  s               129     -0.233375   5 C  s         
    45      0.229196   2 C  pz              262      0.220464   9 C  pz        
 
 Vector   65  Occ=0.000000D+00  E=-1.294653D-02
              MO Center=  1.9D+00,  1.8D-01, -5.4D-01, r^2= 6.6D+00
   Bfn.  Coefficient  Atom+Function         Bfn.  Coefficient  Atom+Function  
  ----- ------------  ---------------      ----- ------------  ---------------
   315      0.545745  11 C  s               527     -0.408238  24 C  pz        
    76     -0.387430   3 C  pz              138     -0.388905   5 C  pz        
   231     -0.382976   8 C  pz              262      0.342068   9 C  pz        
   346     -0.332329  12 C  s               107      0.302390   4 C  pz        
   492     -0.263722  20 H  s               169      0.193012   6 C  pz        
 
 Vector   66  Occ=0.000000D+00  E= 4.648198D-03
              MO Center=  6.5D+00, -2.5D-01,  6.3D-01, r^2= 8.0D+00
   Bfn.  Coefficient  Atom+Function         Bfn.  Coefficient  Atom+Function  
  ----- ------------  ---------------      ----- ------------  ---------------
   315      3.108277  11 C  s               492     -1.303138  20 H  s         
   346     -1.270186  12 C  s               439      1.257183  15 C  s         
   198     -1.179292   7 C  px              468     -0.793541  16 H  s         
    98      0.740910   4 C  s               324      0.724838  11 C  pz        
   105      0.689591   4 C  px              480     -0.596232  18 H  s         
 
 Vector   67  Occ=0.000000D+00  E= 1.661447D-02
              MO Center= -1.7D+00, -2.8D+00, -7.0D-01, r^2= 7.3D+00
   Bfn.  Coefficient  Atom+Function         Bfn.  Coefficient  Atom+Function  
  ----- ------------  ---------------      ----- ------------  ---------------
   567      3.771001  28 C  s               547     -1.757702  25 H  s         
   260     -1.557324   9 C  px              596     -1.539071  29 H  s         
   602     -1.546201  30 H  s                43      1.482842   2 C  px        
   292     -1.278409  10 C  py              106      1.082349   4 C  py        
   608     -0.910514  31 H  s               553     -0.833028  26 H  s         
 
 Vector   68  Occ=0.000000D+00  E= 3.230803D-02
              MO Center=  3.3D+00,  8.0D-01, -6.0D-01, r^2= 2.2D+01
   Bfn.  Coefficient  Atom+Function         Bfn.  Coefficient  Atom+Function  
  ----- ------------  ---------------      ----- ------------  ---------------
   439      2.230053  15 C  s               315      1.657879  11 C  s         
   198     -1.285914   7 C  px              468     -1.192122  16 H  s         
   504     -1.133231  22 H  s               498     -1.066771  21 H  s         
   284      1.046900  10 C  s                98      1.001747   4 C  s         
   105      0.860973   4 C  px              474     -0.822903  17 H  s         
 
 Vector   69  Occ=0.000000D+00  E= 3.685439D-02
              MO Center=  1.2D+00, -7.0D-01, -8.1D-01, r^2= 2.2D+01
   Bfn.  Coefficient  Atom+Function         Bfn.  Coefficient  Atom+Function  
  ----- ------------  ---------------      ----- ------------  ---------------
   439     -1.614267  15 C  s               284      1.592889  10 C  s         
   315     -1.290473  11 C  s               553     -1.205672  26 H  s         
   567     -1.164005  28 C  s               468      1.063843  16 H  s         
     5     -0.800790   1 O  s               547     -0.793445  25 H  s         
   474      0.747316  17 H  s               602      0.728086  30 H  s         
 
 Vector   70  Occ=0.000000D+00  E= 4.171958D-02
              MO Center=  3.5D+00,  7.4D-01, -1.0D+00, r^2= 1.7D+01
   Bfn.  Coefficient  Atom+Function         Bfn.  Coefficient  Atom+Function  
  ----- ------------  ---------------      ----- ------------  ---------------
   439      3.253944  15 C  s               480     -1.318181  18 H  s         
   498      1.297385  21 H  s               315     -1.256508  11 C  s         
   106     -1.041499   4 C  py              504      1.035325  22 H  s         
   229      1.009630   8 C  px              486     -0.950571  19 H  s         
   553     -0.909772  26 H  s               260      0.903611   9 C  px        
 
 Vector   71  Occ=0.000000D+00  E= 5.119926D-02
              MO Center=  6.6D-01, -5.2D-01, -7.1D-01, r^2= 1.9D+01
   Bfn.  Coefficient  Atom+Function         Bfn.  Coefficient  Atom+Function  
  ----- ------------  ---------------      ----- ------------  ---------------
   553      1.534579  26 H  s               526      1.315551  24 C  py        
   498      1.205284  21 H  s               559      1.154183  27 H  s         
   510      1.117969  23 H  s                75     -1.039740   3 C  py        
   439      0.975295  15 C  s                 5     -0.966160   1 O  s         
   198      0.941943   7 C  px              315     -0.887264  11 C  s         
 
 Vector   72  Occ=0.000000D+00  E= 5.539710D-02
              MO Center=  2.1D+00,  2.6D-01, -6.5D-01, r^2= 1.1D+01
   Bfn.  Coefficient  Atom+Function         Bfn.  Coefficient  Atom+Function  
  ----- ------------  ---------------      ----- ------------  ---------------
   315      1.413392  11 C  s               439     -1.253246  15 C  s         
   486      0.681809  19 H  s               169      0.513487   6 C  pz        
   198     -0.503177   7 C  px              293      0.488879  10 C  pz        
    45     -0.462529   2 C  pz              200     -0.460709   7 C  pz        
   553     -0.341542  26 H  s                76      0.335333   3 C  pz        
 
 Vector   73  Occ=0.000000D+00  E= 6.240108D-02
              MO Center=  2.8D+00,  9.5D-01, -8.6D-01, r^2= 2.0D+01
   Bfn.  Coefficient  Atom+Function         Bfn.  Coefficient  Atom+Function  
  ----- ------------  ---------------      ----- ------------  ---------------
   315      3.702036  11 C  s               439     -2.924956  15 C  s         
   253     -2.012234   9 C  s               468     -1.589447  16 H  s         
   168      1.446957   6 C  py              498      1.356285  21 H  s         
   504     -1.331070  22 H  s               559      1.313717  27 H  s         
   137     -1.294254   5 C  py              480      1.157539  18 H  s         
 
 Vector   74  Occ=0.000000D+00  E= 6.770048D-02
              MO Center=  1.6D+00,  2.7D-01, -7.4D-01, r^2= 1.9D+01
   Bfn.  Coefficient  Atom+Function         Bfn.  Coefficient  Atom+Function  
  ----- ------------  ---------------      ----- ------------  ---------------
   260      1.966678   9 C  px              160      1.790740   6 C  s         
   284     -1.778681  10 C  s               559      1.691673  27 H  s         
   105      1.611698   4 C  px              525     -1.435716  24 C  px        
   504     -1.402496  22 H  s               229      1.311585   8 C  px        
   510     -1.289709  23 H  s               547      1.294239  25 H  s         
 
 Vector   75  Occ=0.000000D+00  E= 7.500553D-02
              MO Center= -2.8D+00, -1.4D+00, -5.0D-01, r^2= 1.1D+01
   Bfn.  Coefficient  Atom+Function         Bfn.  Coefficient  Atom+Function  
  ----- ------------  ---------------      ----- ------------  ---------------
   608      2.774776  31 H  s               574      1.617971  28 C  px        
   602     -0.958526  30 H  s               596     -0.915532  29 H  s         
   498     -0.720789  21 H  s                67     -0.704675   3 C  s         
   526      0.586937  24 C  py              559      0.571624  27 H  s         
   518     -0.558792  24 C  s               553      0.555600  26 H  s         
 
 Vector   76  Occ=0.000000D+00  E= 8.361680D-02
              MO Center=  5.7D+00,  9.4D-01, -1.4D+00, r^2= 1.1D+01
   Bfn.  Coefficient  Atom+Function         Bfn.  Coefficient  Atom+Function  
  ----- ------------  ---------------      ----- ------------  ---------------
   315      4.803902  11 C  s               346     -2.300379  12 C  s         
   439     -2.089523  15 C  s               474      1.882142  17 H  s         
   446      1.436816  15 C  px              191     -1.378857   7 C  s         
   198     -1.373048   7 C  px              486     -1.287203  19 H  s         
   222     -1.169711   8 C  s               408      0.977800  14 O  s         
 
 Vector   77  Occ=0.000000D+00  E= 8.572476D-02
              MO Center= -1.9D+00, -2.6D+00, -6.8D-01, r^2= 6.3D+00
   Bfn.  Coefficient  Atom+Function         Bfn.  Coefficient  Atom+Function  
  ----- ------------  ---------------      ----- ------------  ---------------
   596      2.131006  29 H  s               602     -2.087674  30 H  s         
   576     -1.355684  28 C  pz              315     -0.322125  11 C  s         
   474      0.286436  17 H  s               486     -0.282865  19 H  s         
   570     -0.281509  28 C  pz               14      0.227439   1 O  pz        
   198      0.187505   7 C  px              129      0.179057   5 C  s         
 
 Vector   78  Occ=0.000000D+00  E= 8.778978D-02
              MO Center=  4.5D+00,  7.8D-01, -1.4D+00, r^2= 1.3D+01
   Bfn.  Coefficient  Atom+Function         Bfn.  Coefficient  Atom+Function  
  ----- ------------  ---------------      ----- ------------  ---------------
   315      5.006923  11 C  s               198     -2.198264   7 C  px        
   439     -1.755648  15 C  s               346     -1.627486  12 C  s         
   323     -1.472838  11 C  py              105      1.441695   4 C  px        
   474     -1.418029  17 H  s               486      1.309504  19 H  s         
   448     -1.211174  15 C  pz              261     -1.048094   9 C  py        
 
 Vector   79  Occ=0.000000D+00  E= 9.405351D-02
              MO Center=  2.0D+00,  6.5D-01, -7.9D-01, r^2= 2.1D+01
   Bfn.  Coefficient  Atom+Function         Bfn.  Coefficient  Atom+Function  
  ----- ------------  ---------------      ----- ------------  ---------------
   315      3.280394  11 C  s               253      2.767452   9 C  s         
    98      2.472408   4 C  s                67     -2.287922   3 C  s         
   518     -2.049377  24 C  s               129     -1.988569   5 C  s         
   559     -1.931952  27 H  s               468     -1.827313  16 H  s         
    74     -1.778582   3 C  px              439     -1.703876  15 C  s         
 
 Vector   80  Occ=0.000000D+00  E= 1.063903D-01
              MO Center=  3.5D+00, -1.0D+00, -1.3D+00, r^2= 1.9D+01
   Bfn.  Coefficient  Atom+Function         Bfn.  Coefficient  Atom+Function  
  ----- ------------  ---------------      ----- ------------  ---------------
   315      3.875550  11 C  s               547     -2.176464  25 H  s         
   526      2.121804  24 C  py              553      1.998985  26 H  s         
    67      1.963886   3 C  s               292     -1.910434  10 C  py        
   439     -1.573537  15 C  s               480     -1.345390  18 H  s         
   346     -1.324926  12 C  s               486      1.291110  19 H  s         
 
 Vector   81  Occ=0.000000D+00  E= 1.179054D-01
              MO Center=  2.1D+00,  1.0D+00, -5.0D-01, r^2= 1.5D+01
   Bfn.  Coefficient  Atom+Function         Bfn.  Coefficient  Atom+Function  
  ----- ------------  ---------------      ----- ------------  ---------------
   199      2.446194   7 C  py              315     -2.228992  11 C  s         
    67      1.909554   3 C  s               222      1.689365   8 C  s         
[...]
   Bfn.  Coefficient  Atom+Function         Bfn.  Coefficient  Atom+Function  
  ----- ------------  ---------------      ----- ------------  ---------------
   258     -1.900787   9 C  py              260     -1.872887   9 C  px        
   315     -1.809187  11 C  s               106      1.792960   4 C  py        
   517     -1.735472  24 C  s               113     -1.720092   4 C  d -2      
   190     -1.588006   7 C  s               261      1.592906   9 C  py        
   268      1.588354   9 C  d -2            103     -1.569603   4 C  py        
 
 Vector  604  Occ=0.000000D+00  E= 2.276928D+01
              MO Center=  1.6D+00,  2.0D-01, -5.0D-01, r^2= 7.1D+00
   Bfn.  Coefficient  Atom+Function         Bfn.  Coefficient  Atom+Function  
  ----- ------------  ---------------      ----- ------------  ---------------
   190      3.026978   7 C  s               191     -2.150273   7 C  s         
   314     -1.932931  11 C  s               105     -1.885945   4 C  px        
   159     -1.799233   6 C  s                35      1.680391   2 C  s         
   283     -1.632022  10 C  s               189     -1.616942   7 C  s         
   128      1.494344   5 C  s               222      1.351115   8 C  s         
 
 Vector  605  Occ=0.000000D+00  E= 2.286688D+01
              MO Center=  5.7D+00,  7.0D-01,  2.4D-01, r^2= 2.7D+00
   Bfn.  Coefficient  Atom+Function         Bfn.  Coefficient  Atom+Function  
  ----- ------------  ---------------      ----- ------------  ---------------
   344      1.880159  12 C  s               315      1.866574  11 C  s         
   352      1.693478  12 C  pz              343     -1.678175  12 C  s         
   407     -1.560817  14 O  s               342      1.255774  12 C  s         
   191     -1.196875   7 C  s               226      1.017250   8 C  px        
   319      1.001029  11 C  px              414      0.903009  14 O  pz        
 
 Vector  606  Occ=0.000000D+00  E= 2.326048D+01
              MO Center=  1.8D+00,  2.7D-01, -6.0D-01, r^2= 2.1D+00
   Bfn.  Coefficient  Atom+Function         Bfn.  Coefficient  Atom+Function  
  ----- ------------  ---------------      ----- ------------  ---------------
   252     -7.312279   9 C  s                97      7.259385   4 C  s         
   221      4.147444   8 C  s                66     -3.765107   3 C  s         
   128     -3.372670   5 C  s               517      3.081116  24 C  s         
   190     -3.026989   7 C  s                96     -2.674847   4 C  s         
   251      2.640065   9 C  s               226     -2.260768   8 C  px        
 
 Vector  607  Occ=0.000000D+00  E= 4.335911D+01
              MO Center=  6.6D+00, -3.6D-01,  5.3D-01, r^2= 5.7D-01
   Bfn.  Coefficient  Atom+Function         Bfn.  Coefficient  Atom+Function  
  ----- ------------  ---------------      ----- ------------  ---------------
   376      2.453309  13 O  s               315      1.881887  11 C  s         
   375     -1.776290  13 O  s               374      1.646037  13 O  s         
   373     -1.327653  13 O  s               377     -1.143018  13 O  s         
   222     -1.105664   8 C  s               314     -1.033272  11 C  s         
   191     -1.008479   7 C  s               198     -0.972941   7 C  px        
 
 Vector  608  Occ=0.000000D+00  E= 4.344990D+01
              MO Center=  6.6D+00,  1.3D+00,  1.4D+00, r^2= 5.7D-01
   Bfn.  Coefficient  Atom+Function         Bfn.  Coefficient  Atom+Function  
  ----- ------------  ---------------      ----- ------------  ---------------
   407      2.684628  14 O  s               406     -1.782086  14 O  s         
   405      1.647539  14 O  s               404     -1.327943  14 O  s         
   408     -1.261353  14 O  s               376     -0.999569  13 O  s         
   315      0.954446  11 C  s               191     -0.943067   7 C  s         
   352     -0.822719  12 C  pz              222      0.770040   8 C  s         
 
 Vector  609  Occ=0.000000D+00  E= 4.376436D+01
              MO Center= -2.0D+00, -7.2D-01, -4.6D-01, r^2= 1.5D-01
   Bfn.  Coefficient  Atom+Function         Bfn.  Coefficient  Atom+Function  
  ----- ------------  ---------------      ----- ------------  ---------------
     4      3.190649   1 O  s                 3     -2.084137   1 O  s         
     2      1.752711   1 O  s                 1     -1.399105   1 O  s         
    43     -1.148008   2 C  px               71      1.118350   3 C  px        
    40      1.056279   2 C  px              102      1.053399   4 C  px        
    97     -0.968326   4 C  s               284      0.881327  10 C  s         
 

 center of mass
 --------------
 x =   4.96602815 y =   0.34320320 z =  -0.79188851

 moments of inertia (a.u.)
 ------------------
        1939.139340714578       -1782.612529416758        -506.138412983429
       -1782.612529416758        8332.243908609067        -128.906481822042
        -506.138412983429        -128.906481822042        9297.140435378833
 
     Multipole analysis of the density
     ---------------------------------
 
     L   x y z        total         alpha         beta         nuclear
     -   - - -        -----         -----         ----         -------
     0   0 0 0     -0.000000    -61.000000    -61.000000    122.000000
 
     1   1 0 0     -0.568722   -301.763744   -301.763744    602.958766
     1   0 1 0     -1.018032    -19.380600    -19.380600     37.743168
     1   0 0 1     -0.541283     50.885211     50.885211   -102.311706
 
     2   2 0 0    -74.230683  -3656.997436  -3656.997436   7239.764188
     2   1 1 0     -3.727521   -587.105062   -587.105062   1170.482604
     2   1 0 1     -5.635103    135.036442    135.036442   -275.707988
     2   0 2 0    -68.528184   -459.546003   -459.546003    850.563821
     2   0 1 1     -2.860476    -16.961013    -16.961013     31.061550
     2   0 0 2    -77.876128   -219.153473   -219.153473    360.430817
 
 *** CALLING NEW AORESP DRIVER FOR CLOSED AND OPEN SHELLS ***
 Entering AOResponse driver routine


--------------------------------------------------------------------------------

          ****************
          *** RESPONSE ***
          ****************

 Response module for NWChem and dynamic CPKS solver
 developed by J. Autschbach and coworkers, SUNY Buffalo
 The methodology used in this program is described in 
 ChemPhysChem 12 (2011), 3224-3235 (main reference)
 J. Chem. Phys. 123 (2005), 114103
 J. Chem. Phys. 122 (2005), 224115
 J. Chem. Phys. 122 (2005), 074105
 Comp. Lett. 3 (2007), 131-150 (contact JA for a copy)
 Please cite this work in publications based on results
 obtained with this code. Thank you!

 For extension of response module to open shell
 calculations please acknowledge:
 F. Aquino, Northwestern University, Schatz Rsrch Group
 The update to the methodology is described in
 J. Phys. Chem. A 118 (2014) 517-525



          -----------------------------------------------
          Solving response equations for perturbing field
          -----------------------------------------------

 number of frequencies:     1
 frequency in a.u.:  0.1280230E+00
 Perturbing field: electric
 Using GIAO formalism for OptRot
 Adding quadrupole terms to OptRot
 to create an origin in dependent tensor.
 Using El. Dipole Length Gauge
 
 Applying DAMPING constant of  0.003700 a.u.
 
 Setting up CPKS
 with frequency omega =      0.12802300 a.u.
 and a damping of            0.00370000 a.u.

 
                            NWChem Dynamic CPHF Module
                            --------------------------
 
 
    scftype = RHF 
    nclosed =   61
      nopen =    0
  variables =   133712
  num. vecs =        3
  tolerance =   1.0D-07
  max. iter =  100

 Grid integrated density:     122.000001784062
 Requested integration accuracy:   0.10E-07
 SCF residual:   1.781127967835011E-004


Iterative solution of linear equations
  No. of variables    66856
  No. of equations        3
  Maximum subspace       99
       Convergence  1.0D-07
        Start time   1367.6


   iter   nsub   residual    time 
   ----  ------  --------  --------- 
 dft_CPHF2_read: failed to open./naproxen_355.9_137.inp.aoresp_fiao_f1
     1      3    9.17D+01    1725.6
     2      6    2.93D+01    2086.9
     3      9    7.38D+00    2448.3
     4     12    2.13D+00    2807.7
     5     15    4.39D-01    3166.7
     6     18    2.65D-01    3524.7
     7     21    1.37D-01    3886.0
     8     24    1.69D-02    4245.0
     9     27    2.67D-03    4604.3
    10     30    9.97D-04    4963.3
    11     33    6.30D-04    5322.6
    12     36    7.42D-05    5686.4
    13     39    7.22D-06    6047.6
    14     42    2.54D-06    6409.2
    15     45    6.86D-07    6771.7
    16     48    2.08D-07    7133.8
    17     51    1.48D-07    7495.7
    18     54    1.47D-07    7857.3
    19     57    1.15D-07    8218.8
    20     60    5.32D-08    8579.2

 Calculating some arrays needed for GIAO optical rotation

    0 giaofock schwarz done =      49.26%
    0 giaofock schwarz done =      49.26%
 Grid integrated density:     122.000001784275
 Requested integration accuracy:   0.10E-07
 aor_r1_tensor_giao: roadata output requested
 dip-quad polarizability Re:

              1        2        3        4        5        6      
    1 3352.2699 239.4326-347.5839 -45.6062 -92.9948 142.0491
    2  437.5671 907.5590 -54.3346 134.4552-216.3912   6.0874
    3  119.3617  33.2507 735.8274  15.4726  34.4344-268.9698
 traceless dip-quad polarizability:

              1        2        3      
    1 3304.0485 359.1489-521.3759
    2  359.1489*********-139.4922
    3 -521.3759-139.4922*********

              1        2        3      
    1  367.29581361.3384 -81.5020
    2 1361.3384 -87.3721-324.5868
    3  -81.5020-324.5868-279.9238

              1        2        3      
    1  246.1103  49.87611103.7411
    2   49.8761  90.2767  51.6517
    3 1103.7411  51.6517-336.3869

 roa begin

 alpha real:
 XX       0.4111528348905E+03
 XY       0.7837600759287E+02
 XZ       0.3637626903337E+01
 YX       0.7837600796705E+02
 YY       0.2221044232882E+03
 YZ       0.8227519186234E+01
 ZX       0.3637627069868E+01
 ZY       0.8227519126414E+01
 ZZ       0.1250714697310E+03

 alpha im:
 XX       0.4795941348637E+02
 XY       0.6480807180388E+02
 XZ       0.8045240695992E+01
 YX       0.6480807263849E+02
 YY       0.1438636144843E+03
 YZ       0.1735717452577E+02
 ZX       0.8045240751171E+01
 ZY       0.1735717464076E+02
 ZZ       0.2671672406415E+01

 beta real:
 XX      -0.5323530498278E+01
 XY       0.3941516484545E+02
 XZ       0.1321792987160E+02
 YX      -0.1462232082916E+02
 YY       0.7948053618269E+01
 YZ      -0.5364582906906E+02
 ZX      -0.3564495307181E+01
 ZY       0.4477609598328E+02
 ZZ      -0.6711510220662E+00

 G-prime = -omega beta(real):
 XX      -0.5323530498278E+01
 XY       0.3941516484545E+02
 XZ       0.1321792987160E+02
 YX      -0.1462232082916E+02
 YY       0.7948053618269E+01
 YZ      -0.5364582906906E+02
 ZX      -0.3564495307181E+01
 ZY       0.4477609598328E+02
 ZZ      -0.6711510220662E+00

 beta im:
 XX      -0.5358612155510E+01
 XY       0.9909718988816E+01
 XZ      -0.1386984613674E+02
 YX      -0.1231234077684E+02
 YY       0.1559060432516E+02
 YZ      -0.3981533968843E+02
 ZX      -0.1513556832863E+01
 ZY       0.2541765998873E+01
 ZZ      -0.4647647287762E+01

 G-prime = -omega beta(imag):
 XX      -0.5358612155510E+01
 XY       0.9909718988816E+01
 XZ      -0.1386984613674E+02
 YX      -0.1231234077684E+02
 YY       0.1559060432516E+02
 YZ      -0.3981533968843E+02
 ZX      -0.1513556832863E+01
 ZY       0.2541765998873E+01
 ZZ      -0.4647647287762E+01

 dipole-quadrupole real (Cartesian):
 XXX      0.3352269930065E+04
 XXY      0.2394326135643E+03
 XXZ     -0.3475839155651E+03
 XYY     -0.4560618125021E+02
 XYZ     -0.9299477192399E+02
 XZZ      0.1420491222849E+03
 YXX      0.4375671364332E+03
 YXY      0.9075589512354E+03
 YXZ     -0.5433463890532E+02
 YYY      0.1344552054652E+03
 YYZ     -0.2163912231312E+03
 YZZ      0.6087381528825E+01
 ZXX      0.1193616568818E+03
 ZXY      0.3325074216189E+02
 ZXZ      0.7358274248898E+03
 ZYY      0.1547262128982E+02
 ZYZ      0.3443444611134E+02
 ZZZ     -0.2689698084853E+03

 dipole-quadrupole imag (Cartesian):
 XXX      0.4102019874785E+03
 XXY      0.1342180481902E+03
 XXZ     -0.6143833026300E+01
 XYY     -0.1186475844209E+01
 XYZ     -0.7279818674760E+02
 XZZ      0.1972917724666E+02
 YXX      0.5335527438152E+03
 YXY      0.2769244260190E+03
 YXZ      0.7175186999220E+01
 YYY      0.3045227985395E+01
 YYZ     -0.1610766758104E+03
 YZZ      0.1988190155123E+02
 ZXX      0.6912467746696E+02
 ZXY      0.3352185044077E+02
 ZXZ      0.4839651982962E+01
 ZYY      0.3195236425275E+00
 ZYZ     -0.1946396615797E+02
 ZZZ      0.1565792908113E+01

 dipole-quadrupole (traceless):
 XXX      0.3304048459547E+04
 XXY      0.3591489203464E+03
 XXZ     -0.5213758733476E+03
 XYY     -0.1792765707425E+04
 XYZ     -0.1394921578860E+03
 XZZ     -0.1511282752122E+04
 YXX      0.3672958429361E+03
 YXY      0.1361338426853E+04
 YXZ     -0.8150195835798E+02
 YYY     -0.8737205351576E+02
 YYZ     -0.3245868346968E+03
 YZZ     -0.2799237894204E+03
 ZXX      0.2461102504795E+03
 ZXY      0.4987611324284E+02
 ZXZ      0.1103741137335E+04
 ZYY      0.9027669709157E+02
 ZYZ      0.5165166916700E+02
 ZZZ     -0.3363869475711E+03

 roa end


 Electric Dipole Response Matrix (nonzero elements):

              1        2        3      
    1  411.1528  78.3760   3.6376
    2   78.3760 222.1044   8.2275
    3    3.6376   8.2275 125.0715
 
 Imaginary part:

              1        2        3      
    1   47.9594  64.8081   8.0452
    2   64.8081 143.8636  17.3572
    3    8.0452  17.3572   2.6717

 ------------------------------------------
 average:       252.77624 + I      64.83157


 DFT Linear Response polarizability / au 
 Frequency  =       0.1280230 / au
 Wavelength =     355.8997446 / nm
              X              Y              Z
 -----------------------------------------------
 X     411.1528349     78.3760076      3.6376269
 Y      78.3760080    222.1044233      8.2275192
 Z       3.6376271      8.2275191    125.0714697
 -----------------------------------------------
 Eigenvalues =     439.5424314    194.4462976    124.3399989
 Isotropic   =     252.7762426
 Anisotropic =     234.0509783
 -----------------------------------------------
 *************************

 DFT Linear Response IMAG polarizability / au 
 Frequency  =       0.1280230 / au
 Wavelength =     355.8997446 / nm
              X              Y              Z
 -----------------------------------------------
 X      47.9594135     64.8080718      8.0452407
 Y      64.8080726    143.8636145     17.3571745
 Z       8.0452408     17.3571746      2.6716724
 -----------------------------------------------
 Eigenvalues =      15.3185856    178.6089841      0.5671307
 Isotropic   =      64.8315668
 Anisotropic =     139.7381614
 -----------------------------------------------
 *************************

 Magnetic Dipole Response Matrix (nonzero elements):
 Optical rotation tensor Beta
 (Buckingham-Dunn version including dipole-quadrupole terms)

              1        2        3      
    1   -2.2101 -38.0592 -94.3224
    2  -38.0592   1.0397 -55.2055
    3  -94.3224 -55.2055 -14.0876
 
 Imaginary part:

              1        2        3      
    1   41.8566 -77.4058 108.3387
    2   96.1729-121.7797 311.0015
    3   11.8225 -19.8540  36.3032

 ------------------------------------------
 average:        -5.08599 + I     -14.53995

 Principal components and PAS (Real part)
               -135.06065
                 87.94086
                 31.86181
 ------------------------
 average:        -5.08599

              1        2        3      
    1    0.6004   0.6821  -0.4175
    2    0.4390   0.1552   0.8850
    3    0.6684  -0.7146  -0.2063

 Chiral response tensor (Real part):

              1        2        3      
    1   -6.5239  19.0296  47.1612
    2   19.0296  -8.1489  27.6028
    3   47.1612  27.6028  -0.5852
 
 Principal components and PAS (Real part)
                 59.90134
                -51.59942
                -23.55989
 ------------------------
 average:        -5.08599

              1        2        3      
    1    0.6004   0.6821  -0.4175
    2    0.4390   0.1552   0.8850
    3    0.6684  -0.7146  -0.2063
 Exiting AOResponse driver routine

 Task  times  cpu:     8656.7s     wall:     9049.8s
 
 
                                NWChem Input Module
                                -------------------
 
 
 Summary of allocated global arrays
-----------------------------------
  No active global arrays



                         GA Statistics for process    0
                         ------------------------------

       create   destroy   get      put      acc     scatter   gather  read&inc
calls: 9129     9129     2.93e+08 5.29e+07 8.82e+06 8310        0     2938     
number of processes/call 1.00e+00 1.01e+00 1.20e+00 0.00e+00 0.00e+00
bytes total:             4.55e+10 1.99e+09 4.54e+10 0.00e+00 0.00e+00 2.35e+04
bytes remote:            1.75e+10 6.21e+08 2.00e+10 -4.48e+02 0.00e+00 0.00e+00
Max memory consumed for GA by this process: 128676136 bytes
 
MA_summarize_allocated_blocks: starting scan ...
MA_summarize_allocated_blocks: scan completed: 0 heap blocks, 0 stack blocks
MA usage statistics:

	allocation statistics:
					      heap	     stack
					      ----	     -----
	current number of blocks	         0	         0
	maximum number of blocks	        24	        52
	current total bytes		         0	         0
	maximum total bytes		  15665040	 110786328
	maximum total K-bytes		     15666	    110787
	maximum total M-bytes		        16	       111
 
 
                                     CITATION
                                     --------
                Please cite the following reference when publishing
                           results obtained with NWChem:
 
                 M. Valiev, E.J. Bylaska, N. Govind, K. Kowalski,
              T.P. Straatsma, H.J.J. van Dam, D. Wang, J. Nieplocha,
                        E. Apra, T.L. Windus, W.A. de Jong
                 "NWChem: a comprehensive and scalable open-source
                  solution for large scale molecular simulations"
                      Comput. Phys. Commun. 181, 1477 (2010)
                           doi:10.1016/j.cpc.2010.04.018
 
                                      AUTHORS
                                      -------
          E. Apra, E. J. Bylaska, W. A. de Jong, N. Govind, K. Kowalski,
       T. P. Straatsma, M. Valiev, H. J. J. van Dam, D. Wang, T. L. Windus,
        J. Hammond, J. Autschbach, K. Bhaskaran-Nair, J. Brabec, K. Lopata,
    S. A. Fischer, S. Krishnamoorthy, M. Jacquelin, W. Ma, M. Klemm, O. Villa,
      Y. Chen, V. Anisimov, F. Aquino, S. Hirata, M. T. Hackler, V. Konjkov,
            D. Mejia-Rodriguez, T. Risthaus, M. Malagoli, A. Marenich,
   A. Otero-de-la-Roza, J. Mullin, P. Nichols, R. Peverati, J. Pittner, Y. Zhao,
        P.-D. Fan, A. Fonari, M. J. Williamson, R. J. Harrison, J. R. Rehr,
      M. Dupuis, D. Silverstein, D. M. A. Smith, J. Nieplocha, V. Tipparaju,
    M. Krishnan, B. E. Van Kuiken, A. Vazquez-Mayagoitia, L. Jensen, M. Swart,
      Q. Wu, T. Van Voorhis, A. A. Auer, M. Nooijen, L. D. Crosby, E. Brown,
      G. Cisneros, G. I. Fann, H. Fruchtl, J. Garza, K. Hirao, R. A. Kendall,
      J. A. Nichols, K. Tsemekhman, K. Wolinski, J. Anchell, D. E. Bernholdt,
      P. Borowski, T. Clark, D. Clerc, H. Dachsel, M. J. O. Deegan, K. Dyall,
    D. Elwood, E. Glendening, M. Gutowski, A. C. Hess, J. Jaffe, B. G. Johnson,
     J. Ju, R. Kobayashi, R. Kutteh, Z. Lin, R. Littlefield, X. Long, B. Meng,
      T. Nakajima, S. Niu, L. Pollack, M. Rosing, K. Glaesemann, G. Sandrone,
      M. Stave, H. Taylor, G. Thomas, J. H. van Lenthe, A. T. Wong, Z. Zhang.

 Total times  cpu:     9760.0s     wall:    10162.3s
