 argument  1 = naproxen_355.9_051.inp
 


============================== echo of input deck ==============================
echo
start naproxen_355.9_051.inp
title "naproxen roa calculations at 355.9 nm"
charge 0



geometry units angstrom nocenter noautoz noautosym nucleus point;symmetry c1
 O -2.050964 -0.721118 -0.456005
 C -0.675672 -0.645118 -0.540802
 C -0.121861  0.623135 -0.436983
 C  1.283429  0.817147 -0.510306
 C  1.888849  2.097815 -0.404975
 C  3.258546  2.244980 -0.480334
 C  4.118092  1.125273 -0.672214
 C  3.548782 -0.137490 -0.772435
 C  2.144123 -0.326576 -0.697276
 C  0.170789 -1.779581 -0.724421
 C  5.634838  1.350029 -0.764227
 C  6.329650  0.808532  0.491183
 O  6.541193 -0.551003  0.437006
 O  6.660278  1.475797  1.451863
 C  6.258425  0.813913 -2.075185
 H  5.807020  2.431802 -0.712453
 H  5.783405  1.303256 -2.934494
 H  6.119228 -0.267592 -2.174401
 H  7.335820  1.022728 -2.110515
 H  6.954058 -0.792344  1.293705
 H  1.252431  2.970777 -0.260938
 H  3.691599  3.241187 -0.390907
 H  4.175454 -1.019490 -0.901842
 C  1.539835 -1.613257 -0.799077
 H -0.243603 -2.780832 -0.807523
 H  2.170595 -2.491490 -0.939743
 H -0.793120  1.469706 -0.296065
 C -2.676999 -2.009911 -0.553564
 H -2.370838 -2.684814  0.260140
 H -2.494334 -2.489626 -1.527166
 H -3.745406 -1.794370 -0.456216
end

basis spherical
* library def2-TZVP
end

 set prop:newaoresp 1
 set aor:roadata T
 set cphf:maxsub 100
 set cphf:acc 1.0d-10
 set cphf:maxiter 100

property
    response 1   0.128023
    bdtensor
    convergence 1e-7
    damping 0.0037
    giao
end

dft
 direct
 mult 1
 xc becke88 lyp
 iterations 250
 tolerances tight
 grid xfine
 convergence nolevelshifting
 convergence energy 1e-6
 convergence gradient 1e-6


end

task dft gradient
task dft property
================================================================================


                                         
                                         
 
 
              Northwest Computational Chemistry Package (NWChem) 6.8
              ------------------------------------------------------
 
 
                    Environmental Molecular Sciences Laboratory
                       Pacific Northwest National Laboratory
                                Richland, WA 99352
 
                              Copyright (c) 1994-2017
                       Pacific Northwest National Laboratory
                            Battelle Memorial Institute
 
             NWChem is an open-source computational chemistry package
                        distributed under the terms of the
                      Educational Community License (ECL) 2.0
             A copy of the license is included with this distribution
                              in the LICENSE.TXT file
 
                                  ACKNOWLEDGMENT
                                  --------------

            This software and its documentation were developed at the
            EMSL at Pacific Northwest National Laboratory, a multiprogram
            national laboratory, operated for the U.S. Department of Energy
            by Battelle under Contract Number DE-AC05-76RL01830. Support
            for this work was provided by the Department of Energy Office
            of Biological and Environmental Research, Office of Basic
            Energy Sciences, and the Office of Advanced Scientific Computing.


           Job information
           ---------------

    hostname        = cpn-f11-05.cbls.ccr.buffalo.edu
    program         = /util/academic/nwchem/nwchem-6.8/bin/LINUX64/nwchem
    date            = Tue Feb 26 18:42:49 2019

    compiled        = Tue_Nov_06_14:59:08_2018
    source          = /util/academic/nwchem/nwchem-6.8
    nwchem branch   = 6.8
    nwchem revision = v6.8-47-gdf6c956
    ga revision     = ga-5.6.3
    use scalapack   = F
    input           = naproxen_355.9_051.inp
    prefix          = naproxen_355.9_051.inp.
    data base       = ./naproxen_355.9_051.inp.db
    status          = startup
    nproc           =       11
    time left       =     -1s



           Memory information
           ------------------

    heap     =   13107194 doubles =    100.0 Mbytes
    stack    =   13107199 doubles =    100.0 Mbytes
    global   =   26214400 doubles =    200.0 Mbytes (distinct from heap & stack)
    total    =   52428793 doubles =    400.0 Mbytes
    verify   = yes
    hardfail = no 


           Directory information
           ---------------------
 
  0 permanent = .
  0 scratch   = .
 
 
 
 
                                NWChem Input Module
                                -------------------
 
 
                       naproxen roa calculations at 355.9 nm
                       -------------------------------------

 Scaling coordinates for geometry "geometry" by  1.889725989
 (inverse scale =  0.529177249)

 
 
                             Geometry "geometry" -> ""
                             -------------------------
 
 Output coordinates in angstroms (scale by  1.889725989 to convert to a.u.)
 
  No.       Tag          Charge          X              Y              Z
 ---- ---------------- ---------- -------------- -------------- --------------
    1 O                    8.0000    -2.05096400    -0.72111800    -0.45600500
    2 C                    6.0000    -0.67567200    -0.64511800    -0.54080200
    3 C                    6.0000    -0.12186100     0.62313500    -0.43698300
    4 C                    6.0000     1.28342900     0.81714700    -0.51030600
    5 C                    6.0000     1.88884900     2.09781500    -0.40497500
    6 C                    6.0000     3.25854600     2.24498000    -0.48033400
    7 C                    6.0000     4.11809200     1.12527300    -0.67221400
    8 C                    6.0000     3.54878200    -0.13749000    -0.77243500
    9 C                    6.0000     2.14412300    -0.32657600    -0.69727600
   10 C                    6.0000     0.17078900    -1.77958100    -0.72442100
   11 C                    6.0000     5.63483800     1.35002900    -0.76422700
   12 C                    6.0000     6.32965000     0.80853200     0.49118300
   13 O                    8.0000     6.54119300    -0.55100300     0.43700600
   14 O                    8.0000     6.66027800     1.47579700     1.45186300
   15 C                    6.0000     6.25842500     0.81391300    -2.07518500
   16 H                    1.0000     5.80702000     2.43180200    -0.71245300
   17 H                    1.0000     5.78340500     1.30325600    -2.93449400
   18 H                    1.0000     6.11922800    -0.26759200    -2.17440100
   19 H                    1.0000     7.33582000     1.02272800    -2.11051500
   20 H                    1.0000     6.95405800    -0.79234400     1.29370500
   21 H                    1.0000     1.25243100     2.97077700    -0.26093800
   22 H                    1.0000     3.69159900     3.24118700    -0.39090700
   23 H                    1.0000     4.17545400    -1.01949000    -0.90184200
   24 C                    6.0000     1.53983500    -1.61325700    -0.79907700
   25 H                    1.0000    -0.24360300    -2.78083200    -0.80752300
   26 H                    1.0000     2.17059500    -2.49149000    -0.93974300
   27 H                    1.0000    -0.79312000     1.46970600    -0.29606500
   28 C                    6.0000    -2.67699900    -2.00991100    -0.55356400
   29 H                    1.0000    -2.37083800    -2.68481400     0.26014000
   30 H                    1.0000    -2.49433400    -2.48962600    -1.52716600
   31 H                    1.0000    -3.74540600    -1.79437000    -0.45621600
 
      Atomic Mass 
      ----------- 
 
      O                 15.994910
      C                 12.000000
      H                  1.007825
 

 Effective nuclear repulsion energy (a.u.)    1120.9372421037

            Nuclear Dipole moment (a.u.) 
            ----------------------------
        X                 Y               Z
 ---------------- ---------------- ----------------
   602.9195729845    37.7220525594  -102.3082570204
 
 
            XYZ format geometry
            -------------------
    31
 geometry
 O                    -2.05096400    -0.72111800    -0.45600500
 C                    -0.67567200    -0.64511800    -0.54080200
 C                    -0.12186100     0.62313500    -0.43698300
 C                     1.28342900     0.81714700    -0.51030600
 C                     1.88884900     2.09781500    -0.40497500
 C                     3.25854600     2.24498000    -0.48033400
 C                     4.11809200     1.12527300    -0.67221400
 C                     3.54878200    -0.13749000    -0.77243500
 C                     2.14412300    -0.32657600    -0.69727600
 C                     0.17078900    -1.77958100    -0.72442100
 C                     5.63483800     1.35002900    -0.76422700
 C                     6.32965000     0.80853200     0.49118300
 O                     6.54119300    -0.55100300     0.43700600
 O                     6.66027800     1.47579700     1.45186300
 C                     6.25842500     0.81391300    -2.07518500
 H                     5.80702000     2.43180200    -0.71245300
 H                     5.78340500     1.30325600    -2.93449400
 H                     6.11922800    -0.26759200    -2.17440100
 H                     7.33582000     1.02272800    -2.11051500
 H                     6.95405800    -0.79234400     1.29370500
 H                     1.25243100     2.97077700    -0.26093800
 H                     3.69159900     3.24118700    -0.39090700
 H                     4.17545400    -1.01949000    -0.90184200
 C                     1.53983500    -1.61325700    -0.79907700
 H                    -0.24360300    -2.78083200    -0.80752300
 H                     2.17059500    -2.49149000    -0.93974300
 H                    -0.79312000     1.46970600    -0.29606500
 C                    -2.67699900    -2.00991100    -0.55356400
 H                    -2.37083800    -2.68481400     0.26014000
 H                    -2.49433400    -2.48962600    -1.52716600
 H                    -3.74540600    -1.79437000    -0.45621600
 
 ==============================================================================
                                internuclear distances
 ------------------------------------------------------------------------------
       center one      |      center two      | atomic units |  angstroms
 ------------------------------------------------------------------------------
    2 C                |   1 O                |     2.60782  |     1.38000
    3 C                |   2 C                |     2.62254  |     1.38779
    4 C                |   3 C                |     2.68438  |     1.42051
    5 C                |   4 C                |     2.68430  |     1.42047
    6 C                |   5 C                |     2.60714  |     1.37964
    7 C                |   6 C                |     2.69203  |     1.42456
    8 C                |   7 C                |     2.62443  |     1.38879
    9 C                |   4 C                |     2.72793  |     1.44356
    9 C                |   8 C                |     2.68213  |     1.41932
   10 C                |   2 C                |     2.69723  |     1.42731
   11 C                |   7 C                |     2.90274  |     1.53607
   12 C                |  11 C                |     2.89815  |     1.53364
   13 O                |  12 C                |     2.60208  |     1.37696
   14 O                |  12 C                |     2.29698  |     1.21551
   15 C                |  11 C                |     2.92443  |     1.54754
   16 H                |  11 C                |     2.07230  |     1.09661
   17 H                |  15 C                |     2.07312  |     1.09705
   18 H                |  15 C                |     2.06912  |     1.09493
   19 H                |  15 C                |     2.07494  |     1.09801
   20 H                |  13 O                |     1.85409  |     0.98114
   21 H                |   5 C                |     2.05957  |     1.08988
   22 H                |   6 C                |     2.05968  |     1.08994
   23 H                |   8 C                |     2.05918  |     1.08967
   24 C                |   9 C                |     2.69316  |     1.42516
   24 C                |  10 C                |     2.60996  |     1.38113
   25 H                |  10 C                |     2.05375  |     1.08680
   26 H                |  24 C                |     2.06053  |     1.09038
   27 H                |   3 C                |     2.05896  |     1.08955
   28 C                |   1 O                |     2.71386  |     1.43611
   29 H                |  28 C                |     2.07985  |     1.10061
   30 H                |  28 C                |     2.07990  |     1.10063
   31 H                |  28 C                |     2.06787  |     1.09427
 ------------------------------------------------------------------------------
                         number of included internuclear distances:         32
 ==============================================================================



 ==============================================================================
                                 internuclear angles
 ------------------------------------------------------------------------------
        center 1       |       center 2       |       center 3       |  degrees
 ------------------------------------------------------------------------------
    2 C                |   1 O                |  28 C                |   118.66
    1 O                |   2 C                |   3 C                |   116.32
    1 O                |   2 C                |  10 C                |   123.72
    3 C                |   2 C                |  10 C                |   119.96
    2 C                |   3 C                |   4 C                |   121.05
    2 C                |   3 C                |  27 H                |   118.29
    4 C                |   3 C                |  27 H                |   120.67
    3 C                |   4 C                |   5 C                |   122.75
    3 C                |   4 C                |   9 C                |   119.23
    5 C                |   4 C                |   9 C                |   118.02
    4 C                |   5 C                |   6 C                |   121.01
    4 C                |   5 C                |  21 H                |   118.89
    6 C                |   5 C                |  21 H                |   120.10
    5 C                |   6 C                |   7 C                |   121.50
    5 C                |   6 C                |  22 H                |   119.17
    7 C                |   6 C                |  22 H                |   119.32
    6 C                |   7 C                |   8 C                |   118.49
    6 C                |   7 C                |  11 C                |   119.26
    8 C                |   7 C                |  11 C                |   122.24
    7 C                |   8 C                |   9 C                |   121.53
    7 C                |   8 C                |  23 H                |   120.58
    9 C                |   8 C                |  23 H                |   117.88
    4 C                |   9 C                |   8 C                |   119.43
    4 C                |   9 C                |  24 C                |   118.15
    8 C                |   9 C                |  24 C                |   122.42
    2 C                |  10 C                |  24 C                |   119.94
    2 C                |  10 C                |  25 H                |   121.06
   24 C                |  10 C                |  25 H                |   119.00
    7 C                |  11 C                |  12 C                |   110.28
    7 C                |  11 C                |  15 C                |   113.45
    7 C                |  11 C                |  16 H                |   107.25
   12 C                |  11 C                |  15 C                |   112.87
   12 C                |  11 C                |  16 H                |   103.80
   15 C                |  11 C                |  16 H                |   108.57
   11 C                |  12 C                |  13 O                |   112.71
   11 C                |  12 C                |  14 O                |   125.20
   13 O                |  12 C                |  14 O                |   122.09
   12 C                |  13 O                |  20 H                |   105.85
   11 C                |  15 C                |  17 H                |   109.54
   11 C                |  15 C                |  18 H                |   111.57
   11 C                |  15 C                |  19 H                |   110.90
   17 H                |  15 C                |  18 H                |   108.33
   17 H                |  15 C                |  19 H                |   108.35
   18 H                |  15 C                |  19 H                |   108.04
    9 C                |  24 C                |  10 C                |   121.68
    9 C                |  24 C                |  26 H                |   119.41
   10 C                |  24 C                |  26 H                |   118.91
    1 O                |  28 C                |  29 H                |   112.26
    1 O                |  28 C                |  30 H                |   112.26
    1 O                |  28 C                |  31 H                |   104.05
   29 H                |  28 C                |  30 H                |   109.91
   29 H                |  28 C                |  31 H                |   109.06
   30 H                |  28 C                |  31 H                |   109.06
 ------------------------------------------------------------------------------
                            number of included internuclear angles:         53
 ==============================================================================



  warning:::::::::::::: from_environment
  NWCHEM_BASIS_LIBRARY set to: <
 /util/academic/nwchem/nwchem-6.8/src/basis/libraries>
  but file does not exist !
  using .nwchemrc or compiled library


 Summary of "ao basis" -> "" (spherical)
 ------------------------------------------------------------------------------
       Tag                 Description            Shells   Functions and Types
 ---------------- ------------------------------  ------  ---------------------
 *                         def2-TZVP                  on all atoms 


 
                                 NWChem DFT Module
                                 -----------------
 
 
                       naproxen roa calculations at 355.9 nm
 
 
                      Basis "ao basis" -> "ao basis" (spherical)
                      -----
  O (Oxygen)
  ----------
            Exponent  Coefficients 
       -------------- ---------------------------------------------------------
  1 S  2.70323826E+04  0.000217
  1 S  4.05238714E+03  0.001684
  1 S  9.22327227E+02  0.008740
  1 S  2.61240710E+02  0.035240
  1 S  8.53546414E+01  0.111535
  1 S  3.10350352E+01  0.255890
 
  2 S  1.22608607E+01  0.397687
  2 S  4.99870760E+00  0.246278
 
  3 S  1.17031082E+00  1.000000
 
  4 S  4.64747410E-01  1.000000
 
  5 S  1.85045364E-01  1.000000
 
  6 P  6.32749548E+01  0.006069
  6 P  1.46270494E+01  0.041913
  6 P  4.45012235E+00  0.161538
  6 P  1.52757996E+00  0.357070
 
  7 P  5.29351179E-01  1.000000
 
  8 P  1.74784213E-01  1.000000
 
  9 D  2.31400000E+00  1.000000
 
 10 D  6.45000000E-01  1.000000
 
 11 F  1.42800000E+00  1.000000
 
  C (Carbon)
  ----------
            Exponent  Coefficients 
       -------------- ---------------------------------------------------------
  1 S  1.35753497E+04  0.000222
  1 S  2.03523337E+03  0.001723
  1 S  4.63225624E+02  0.008926
  1 S  1.31200196E+02  0.035728
  1 S  4.28530159E+01  0.110763
  1 S  1.55841858E+01  0.242956
 
  2 S  6.20671385E+00  0.414403
  2 S  2.57648965E+00  0.237450
 
  3 S  5.76963394E-01  1.000000
 
  4 S  2.29728314E-01  1.000000
 
  5 S  9.51644400E-02  1.000000
 
  6 P  3.46972322E+01  0.005333
  6 P  7.95826228E+00  0.035864
  6 P  2.37808269E+00  0.142159
  6 P  8.14332082E-01  0.342705
 
  7 P  2.88875473E-01  1.000000
 
  8 P  1.00568237E-01  1.000000
 
  9 D  1.09700000E+00  1.000000
 
 10 D  3.18000000E-01  1.000000
 
 11 F  7.61000000E-01  1.000000
 
  H (Hydrogen)
  ------------
            Exponent  Coefficients 
       -------------- ---------------------------------------------------------
  1 S  3.40613410E+01  0.006025
  1 S  5.12357460E+00  0.045021
  1 S  1.16466260E+00  0.201897
 
  2 S  3.27230410E-01  1.000000
 
  3 S  1.03072410E-01  1.000000
 
  4 P  8.00000000E-01  1.000000
 


 Summary of "ao basis" -> "ao basis" (spherical)
 ------------------------------------------------------------------------------
       Tag                 Description            Shells   Functions and Types
 ---------------- ------------------------------  ------  ---------------------
 O                         def2-TZVP                11       31   5s3p2d1f
 C                         def2-TZVP                11       31   5s3p2d1f
 H                         def2-TZVP                 4        6   3s1p




 Summary of "ao basis" -> "ao basis" (spherical)
 ------------------------------------------------------------------------------
       Tag                 Description            Shells   Functions and Types
 ---------------- ------------------------------  ------  ---------------------
 O                         def2-TZVP                11       31   5s3p2d1f
 C                         def2-TZVP                11       31   5s3p2d1f
 H                         def2-TZVP                 4        6   3s1p


  Caching 1-el integrals 
 
            General Information
            -------------------
          SCF calculation type: DFT
          Wavefunction type:  closed shell.
          No. of atoms     :    31
          No. of electrons :   122
           Alpha electrons :    61
            Beta electrons :    61
          Charge           :     0
          Spin multiplicity:     1
          Use of symmetry is: off; symmetry adaption is: off
          Maximum number of iterations: 250
          This is a Direct SCF calculation.
          AO basis - number of functions:   611
                     number of shells:   243
          Convergence on energy requested:  1.00D-06
          Convergence on density requested:  1.00D-05
          Convergence on gradient requested:  1.00D-06
 
              XC Information
              --------------
                    Becke 1988 Exchange Functional  1.000          
              Lee-Yang-Parr Correlation Functional  1.000          
 
             Grid Information
             ----------------
          Grid used for XC integration:  xfine     
          Radial quadrature: Mura-Knowles        
          Angular quadrature: Lebedev. 
          Tag              B.-S. Rad. Rad. Pts. Rad. Cut. Ang. Pts.
          ---              ---------- --------- --------- ---------
          O                   0.60      100          18.0      1454
          C                   0.70      100          20.0      1454
          H                   0.35      100          19.0      1202
          Grid pruning is: on 
          Number of quadrature shells:  3100
          Spatial weights used:  Erf1
 
          Convergence Information
          -----------------------
          Convergence aids based upon iterative change in 
          total energy or number of iterations. 
          Levelshifting, if invoked, occurs when the 
          HOMO/LUMO gap drops below (HL_TOL):  1.00D-02
          DIIS, if invoked, will attempt to extrapolate 
          using up to (NFOCK): 10 stored Fock matrices.

                    Damping( 0%)  Levelshifting(0.0)       DIIS
                  --------------- ------------------- ---------------
          dE  on:    start             N/A                start   
          dE off:    2 iters           N/A              250 iters 

 
      Screening Tolerance Information
      -------------------------------
          Density screening/tol_rho:  1.00D-10
          AO Gaussian exp screening on grid/accAOfunc:  14
          CD Gaussian exp screening on grid/accCDfunc:  20
          XC Gaussian exp screening on grid/accXCfunc:  20
          Schwarz screening/accCoul:  1.00D-08

 
 WARNING : Found     2 linear dependencies 
 S eigenvalue threshold:     1.00000E-05
 Smallest S eigenvalue :     5.91243E-06
 Largest  S eigenvalue :     7.51668E-06
 

 !! The overlap matrix has   2 vectors deemed linearly dependent with
    eigenvalues:
 5.91D-06 7.52D-06
 
 
      Superposition of Atomic Density Guess
      -------------------------------------
 
 Sum of atomic energies:        -758.74884536
 
      Non-variational initial energy
      ------------------------------

 Total energy =    -769.921890
 1-e energy   =   -3254.412539
 2-e energy   =    1363.553407
 HOMO         =      -0.233376
 LUMO         =      -0.058808
 
   Time after variat. SCF:     46.8
   Time prior to 1st pass:     46.8

 Grid_pts file          = ./naproxen_355.9_051.inp.gridpts.00
 Record size in doubles =  12289        No. of grid_pts per rec  =   3070
 Max. records in memory =    148        Max. recs in file   =    580248

 Grid integrated density:     121.999614486283
 Requested integration accuracy:   0.10E-07

           Memory utilization after 1st SCF pass: 
           Heap Space remaining (MW):       11.15            11149714
          Stack Space remaining (MW):       13.10            13102884

   convergence    iter        energy       DeltaE   RMS-Dens  Diis-err    time
 ---------------- ----- ----------------- --------- --------- ---------  ------
 d= 0,ls=0.0,diis     1   -767.2400859616 -1.89D+03  5.47D-03  4.15D+00   111.0
 Grid integrated density:     122.000001744246
 Requested integration accuracy:   0.10E-07
 d= 0,ls=0.0,diis     2   -766.6573435747  5.83D-01  4.11D-03  9.93D+00   174.3
 Grid integrated density:     122.000001718653
 Requested integration accuracy:   0.10E-07
 d= 0,ls=0.0,diis     3   -767.4265117199 -7.69D-01  2.22D-03  2.19D+00   237.6
 Grid integrated density:     122.000001827363
 Requested integration accuracy:   0.10E-07
 d= 0,ls=0.0,diis     4   -767.5757908306 -1.49D-01  1.03D-03  5.81D-01   300.9
 Grid integrated density:     122.000001819285
 Requested integration accuracy:   0.10E-07
 d= 0,ls=0.0,diis     5   -767.6237388971 -4.79D-02  3.23D-04  5.00D-02   364.4
 Grid integrated density:     122.000001795829
 Requested integration accuracy:   0.10E-07
 d= 0,ls=0.0,diis     6   -767.6272710854 -3.53D-03  1.34D-04  1.18D-02   427.8
 Grid integrated density:     122.000001795593
 Requested integration accuracy:   0.10E-07
 d= 0,ls=0.0,diis     7   -767.6287214184 -1.45D-03  5.22D-05  1.50D-03   491.1
 Grid integrated density:     122.000001798743
 Requested integration accuracy:   0.10E-07
 d= 0,ls=0.0,diis     8   -767.6288978781 -1.76D-04  1.99D-05  1.86D-04   554.4
 Grid integrated density:     122.000001799195
 Requested integration accuracy:   0.10E-07
 d= 0,ls=0.0,diis     9   -767.6289214981 -2.36D-05  6.44D-06  1.78D-05   617.7
 Grid integrated density:     122.000001798878
 Requested integration accuracy:   0.10E-07
 d= 0,ls=0.0,diis    10   -767.6289234001 -1.90D-06  2.23D-06  2.48D-06   681.0
 Grid integrated density:     122.000001798835
 Requested integration accuracy:   0.10E-07
 d= 0,ls=0.0,diis    11   -767.6289236570 -2.57D-07  9.83D-07  4.45D-07   744.3


         Total DFT energy =     -767.628923657022
      One electron energy =    -3268.384125892550
           Coulomb energy =     1486.623402153643
    Exchange-Corr. energy =     -106.805442021833
 Nuclear repulsion energy =     1120.937242103718

 Numeric. integr. density =      122.000001798835

     Total iterative time =    697.5s


 
                       DFT Final Molecular Orbital Analysis
                       ------------------------------------
 
 Vector    1  Occ=2.000000D+00  E=-1.882018D+01
              MO Center=  6.5D+00, -5.5D-01,  4.4D-01, r^2= 1.5D-02
   Bfn.  Coefficient  Atom+Function         Bfn.  Coefficient  Atom+Function  
  ----- ------------  ---------------      ----- ------------  ---------------
   374      0.638456  13 O  s               373      0.435410  13 O  s         
   375      0.039863  13 O  s               376     -0.034328  13 O  s         
 
 Vector    2  Occ=2.000000D+00  E=-1.880750D+01
              MO Center= -2.1D+00, -7.2D-01, -4.6D-01, r^2= 1.5D-02
   Bfn.  Coefficient  Atom+Function         Bfn.  Coefficient  Atom+Function  
  ----- ------------  ---------------      ----- ------------  ---------------
     2      0.638265   1 O  s                 1      0.435458   1 O  s         
     3      0.041746   1 O  s                 4     -0.039610   1 O  s         
 
 Vector    3  Occ=2.000000D+00  E=-1.876358D+01
              MO Center=  6.7D+00,  1.5D+00,  1.5D+00, r^2= 1.5D-02
   Bfn.  Coefficient  Atom+Function         Bfn.  Coefficient  Atom+Function  
  ----- ------------  ---------------      ----- ------------  ---------------
   405      0.638440  14 O  s               404      0.435400  14 O  s         
   406      0.039994  14 O  s               407     -0.036666  14 O  s         
 
 Vector    4  Occ=2.000000D+00  E=-1.003463D+01
              MO Center=  6.3D+00,  8.1D-01,  4.9D-01, r^2= 2.8D-02
   Bfn.  Coefficient  Atom+Function         Bfn.  Coefficient  Atom+Function  
  ----- ------------  ---------------      ----- ------------  ---------------
   343      0.606443  12 C  s               342      0.467376  12 C  s         
   344      0.043259  12 C  s         
 
 Vector    5  Occ=2.000000D+00  E=-9.970871D+00
              MO Center= -6.8D-01, -6.5D-01, -5.4D-01, r^2= 2.8D-02
   Bfn.  Coefficient  Atom+Function         Bfn.  Coefficient  Atom+Function  
  ----- ------------  ---------------      ----- ------------  ---------------
    33      0.606516   2 C  s                32      0.467315   2 C  s         
    34      0.047508   2 C  s                35     -0.033713   2 C  s         
   106      0.026352   4 C  py              260     -0.025461   9 C  px        
   253      0.025093   9 C  s         
 
 Vector    6  Occ=2.000000D+00  E=-9.965544D+00
              MO Center= -2.7D+00, -2.0D+00, -5.5D-01, r^2= 2.8D-02
   Bfn.  Coefficient  Atom+Function         Bfn.  Coefficient  Atom+Function  
  ----- ------------  ---------------      ----- ------------  ---------------
   564      0.607001  28 C  s               563      0.467298  28 C  s         
   565      0.040048  28 C  s               567      0.027896  28 C  s         
 
 Vector    7  Occ=2.000000D+00  E=-9.935391D+00
              MO Center=  5.6D+00,  1.3D+00, -7.6D-01, r^2= 2.8D-02
   Bfn.  Coefficient  Atom+Function         Bfn.  Coefficient  Atom+Function  
  ----- ------------  ---------------      ----- ------------  ---------------
   312      0.606563  11 C  s               311      0.467315  11 C  s         
   315      0.092342  11 C  s               314     -0.051198  11 C  s         
   313      0.048510  11 C  s         
 
 Vector    8  Occ=2.000000D+00  E=-9.922541D+00
              MO Center=  4.1D+00,  1.1D+00, -6.7D-01, r^2= 3.0D-02
   Bfn.  Coefficient  Atom+Function         Bfn.  Coefficient  Atom+Function  
  ----- ------------  ---------------      ----- ------------  ---------------
   188      0.606178   7 C  s               187      0.467158   7 C  s         
   189      0.053652   7 C  s               190     -0.051775   7 C  s         
   191      0.043964   7 C  s               159      0.029548   6 C  s         
 
 Vector    9  Occ=2.000000D+00  E=-9.921450D+00
              MO Center=  1.3D+00,  8.2D-01, -5.1D-01, r^2= 3.2D-02
   Bfn.  Coefficient  Atom+Function         Bfn.  Coefficient  Atom+Function  
  ----- ------------  ---------------      ----- ------------  ---------------
    95      0.605810   4 C  s                94      0.466945   4 C  s         
    97     -0.061338   4 C  s                96      0.055714   4 C  s         
   252      0.054207   9 C  s                66      0.036784   3 C  s         
   128      0.032915   5 C  s               315      0.028880  11 C  s         
 
 Vector   10  Occ=2.000000D+00  E=-9.918614D+00
              MO Center=  2.1D+00, -3.3D-01, -7.0D-01, r^2= 4.1D-02
   Bfn.  Coefficient  Atom+Function         Bfn.  Coefficient  Atom+Function  
  ----- ------------  ---------------      ----- ------------  ---------------
   250      0.604193   9 C  s               249      0.465728   9 C  s         
   252     -0.062949   9 C  s                97      0.058200   4 C  s         
   251      0.056270   9 C  s               515      0.043876  24 C  s         
   221      0.038975   8 C  s               517      0.034957  24 C  s         
   514      0.033646  24 C  s         
 
 Vector   11  Occ=2.000000D+00  E=-9.916766D+00
              MO Center=  1.4D+00, -1.6D+00, -7.9D-01, r^2= 2.3D-01
   Bfn.  Coefficient  Atom+Function         Bfn.  Coefficient  Atom+Function  
  ----- ------------  ---------------      ----- ------------  ---------------
   515      0.569897  24 C  s               514      0.438909  24 C  s         
   281      0.203716  10 C  s               280      0.156722  10 C  s         
   516      0.043132  24 C  s               250     -0.042012   9 C  s         
   261     -0.034338   9 C  py              249     -0.032530   9 C  s         
   252      0.032505   9 C  s               253     -0.030473   9 C  s         
 
 Vector   12  Occ=2.000000D+00  E=-9.916107D+00
              MO Center=  3.3D-01, -1.8D+00, -7.3D-01, r^2= 2.2D-01
   Bfn.  Coefficient  Atom+Function         Bfn.  Coefficient  Atom+Function  
  ----- ------------  ---------------      ----- ------------  ---------------
   281      0.571464  10 C  s               280      0.440118  10 C  s         
   515     -0.203099  24 C  s               514     -0.156591  24 C  s         
   282      0.041651  10 C  s         
 
 Vector   13  Occ=2.000000D+00  E=-9.910966D+00
              MO Center=  3.2D+00,  2.2D+00, -4.8D-01, r^2= 6.3D-02
   Bfn.  Coefficient  Atom+Function         Bfn.  Coefficient  Atom+Function  
  ----- ------------  ---------------      ----- ------------  ---------------
   157      0.601939   6 C  s               156      0.463558   6 C  s         
   126      0.071693   5 C  s               125      0.055071   5 C  s         
   158      0.044613   6 C  s         
 
 Vector   14  Occ=2.000000D+00  E=-9.910669D+00
              MO Center=  3.5D+00, -1.3D-01, -7.7D-01, r^2= 3.8D-02
   Bfn.  Coefficient  Atom+Function         Bfn.  Coefficient  Atom+Function  
  ----- ------------  ---------------      ----- ------------  ---------------
   219      0.605822   8 C  s               218      0.466730   8 C  s         
   220      0.047554   8 C  s               315      0.032972  11 C  s         
   252      0.032689   9 C  s         
 
 Vector   15  Occ=2.000000D+00  E=-9.909152D+00
              MO Center=  1.9D+00,  2.1D+00, -4.1D-01, r^2= 5.5D-02
   Bfn.  Coefficient  Atom+Function         Bfn.  Coefficient  Atom+Function  
  ----- ------------  ---------------      ----- ------------  ---------------
   126      0.602285   5 C  s               125      0.463922   5 C  s         
   157     -0.071340   6 C  s               156     -0.055097   6 C  s         
   127      0.045486   5 C  s               106      0.033802   4 C  py        
    97      0.028908   4 C  s                98     -0.027466   4 C  s         
   260     -0.026863   9 C  px        
 
 Vector   16  Occ=2.000000D+00  E=-9.907769D+00
              MO Center=  6.3D+00,  8.1D-01, -2.1D+00, r^2= 2.8D-02
   Bfn.  Coefficient  Atom+Function         Bfn.  Coefficient  Atom+Function  
  ----- ------------  ---------------      ----- ------------  ---------------
   436      0.606867  15 C  s               435      0.467240  15 C  s         
   437      0.042023  15 C  s               439      0.036009  15 C  s         
   438     -0.027440  15 C  s         
 
 Vector   17  Occ=2.000000D+00  E=-9.905971D+00
              MO Center= -1.2D-01,  6.2D-01, -4.4D-01, r^2= 2.8D-02
   Bfn.  Coefficient  Atom+Function         Bfn.  Coefficient  Atom+Function  
  ----- ------------  ---------------      ----- ------------  ---------------
    64      0.606500   3 C  s                63      0.467191   3 C  s         
    65      0.046112   3 C  s               105     -0.033631   4 C  px        
    97      0.029582   4 C  s         
 
 Vector   18  Occ=2.000000D+00  E=-1.002385D+00
              MO Center=  6.6D+00,  2.1D-01,  7.5D-01, r^2= 1.1D+00
   Bfn.  Coefficient  Atom+Function         Bfn.  Coefficient  Atom+Function  
  ----- ------------  ---------------      ----- ------------  ---------------
   376      0.331145  13 O  s               375      0.252733  13 O  s         
   407      0.193970  14 O  s               344      0.189633  12 C  s         
   374     -0.173680  13 O  s               406      0.165575  14 O  s         
   345      0.146982  12 C  s               343     -0.117464  12 C  s         
   405     -0.112504  14 O  s               377      0.103803  13 O  s         
 
 Vector   19  Occ=2.000000D+00  E=-9.658668D-01
              MO Center= -1.9D+00, -8.9D-01, -4.9D-01, r^2= 6.9D-01
   Bfn.  Coefficient  Atom+Function         Bfn.  Coefficient  Atom+Function  
  ----- ------------  ---------------      ----- ------------  ---------------
     4      0.424423   1 O  s                 3      0.309848   1 O  s         
     2     -0.214865   1 O  s                 5      0.137355   1 O  s         
    34      0.125936   2 C  s               565      0.102651  28 C  s         
     1     -0.092360   1 O  s                35      0.089266   2 C  s         
    37     -0.079938   2 C  px              566      0.079158  28 C  s         
 
 Vector   20  Occ=2.000000D+00  E=-9.205337D-01
              MO Center=  6.6D+00,  7.1D-01,  9.7D-01, r^2= 1.3D+00
   Bfn.  Coefficient  Atom+Function         Bfn.  Coefficient  Atom+Function  
  ----- ------------  ---------------      ----- ------------  ---------------
   407      0.325141  14 O  s               376     -0.285033  13 O  s         
   406      0.268232  14 O  s               375     -0.208681  13 O  s         
   405     -0.179866  14 O  s               374      0.142677  13 O  s         
   348      0.137860  12 C  py              408      0.113470  14 O  s         
   377     -0.106631  13 O  s               349      0.105383  12 C  pz        
 
 Vector   21  Occ=2.000000D+00  E=-7.880995D-01
              MO Center=  2.0D+00,  3.4D-01, -6.1D-01, r^2= 3.9D+00
   Bfn.  Coefficient  Atom+Function         Bfn.  Coefficient  Atom+Function  
  ----- ------------  ---------------      ----- ------------  ---------------
   251      0.158050   9 C  s                96      0.155388   4 C  s         
   252      0.141338   9 C  s                97      0.138562   4 C  s         
   220      0.116588   8 C  s               189      0.110238   7 C  s         
   190      0.108342   7 C  s               127      0.106886   5 C  s         
   516      0.103769  24 C  s               250     -0.101949   9 C  s         
 
 Vector   22  Occ=2.000000D+00  E=-7.504309D-01
              MO Center=  2.8D+00,  3.6D-01, -6.7D-01, r^2= 8.3D+00
   Bfn.  Coefficient  Atom+Function         Bfn.  Coefficient  Atom+Function  
  ----- ------------  ---------------      ----- ------------  ---------------
   189      0.159524   7 C  s               190      0.159013   7 C  s         
   314      0.158854  11 C  s               313      0.138386  11 C  s         
   282     -0.120093  10 C  s                34     -0.112325   2 C  s         
    35     -0.109045   2 C  s               158      0.108469   6 C  s         
   283     -0.104257  10 C  s               188     -0.102954   7 C  s         
 
 Vector   23  Occ=2.000000D+00  E=-7.140931D-01
              MO Center=  3.4D+00,  6.8D-01, -7.4D-01, r^2= 9.4D+00
   Bfn.  Coefficient  Atom+Function         Bfn.  Coefficient  Atom+Function  
  ----- ------------  ---------------      ----- ------------  ---------------
   314      0.211079  11 C  s               313      0.169907  11 C  s         
   127     -0.142699   5 C  s               437      0.127984  15 C  s         
   128     -0.126417   5 C  s               438      0.121089  15 C  s         
   282      0.116695  10 C  s               312     -0.111375  11 C  s         
   283      0.107007  10 C  s                97     -0.099035   4 C  s         
 
 Vector   24  Occ=2.000000D+00  E=-6.948260D-01
              MO Center=  1.1D+00, -2.0D-01, -6.2D-01, r^2= 6.3D+00
   Bfn.  Coefficient  Atom+Function         Bfn.  Coefficient  Atom+Function  
  ----- ------------  ---------------      ----- ------------  ---------------
   252     -0.169147   9 C  s                65      0.157617   3 C  s         
   516     -0.154149  24 C  s               251     -0.137646   9 C  s         
    66      0.129141   3 C  s               220     -0.126833   8 C  s         
   517     -0.127258  24 C  s                35      0.124401   2 C  s         
    34      0.111080   2 C  s                97      0.106131   4 C  s         
 
 Vector   25  Occ=2.000000D+00  E=-6.620663D-01
              MO Center=  1.7D+00,  2.0D-01, -7.1D-01, r^2= 1.2D+01
   Bfn.  Coefficient  Atom+Function         Bfn.  Coefficient  Atom+Function  
  ----- ------------  ---------------      ----- ------------  ---------------
    97      0.167168   4 C  s                96      0.151249   4 C  s         
   566      0.147130  28 C  s               565      0.143869  28 C  s         
   190     -0.137946   7 C  s                35     -0.125840   2 C  s         
   158     -0.121894   6 C  s               189     -0.119354   7 C  s         
   438      0.119228  15 C  s               437      0.115579  15 C  s         
 
 Vector   26  Occ=2.000000D+00  E=-6.560609D-01
              MO Center=  1.2D+00, -2.1D-01, -6.2D-01, r^2= 8.1D+00
   Bfn.  Coefficient  Atom+Function         Bfn.  Coefficient  Atom+Function  
  ----- ------------  ---------------      ----- ------------  ---------------
   283      0.171758  10 C  s               282      0.161988  10 C  s         
   221     -0.152196   8 C  s               220     -0.151225   8 C  s         
   159      0.139940   6 C  s               158      0.138717   6 C  s         
   566      0.126765  28 C  s               128      0.126067   5 C  s         
   127      0.121694   5 C  s               565      0.120497  28 C  s         
 
 Vector   27  Occ=2.000000D+00  E=-6.185031D-01
              MO Center=  8.0D-01, -3.6D-01, -7.7D-01, r^2= 1.4D+01
   Bfn.  Coefficient  Atom+Function         Bfn.  Coefficient  Atom+Function  
  ----- ------------  ---------------      ----- ------------  ---------------
   566      0.197017  28 C  s               565      0.185370  28 C  s         
    66      0.151992   3 C  s                65      0.134131   3 C  s         
   438     -0.132844  15 C  s               190      0.129480   7 C  s         
   437     -0.122287  15 C  s                 4     -0.120082   1 O  s         
   564     -0.112728  28 C  s               189      0.111774   7 C  s         
 
 Vector   28  Occ=2.000000D+00  E=-5.960868D-01
              MO Center=  5.4D+00,  4.3D-01, -9.1D-01, r^2= 7.9D+00
   Bfn.  Coefficient  Atom+Function         Bfn.  Coefficient  Atom+Function  
  ----- ------------  ---------------      ----- ------------  ---------------
   438      0.234945  15 C  s               437      0.207489  15 C  s         
   345     -0.158116  12 C  s               344     -0.153766  12 C  s         
   436     -0.130466  15 C  s               314     -0.129615  11 C  s         
   318     -0.111607  11 C  pz              379     -0.111199  13 O  py        
   349      0.096065  12 C  pz              407      0.092273  14 O  s         
 
 Vector   29  Occ=2.000000D+00  E=-5.677794D-01
              MO Center=  2.7D+00,  5.0D-02, -4.4D-01, r^2= 9.7D+00
   Bfn.  Coefficient  Atom+Function         Bfn.  Coefficient  Atom+Function  
  ----- ------------  ---------------      ----- ------------  ---------------
   221      0.156268   8 C  s               517     -0.135688  24 C  s         
   283      0.129299  10 C  s               516     -0.117268  24 C  s         
    66     -0.113023   3 C  s               282      0.111304  10 C  s         
   159     -0.110095   6 C  s               220      0.110318   8 C  s         
   128      0.107395   5 C  s               193     -0.107802   7 C  py        
 
 Vector   30  Occ=2.000000D+00  E=-5.465916D-01
              MO Center=  2.8D+00,  2.3D-01, -3.6D-01, r^2= 1.2D+01
   Bfn.  Coefficient  Atom+Function         Bfn.  Coefficient  Atom+Function  
  ----- ------------  ---------------      ----- ------------  ---------------
    97      0.171974   4 C  s               379     -0.135511  13 O  py        
   159     -0.133220   6 C  s                96      0.129274   4 C  s         
   158     -0.116293   6 C  s               314      0.111424  11 C  s         
   345     -0.105522  12 C  s               382     -0.105360  13 O  py        
   283      0.102358  10 C  s               190      0.099287   7 C  s         
 
 Vector   31  Occ=2.000000D+00  E=-5.351155D-01
              MO Center=  1.5D+00, -4.8D-02, -6.2D-01, r^2= 5.9D+00
   Bfn.  Coefficient  Atom+Function         Bfn.  Coefficient  Atom+Function  
  ----- ------------  ---------------      ----- ------------  ---------------
   252      0.174611   9 C  s               517     -0.144815  24 C  s         
   251      0.132658   9 C  s                66     -0.127056   3 C  s         
    35      0.123400   2 C  s               100     -0.119581   4 C  py        
   516     -0.116905  24 C  s               221     -0.107898   8 C  s         
   285     -0.099509  10 C  px              520      0.098375  24 C  py        
 
 Vector   32  Occ=2.000000D+00  E=-5.185529D-01
              MO Center=  3.5D+00,  3.1D-01, -3.9D-01, r^2= 1.3D+01
   Bfn.  Coefficient  Atom+Function         Bfn.  Coefficient  Atom+Function  
  ----- ------------  ---------------      ----- ------------  ---------------
   314      0.180144  11 C  s               379     -0.150901  13 O  py        
   190     -0.122395   7 C  s               128      0.119830   5 C  s         
   348      0.118901  12 C  py              382     -0.118788  13 O  py        
   313      0.111798  11 C  s               127      0.101977   5 C  s         
    35      0.096792   2 C  s               189     -0.094946   7 C  s         
 
 Vector   33  Occ=2.000000D+00  E=-4.766680D-01
              MO Center= -8.1D-02, -6.9D-01, -5.7D-01, r^2= 9.2D+00
   Bfn.  Coefficient  Atom+Function         Bfn.  Coefficient  Atom+Function  
  ----- ------------  ---------------      ----- ------------  ---------------
     6      0.200729   1 O  px              569     -0.169155  28 C  py        
    37     -0.166117   2 C  px                9      0.160944   1 O  px        
   572     -0.106498  28 C  py                7      0.104949   1 O  py        
   286     -0.100483  10 C  py              131     -0.097494   5 C  py        
    40     -0.094369   2 C  px              221     -0.092952   8 C  s         
 
 Vector   34  Occ=2.000000D+00  E=-4.595248D-01
              MO Center=  2.3D+00,  9.6D-02, -5.9D-01, r^2= 1.0D+01
   Bfn.  Coefficient  Atom+Function         Bfn.  Coefficient  Atom+Function  
  ----- ------------  ---------------      ----- ------------  ---------------
   254      0.132179   9 C  px              286     -0.131934  10 C  py        
   223     -0.121443   8 C  px              190     -0.115898   7 C  s         
   546      0.114274  25 H  s               283      0.113529  10 C  s         
    66      0.111958   3 C  s               316      0.109574  11 C  px        
   128     -0.108349   5 C  s                35     -0.104334   2 C  s         
 
 Vector   35  Occ=2.000000D+00  E=-4.532327D-01
              MO Center=  1.7D+00,  2.7D-01, -4.9D-01, r^2= 1.1D+01
   Bfn.  Coefficient  Atom+Function         Bfn.  Coefficient  Atom+Function  
  ----- ------------  ---------------      ----- ------------  ---------------
    38      0.128136   2 C  py              285      0.114066  10 C  px        
   161     -0.111021   6 C  px               99      0.109415   4 C  px        
   224      0.105681   8 C  py               68     -0.103769   3 C  px        
    69     -0.104017   3 C  py              519     -0.094825  24 C  px        
     6     -0.091856   1 O  px              162     -0.090747   6 C  py        
 
 Vector   36  Occ=2.000000D+00  E=-4.257037D-01
              MO Center=  5.4D+00,  5.0D-01,  1.6D-01, r^2= 8.0D+00
   Bfn.  Coefficient  Atom+Function         Bfn.  Coefficient  Atom+Function  
  ----- ------------  ---------------      ----- ------------  ---------------
   379      0.162531  13 O  py              410     -0.162354  14 O  py        
   380      0.159289  13 O  pz              407     -0.152529  14 O  s         
   349      0.136470  12 C  pz              377     -0.128323  13 O  s         
   382      0.125547  13 O  py              383      0.123590  13 O  pz        
   413     -0.117491  14 O  py              376     -0.115635  13 O  s         
 
 Vector   37  Occ=2.000000D+00  E=-4.198751D-01
              MO Center=  5.0D+00,  7.6D-01,  1.3D-01, r^2= 1.1D+01
   Bfn.  Coefficient  Atom+Function         Bfn.  Coefficient  Atom+Function  
  ----- ------------  ---------------      ----- ------------  ---------------
   407     -0.182511  14 O  s               411     -0.180209  14 O  pz        
   345      0.166470  12 C  s               348      0.142545  12 C  py        
   344      0.132060  12 C  s               318      0.130143  11 C  pz        
   414     -0.127284  14 O  pz              408     -0.125584  14 O  s         
   406     -0.118492  14 O  s               380      0.113377  13 O  pz        
 
 Vector   38  Occ=2.000000D+00  E=-4.158684D-01
              MO Center= -2.2D+00, -1.7D+00, -5.5D-01, r^2= 2.0D+00
   Bfn.  Coefficient  Atom+Function         Bfn.  Coefficient  Atom+Function  
  ----- ------------  ---------------      ----- ------------  ---------------
   570      0.280113  28 C  pz                8      0.223742   1 O  pz        
   573      0.192061  28 C  pz               11      0.183133   1 O  pz        
   601     -0.153516  30 H  s               595      0.150944  29 H  s         
   600     -0.114307  30 H  s               594      0.112389  29 H  s         
    39      0.103101   2 C  pz               14      0.093688   1 O  pz        
 
 Vector   39  Occ=2.000000D+00  E=-4.140405D-01
              MO Center=  2.2D+00,  4.6D-03, -4.4D-01, r^2= 1.2D+01
   Bfn.  Coefficient  Atom+Function         Bfn.  Coefficient  Atom+Function  
  ----- ------------  ---------------      ----- ------------  ---------------
   162      0.150218   6 C  py                7      0.132123   1 O  py        
   286     -0.122451  10 C  py              519     -0.120893  24 C  px        
   100     -0.119533   4 C  py              255      0.109562   9 C  py        
    10      0.106188   1 O  py              380      0.100967  13 O  pz        
   192      0.093325   7 C  px              503      0.090412  22 H  s         
 
 Vector   40  Occ=2.000000D+00  E=-4.024111D-01
              MO Center=  4.3D+00,  4.2D-01, -2.1D-01, r^2= 1.2D+01
   Bfn.  Coefficient  Atom+Function         Bfn.  Coefficient  Atom+Function  
  ----- ------------  ---------------      ----- ------------  ---------------
   347      0.188450  12 C  px              378      0.145799  13 O  px        
   350      0.142654  12 C  px              409      0.142193  14 O  px        
   381      0.117852  13 O  px              412      0.112111  14 O  px        
   223      0.107834   8 C  px               68      0.099078   3 C  px        
   316      0.096148  11 C  px              442      0.090939  15 C  pz        
 
 Vector   41  Occ=2.000000D+00  E=-3.954164D-01
              MO Center=  1.4D+00,  1.1D-01, -5.9D-01, r^2= 1.0D+01
   Bfn.  Coefficient  Atom+Function         Bfn.  Coefficient  Atom+Function  
  ----- ------------  ---------------      ----- ------------  ---------------
    97      0.145472   4 C  s               252     -0.141385   9 C  s         
   224     -0.139609   8 C  py              131     -0.136727   5 C  py        
   558     -0.127557  27 H  s               568     -0.124841  28 C  px        
   509      0.122519  23 H  s               520     -0.115721  24 C  py        
    69     -0.103764   3 C  py               66     -0.097738   3 C  s         
 
 Vector   42  Occ=2.000000D+00  E=-3.891765D-01
              MO Center=  1.8D+00,  1.9D-01, -5.6D-01, r^2= 1.3D+01
   Bfn.  Coefficient  Atom+Function         Bfn.  Coefficient  Atom+Function  
  ----- ------------  ---------------      ----- ------------  ---------------
   130      0.174795   5 C  px              161     -0.146835   6 C  px        
   568      0.135316  28 C  px                7     -0.128994   1 O  py        
   552      0.115762  26 H  s               497     -0.114872  21 H  s         
   520     -0.113830  24 C  py              133      0.106053   5 C  px        
    10     -0.104455   1 O  py              519      0.098484  24 C  px        
 
 Vector   43  Occ=2.000000D+00  E=-3.781997D-01
              MO Center=  4.5D+00,  2.7D-01, -8.0D-01, r^2= 1.4D+01
   Bfn.  Coefficient  Atom+Function         Bfn.  Coefficient  Atom+Function  
  ----- ------------  ---------------      ----- ------------  ---------------
   441     -0.156395  15 C  py              378      0.150249  13 O  px        
   317     -0.133792  11 C  py              381      0.120079  13 O  px        
   479      0.115693  18 H  s               347      0.109597  12 C  px        
   285     -0.106459  10 C  px              467     -0.105989  16 H  s         
   444     -0.100423  15 C  py              568     -0.098651  28 C  px        
 
 Vector   44  Occ=2.000000D+00  E=-3.696077D-01
              MO Center=  1.8D+00,  2.0D-01, -6.2D-01, r^2= 7.0D+00
   Bfn.  Coefficient  Atom+Function         Bfn.  Coefficient  Atom+Function  
  ----- ------------  ---------------      ----- ------------  ---------------
   131     -0.150111   5 C  py               69      0.143655   3 C  py        
   520      0.138414  24 C  py              224     -0.128442   8 C  py        
   497     -0.128934  21 H  s               552     -0.128408  26 H  s         
   558      0.119639  27 H  s               519     -0.118917  24 C  px        
   509      0.112792  23 H  s               130      0.092424   5 C  px        
 
 Vector   45  Occ=2.000000D+00  E=-3.628812D-01
              MO Center=  5.0D+00,  3.9D-01, -4.0D-01, r^2= 1.3D+01
   Bfn.  Coefficient  Atom+Function         Bfn.  Coefficient  Atom+Function  
  ----- ------------  ---------------      ----- ------------  ---------------
   380      0.195726  13 O  pz              411      0.186766  14 O  pz        
   383      0.151117  13 O  pz              414      0.135133  14 O  pz        
   440      0.134956  15 C  px              442      0.123305  15 C  pz        
   473     -0.120794  17 H  s               376     -0.111028  13 O  s         
   485      0.104079  19 H  s               348     -0.102020  12 C  py        
 
 Vector   46  Occ=2.000000D+00  E=-3.571133D-01
              MO Center=  1.9D+00, -1.7D-01, -7.4D-01, r^2= 1.4D+01
   Bfn.  Coefficient  Atom+Function         Bfn.  Coefficient  Atom+Function  
  ----- ------------  ---------------      ----- ------------  ---------------
   285      0.150410  10 C  px              568      0.143481  28 C  px        
   519     -0.135643  24 C  px              441     -0.118911  15 C  py        
   161      0.117010   6 C  px              130     -0.113252   5 C  px        
   607     -0.108485  31 H  s                99      0.104815   4 C  px        
   571      0.095093  28 C  px              255      0.094072   9 C  py        
 
 Vector   47  Occ=2.000000D+00  E=-3.491891D-01
              MO Center=  1.7D+00, -7.0D-02, -5.7D-01, r^2= 8.9D+00
   Bfn.  Coefficient  Atom+Function         Bfn.  Coefficient  Atom+Function  
  ----- ------------  ---------------      ----- ------------  ---------------
   256      0.131832   9 C  pz              101      0.130361   4 C  pz        
    39      0.117322   2 C  pz              259      0.106971   9 C  pz        
   104      0.106429   4 C  pz               70      0.098980   3 C  pz        
   521      0.098639  24 C  pz               42      0.094523   2 C  pz        
   570     -0.093937  28 C  pz              132      0.083196   5 C  pz        
 
 Vector   48  Occ=2.000000D+00  E=-3.450366D-01
              MO Center=  1.9D+00, -7.1D-02, -7.9D-01, r^2= 1.2D+01
   Bfn.  Coefficient  Atom+Function         Bfn.  Coefficient  Atom+Function  
  ----- ------------  ---------------      ----- ------------  ---------------
    38      0.133769   2 C  py              440      0.125535  15 C  px        
   286     -0.113538  10 C  py              546      0.113574  25 H  s         
   162     -0.112897   6 C  py               69     -0.108083   3 C  py        
   224     -0.101851   8 C  py              503     -0.097069  22 H  s         
   193      0.094810   7 C  py              485      0.092214  19 H  s         
 
 Vector   49  Occ=2.000000D+00  E=-3.352046D-01
              MO Center=  4.4D+00,  6.5D-01, -6.5D-01, r^2= 1.1D+01
   Bfn.  Coefficient  Atom+Function         Bfn.  Coefficient  Atom+Function  
  ----- ------------  ---------------      ----- ------------  ---------------
   442      0.193790  15 C  pz              318     -0.151354  11 C  pz        
   349      0.129540  12 C  pz              445      0.129207  15 C  pz        
   378     -0.123176  13 O  px              473     -0.122155  17 H  s         
   410     -0.115488  14 O  py              321     -0.112765  11 C  pz        
   409     -0.105779  14 O  px              381     -0.098737  13 O  px        
 
 Vector   50  Occ=2.000000D+00  E=-3.334101D-01
              MO Center=  4.1D+00,  6.2D-01, -7.6D-01, r^2= 1.1D+01
   Bfn.  Coefficient  Atom+Function         Bfn.  Coefficient  Atom+Function  
  ----- ------------  ---------------      ----- ------------  ---------------
    99     -0.157641   4 C  px              440     -0.155155  15 C  px        
    68      0.147464   3 C  px              485     -0.132855  19 H  s         
   349     -0.118895  12 C  pz              380      0.106490  13 O  pz        
   410      0.103908  14 O  py              102     -0.102019   4 C  px        
   223     -0.099240   8 C  px              254      0.099595   9 C  px        
 
 Vector   51  Occ=2.000000D+00  E=-3.155275D-01
              MO Center=  4.3D+00,  8.7D-01, -1.1D+00, r^2= 1.1D+01
   Bfn.  Coefficient  Atom+Function         Bfn.  Coefficient  Atom+Function  
  ----- ------------  ---------------      ----- ------------  ---------------
   317      0.208571  11 C  py              441     -0.203001  15 C  py        
   467      0.175751  16 H  s               479      0.167071  18 H  s         
   320      0.138618  11 C  py              444     -0.131273  15 C  py        
   466      0.120896  16 H  s               478      0.115074  18 H  s         
   100     -0.103510   4 C  py              161     -0.093206   6 C  px        
 
 Vector   52  Occ=2.000000D+00  E=-3.098806D-01
              MO Center=  6.7D-01, -2.1D-01, -5.3D-01, r^2= 1.1D+01
   Bfn.  Coefficient  Atom+Function         Bfn.  Coefficient  Atom+Function  
  ----- ------------  ---------------      ----- ------------  ---------------
     8      0.196566   1 O  pz               39      0.179366   2 C  pz        
    11      0.158494   1 O  pz               42      0.142684   2 C  pz        
   570     -0.134918  28 C  pz              163     -0.112741   6 C  pz        
   225     -0.111799   8 C  pz               14      0.108985   1 O  pz        
   595     -0.105406  29 H  s               132     -0.104786   5 C  pz        
 
 Vector   53  Occ=2.000000D+00  E=-3.000756D-01
              MO Center=  3.3D+00,  4.8D-01, -7.3D-01, r^2= 1.1D+01
   Bfn.  Coefficient  Atom+Function         Bfn.  Coefficient  Atom+Function  
  ----- ------------  ---------------      ----- ------------  ---------------
   192      0.146462   7 C  px              316     -0.143542  11 C  px        
   223     -0.120200   8 C  px              224     -0.116985   8 C  py        
   193      0.108875   7 C  py              254      0.108951   9 C  px        
   467     -0.108955  16 H  s                 6      0.107055   1 O  px        
   195      0.107043   7 C  px              519     -0.104669  24 C  px        
 
 Vector   54  Occ=2.000000D+00  E=-2.959357D-01
              MO Center=  1.7D+00,  2.5D-01, -5.5D-01, r^2= 1.3D+01
   Bfn.  Coefficient  Atom+Function         Bfn.  Coefficient  Atom+Function  
  ----- ------------  ---------------      ----- ------------  ---------------
     7      0.181904   1 O  py               10      0.145727   1 O  py        
    98      0.130534   4 C  s               284      0.129809  10 C  s         
   161     -0.119180   6 C  px              192      0.110609   7 C  px        
   316     -0.110746  11 C  px                6     -0.109612   1 O  px        
   222     -0.107235   8 C  s               193     -0.106102   7 C  py        
 
 Vector   55  Occ=2.000000D+00  E=-2.821719D-01
              MO Center=  6.4D-01, -3.1D-01, -4.9D-01, r^2= 9.9D+00
   Bfn.  Coefficient  Atom+Function         Bfn.  Coefficient  Atom+Function  
  ----- ------------  ---------------      ----- ------------  ---------------
     7      0.181318   1 O  py               10      0.145488   1 O  py        
   255      0.143714   9 C  py              100     -0.140031   4 C  py        
    38     -0.135252   2 C  py              286      0.129514  10 C  py        
     6     -0.122179   1 O  px              520     -0.119794  24 C  py        
   292      0.113913  10 C  py              284      0.109658  10 C  s         
 
 Vector   56  Occ=2.000000D+00  E=-2.768523D-01
              MO Center=  6.1D+00,  4.9D-01,  6.9D-01, r^2= 4.6D+00
   Bfn.  Coefficient  Atom+Function         Bfn.  Coefficient  Atom+Function  
  ----- ------------  ---------------      ----- ------------  ---------------
   378     -0.297222  13 O  px              409      0.287727  14 O  px        
   222      0.279618   8 C  s               381     -0.238264  13 O  px        
   412      0.228366  14 O  px              160     -0.212380   6 C  s         
   384     -0.196751  13 O  px              415      0.160957  14 O  px        
   199      0.150396   7 C  py              411     -0.132057  14 O  pz        
 
 Vector   57  Occ=2.000000D+00  E=-2.676132D-01
              MO Center=  1.2D+00, -2.3D-01, -6.0D-01, r^2= 8.1D+00
   Bfn.  Coefficient  Atom+Function         Bfn.  Coefficient  Atom+Function  
  ----- ------------  ---------------      ----- ------------  ---------------
   521     -0.206641  24 C  pz                8      0.196867   1 O  pz        
   524     -0.169644  24 C  pz              163      0.162129   6 C  pz        
    11      0.159147   1 O  pz              287     -0.151487  10 C  pz        
   132      0.134594   5 C  pz              166      0.133419   6 C  pz        
   256     -0.126446   9 C  pz              290     -0.125497  10 C  pz        
 
 Vector   58  Occ=2.000000D+00  E=-2.476977D-01
              MO Center=  2.5D+00,  5.9D-01, -3.5D-01, r^2= 8.9D+00
   Bfn.  Coefficient  Atom+Function         Bfn.  Coefficient  Atom+Function  
  ----- ------------  ---------------      ----- ------------  ---------------
   101      0.189366   4 C  pz              225     -0.170116   8 C  pz        
   194     -0.162507   7 C  pz              104      0.156718   4 C  pz        
    70      0.152643   3 C  pz              410      0.144330  14 O  py        
   228     -0.138740   8 C  pz              197     -0.135774   7 C  pz        
     8     -0.133105   1 O  pz              132      0.129143   5 C  pz        
 
 Vector   59  Occ=2.000000D+00  E=-2.281312D-01
              MO Center=  5.4D+00,  9.4D-01,  6.8D-01, r^2= 8.6D+00
   Bfn.  Coefficient  Atom+Function         Bfn.  Coefficient  Atom+Function  
  ----- ------------  ---------------      ----- ------------  ---------------
   410      0.311720  14 O  py              413      0.247220  14 O  py        
   315     -0.237548  11 C  s               416      0.190101  14 O  py        
   411     -0.185722  14 O  pz              379      0.151403  13 O  py        
   414     -0.146066  14 O  pz              409     -0.132144  14 O  px        
   382      0.126430  13 O  py              318     -0.121928  11 C  pz        
 
 Vector   60  Occ=2.000000D+00  E=-2.098184D-01
              MO Center=  1.6D+00,  3.1D-02, -6.0D-01, r^2= 6.7D+00
   Bfn.  Coefficient  Atom+Function         Bfn.  Coefficient  Atom+Function  
  ----- ------------  ---------------      ----- ------------  ---------------
   287      0.224074  10 C  pz              163      0.202646   6 C  pz        
   290      0.185295  10 C  pz              256     -0.173512   9 C  pz        
   166      0.167825   6 C  pz              293      0.157318  10 C  pz        
   259     -0.144255   9 C  pz              169      0.134814   6 C  pz        
     8     -0.131400   1 O  pz              101     -0.127765   4 C  pz        
 
 Vector   61  Occ=2.000000D+00  E=-1.798637D-01
              MO Center=  1.1D+00,  1.9D-01, -5.4D-01, r^2= 7.5D+00
   Bfn.  Coefficient  Atom+Function         Bfn.  Coefficient  Atom+Function  
  ----- ------------  ---------------      ----- ------------  ---------------
    70     -0.208742   3 C  pz                8      0.199422   1 O  pz        
    73     -0.175510   3 C  pz              132      0.163013   5 C  pz        
    11      0.161042   1 O  pz              194     -0.158948   7 C  pz        
    39     -0.155978   2 C  pz              521      0.150489  24 C  pz        
    76     -0.140358   3 C  pz               14      0.139058   1 O  pz        
 
 Vector   62  Occ=0.000000D+00  E=-7.054886D-02
              MO Center=  1.8D+00,  1.1D-01, -6.1D-01, r^2= 6.8D+00
   Bfn.  Coefficient  Atom+Function         Bfn.  Coefficient  Atom+Function  
  ----- ------------  ---------------      ----- ------------  ---------------
   527      0.265464  24 C  pz              138     -0.230291   5 C  pz        
   231     -0.221411   8 C  pz              293     -0.221482  10 C  pz        
    76      0.210037   3 C  pz              439      0.209788  15 C  s         
   521      0.205704  24 C  pz              225     -0.201817   8 C  pz        
   132     -0.183824   5 C  pz              169      0.181181   6 C  pz        
 
 Vector   63  Occ=0.000000D+00  E=-4.594895D-02
              MO Center=  3.9D+00,  6.9D-01, -1.2D-01, r^2= 9.9D+00
   Bfn.  Coefficient  Atom+Function         Bfn.  Coefficient  Atom+Function  
  ----- ------------  ---------------      ----- ------------  ---------------
   222     -0.379449   8 C  s               160      0.353398   6 C  s         
   169     -0.291435   6 C  pz              439      0.289317  15 C  s         
   199     -0.283687   7 C  py              350     -0.240056  12 C  px        
   315     -0.233535  11 C  s               200      0.232015   7 C  pz        
   347     -0.220436  12 C  px              129     -0.210285   5 C  s         
 
 Vector   64  Occ=0.000000D+00  E=-2.334434D-02
              MO Center=  4.0D+00,  5.3D-01,  2.5D-02, r^2= 1.0D+01
   Bfn.  Coefficient  Atom+Function         Bfn.  Coefficient  Atom+Function  
  ----- ------------  ---------------      ----- ------------  ---------------
   222     -0.380795   8 C  s               160      0.352528   6 C  s         
   350     -0.297411  12 C  px              347     -0.293593  12 C  px        
   199     -0.263387   7 C  py              200     -0.261377   7 C  pz        
   129     -0.232571   5 C  s               315     -0.233432  11 C  s         
    45      0.228692   2 C  pz              262      0.218718   9 C  pz        
 
 Vector   65  Occ=0.000000D+00  E=-1.315222D-02
              MO Center=  1.9D+00,  1.8D-01, -5.5D-01, r^2= 6.5D+00
   Bfn.  Coefficient  Atom+Function         Bfn.  Coefficient  Atom+Function  
  ----- ------------  ---------------      ----- ------------  ---------------
   315      0.534915  11 C  s               527     -0.408476  24 C  pz        
   138     -0.390884   5 C  pz               76     -0.385942   3 C  pz        
   231     -0.384261   8 C  pz              262      0.343857   9 C  pz        
   346     -0.329994  12 C  s               107      0.302146   4 C  pz        
   492     -0.257876  20 H  s               169      0.193207   6 C  pz        
 
 Vector   66  Occ=0.000000D+00  E= 4.624431D-03
              MO Center=  6.5D+00, -2.4D-01,  6.2D-01, r^2= 8.0D+00
   Bfn.  Coefficient  Atom+Function         Bfn.  Coefficient  Atom+Function  
  ----- ------------  ---------------      ----- ------------  ---------------
   315      3.104390  11 C  s               492     -1.300226  20 H  s         
   346     -1.281921  12 C  s               439      1.276445  15 C  s         
   198     -1.173595   7 C  px              468     -0.800839  16 H  s         
    98      0.740979   4 C  s               324      0.731972  11 C  pz        
   105      0.688553   4 C  px              480     -0.601861  18 H  s         
 
 Vector   67  Occ=0.000000D+00  E= 1.671777D-02
              MO Center= -1.7D+00, -2.8D+00, -7.0D-01, r^2= 7.3D+00
   Bfn.  Coefficient  Atom+Function         Bfn.  Coefficient  Atom+Function  
  ----- ------------  ---------------      ----- ------------  ---------------
   567      3.807686  28 C  s               547     -1.749276  25 H  s         
   260     -1.552972   9 C  px              596     -1.551815  29 H  s         
   602     -1.558931  30 H  s                43      1.483959   2 C  px        
   292     -1.258955  10 C  py              106      1.088969   4 C  py        
   608     -0.917797  31 H  s               553     -0.828519  26 H  s         
 
 Vector   68  Occ=0.000000D+00  E= 3.245646D-02
              MO Center=  3.6D+00,  8.9D-01, -6.2D-01, r^2= 2.2D+01
   Bfn.  Coefficient  Atom+Function         Bfn.  Coefficient  Atom+Function  
  ----- ------------  ---------------      ----- ------------  ---------------
   439      2.348672  15 C  s               315      1.665051  11 C  s         
   198     -1.280385   7 C  px              468     -1.239166  16 H  s         
   504     -1.142533  22 H  s               498     -1.044893  21 H  s         
   284      0.990928  10 C  s                98      0.978848   4 C  s         
   474     -0.863711  17 H  s               105      0.845005   4 C  px        
 
 Vector   69  Occ=0.000000D+00  E= 3.713869D-02
              MO Center=  9.9D-01, -8.4D-01, -8.1D-01, r^2= 2.1D+01
   Bfn.  Coefficient  Atom+Function         Bfn.  Coefficient  Atom+Function  
  ----- ------------  ---------------      ----- ------------  ---------------
   284      1.639795  10 C  s               439     -1.453949  15 C  s         
   553     -1.285543  26 H  s               315     -1.202765  11 C  s         
   567     -1.194841  28 C  s               468      1.023236  16 H  s         
     5     -0.808081   1 O  s               547     -0.801661  25 H  s         
   602      0.725850  30 H  s               596      0.719688  29 H  s         
 
 Vector   70  Occ=0.000000D+00  E= 4.183007D-02
              MO Center=  3.5D+00,  7.8D-01, -1.0D+00, r^2= 1.7D+01
   Bfn.  Coefficient  Atom+Function         Bfn.  Coefficient  Atom+Function  
  ----- ------------  ---------------      ----- ------------  ---------------
   439      3.259021  15 C  s               480     -1.317965  18 H  s         
   498      1.304695  21 H  s               315     -1.276915  11 C  s         
   106     -1.036831   4 C  py              504      1.041706  22 H  s         
   229      1.007033   8 C  px              486     -0.951303  19 H  s         
   260      0.918359   9 C  px              261     -0.899916   9 C  py        
 
 Vector   71  Occ=0.000000D+00  E= 5.126708D-02
              MO Center=  5.1D-01, -5.4D-01, -7.0D-01, r^2= 1.9D+01
   Bfn.  Coefficient  Atom+Function         Bfn.  Coefficient  Atom+Function  
  ----- ------------  ---------------      ----- ------------  ---------------
   553      1.506283  26 H  s               526      1.311574  24 C  py        
   559      1.211910  27 H  s               498      1.190593  21 H  s         
   510      1.101547  23 H  s                75     -1.032003   3 C  py        
     5     -0.993604   1 O  s               198      0.914975   7 C  px        
   439      0.914349  15 C  s               315     -0.852631  11 C  s         
 
 Vector   72  Occ=0.000000D+00  E= 5.539799D-02
              MO Center=  2.1D+00,  2.5D-01, -6.5D-01, r^2= 1.1D+01
   Bfn.  Coefficient  Atom+Function         Bfn.  Coefficient  Atom+Function  
  ----- ------------  ---------------      ----- ------------  ---------------
   315      1.397796  11 C  s               439     -1.230959  15 C  s         
   486      0.677016  19 H  s               169      0.510493   6 C  pz        
   198     -0.502704   7 C  px              293      0.491693  10 C  pz        
    45     -0.468390   2 C  pz              200     -0.460557   7 C  pz        
    76      0.345918   3 C  pz              553     -0.342004  26 H  s         
 
 Vector   73  Occ=0.000000D+00  E= 6.237745D-02
              MO Center=  2.9D+00,  1.0D+00, -8.6D-01, r^2= 2.0D+01
   Bfn.  Coefficient  Atom+Function         Bfn.  Coefficient  Atom+Function  
  ----- ------------  ---------------      ----- ------------  ---------------
   315      3.723236  11 C  s               439     -2.974845  15 C  s         
   253     -2.018544   9 C  s               468     -1.576270  16 H  s         
   168      1.472925   6 C  py              504     -1.383141  22 H  s         
   498      1.363720  21 H  s               559      1.339695  27 H  s         
   137     -1.297712   5 C  py              480      1.143426  18 H  s         
 
 Vector   74  Occ=0.000000D+00  E= 6.785744D-02
              MO Center=  1.8D+00,  2.0D-01, -7.6D-01, r^2= 1.9D+01
   Bfn.  Coefficient  Atom+Function         Bfn.  Coefficient  Atom+Function  
  ----- ------------  ---------------      ----- ------------  ---------------
   260      1.930798   9 C  px              160      1.834981   6 C  s         
   284     -1.750907  10 C  s               559      1.641281  27 H  s         
   105      1.515579   4 C  px              525     -1.392002  24 C  px        
   504     -1.360965  22 H  s               229      1.330667   8 C  px        
   510     -1.325938  23 H  s               547      1.309910  25 H  s         
 
 Vector   75  Occ=0.000000D+00  E= 7.525304D-02
              MO Center= -3.0D+00, -1.4D+00, -4.9D-01, r^2= 9.5D+00
   Bfn.  Coefficient  Atom+Function         Bfn.  Coefficient  Atom+Function  
  ----- ------------  ---------------      ----- ------------  ---------------
   608      2.812737  31 H  s               574      1.562738  28 C  px        
   602     -0.924635  30 H  s               596     -0.891633  29 H  s         
    67     -0.845082   3 C  s               498     -0.688520  21 H  s         
   575     -0.634465  28 C  py              518     -0.602509  24 C  s         
   291      0.564264  10 C  px              105     -0.559738   4 C  px        
 
 Vector   76  Occ=0.000000D+00  E= 8.335960D-02
              MO Center=  5.7D+00,  9.3D-01, -1.4D+00, r^2= 1.1D+01
   Bfn.  Coefficient  Atom+Function         Bfn.  Coefficient  Atom+Function  
  ----- ------------  ---------------      ----- ------------  ---------------
   315      4.807905  11 C  s               346     -2.301133  12 C  s         
   439     -2.104250  15 C  s               474      1.898041  17 H  s         
   446      1.434766  15 C  px              191     -1.360373   7 C  s         
   198     -1.364329   7 C  px              486     -1.276811  19 H  s         
   222     -1.198392   8 C  s               408      0.972347  14 O  s         
 
 Vector   77  Occ=0.000000D+00  E= 8.614099D-02
              MO Center= -1.9D+00, -2.6D+00, -6.9D-01, r^2= 6.9D+00
   Bfn.  Coefficient  Atom+Function         Bfn.  Coefficient  Atom+Function  
  ----- ------------  ---------------      ----- ------------  ---------------
   596      2.128748  29 H  s               602     -2.084973  30 H  s         
   576     -1.353341  28 C  pz              315     -0.627510  11 C  s         
   486     -0.326985  19 H  s               474      0.324634  17 H  s         
   198      0.309900   7 C  px              570     -0.281061  28 C  pz        
   439      0.260388  15 C  s                14      0.231359   1 O  pz        
 
 Vector   78  Occ=0.000000D+00  E= 8.753956D-02
              MO Center=  4.4D+00,  7.1D-01, -1.3D+00, r^2= 1.4D+01
   Bfn.  Coefficient  Atom+Function         Bfn.  Coefficient  Atom+Function  
  ----- ------------  ---------------      ----- ------------  ---------------
   315      4.994437  11 C  s               198     -2.183791   7 C  px        
   439     -1.773141  15 C  s               346     -1.630267  12 C  s         
   105      1.441604   4 C  px              323     -1.445117  11 C  py        
   474     -1.387938  17 H  s               486      1.314906  19 H  s         
   448     -1.202606  15 C  pz              261     -1.059347   9 C  py        
 
 Vector   79  Occ=0.000000D+00  E= 9.393068D-02
              MO Center=  2.0D+00,  6.8D-01, -7.6D-01, r^2= 2.1D+01
   Bfn.  Coefficient  Atom+Function         Bfn.  Coefficient  Atom+Function  
  ----- ------------  ---------------      ----- ------------  ---------------
   315      3.101771  11 C  s               253      2.754251   9 C  s         
    98      2.565356   4 C  s                67     -2.238449   3 C  s         
   518     -2.074639  24 C  s               559     -1.997320  27 H  s         
   129     -1.928857   5 C  s                74     -1.841858   3 C  px        
   468     -1.819784  16 H  s               547      1.721499  25 H  s         
 
 Vector   80  Occ=0.000000D+00  E= 1.059462D-01
              MO Center=  3.6D+00, -1.0D+00, -1.3D+00, r^2= 1.9D+01
   Bfn.  Coefficient  Atom+Function         Bfn.  Coefficient  Atom+Function  
  ----- ------------  ---------------      ----- ------------  ---------------
   315      3.928204  11 C  s               547     -2.160697  25 H  s         
   526      2.081410  24 C  py              553      1.992073  26 H  s         
   292     -1.898394  10 C  py               67      1.867760   3 C  s         
   439     -1.591219  15 C  s               480     -1.357674  18 H  s         
   486      1.302003  19 H  s               346     -1.294353  12 C  s         
 
 Vector   81  Occ=0.000000D+00  E= 1.173852D-01
              MO Center=  2.1D+00,  1.2D+00, -4.9D-01, r^2= 1.5D+01
   Bfn.  Coefficient  Atom+Function         Bfn.  Coefficient  Atom+Function  
  ----- ------------  ---------------      ----- ------------  ---------------
   199      2.478690   7 C  py              315     -2.276144  11 C  s         
    67      1.931550   3 C  s               222      1.796608   8 C  s         
   498      1.777793  21 H  s               137     -1.764325   5 C  py        
   168      1.758148   6 C  py              230      1.727069   8 C  py        
   504     -1.658074  22 H  s               261     -1.599781   9 C  py        
 
[...]
   106     -1.786475   4 C  py              315      1.756853  11 C  s         
   113      1.738449   4 C  d -2            517      1.733181  24 C  s         
   103      1.672685   4 C  py              261     -1.597640   9 C  py        
   268     -1.570627   9 C  d -2            190      1.558178   7 C  s         
 
 Vector  604  Occ=0.000000D+00  E= 2.277074D+01
              MO Center=  1.8D+00,  2.6D-01, -4.9D-01, r^2= 7.3D+00
   Bfn.  Coefficient  Atom+Function         Bfn.  Coefficient  Atom+Function  
  ----- ------------  ---------------      ----- ------------  ---------------
   190      2.978277   7 C  s               191     -2.187018   7 C  s         
   314     -1.977199  11 C  s               105     -1.917386   4 C  px        
   159     -1.762628   6 C  s               283     -1.640824  10 C  s         
    35      1.630190   2 C  s               189     -1.633630   7 C  s         
   222      1.450085   8 C  s               128      1.427560   5 C  s         
 
 Vector  605  Occ=0.000000D+00  E= 2.286417D+01
              MO Center=  5.6D+00,  6.9D-01,  2.2D-01, r^2= 2.8D+00
   Bfn.  Coefficient  Atom+Function         Bfn.  Coefficient  Atom+Function  
  ----- ------------  ---------------      ----- ------------  ---------------
   315      1.894299  11 C  s               344      1.857497  12 C  s         
   352      1.673825  12 C  pz              343     -1.658631  12 C  s         
   407     -1.539533  14 O  s               191     -1.251751   7 C  s         
   342      1.241331  12 C  s               226      1.021061   8 C  px        
   319      1.024622  11 C  px              414      0.891721  14 O  pz        
 
 Vector  606  Occ=0.000000D+00  E= 2.326192D+01
              MO Center=  1.8D+00,  2.8D-01, -6.0D-01, r^2= 2.1D+00
   Bfn.  Coefficient  Atom+Function         Bfn.  Coefficient  Atom+Function  
  ----- ------------  ---------------      ----- ------------  ---------------
    97      7.267103   4 C  s               252     -7.291496   9 C  s         
   221      4.159223   8 C  s                66     -3.741114   3 C  s         
   128     -3.410796   5 C  s               517      3.058718  24 C  s         
   190     -2.993743   7 C  s                96     -2.681475   4 C  s         
   251      2.634149   9 C  s                71     -2.314965   3 C  px        
 
 Vector  607  Occ=0.000000D+00  E= 4.335781D+01
              MO Center=  6.6D+00, -3.5D-01,  5.3D-01, r^2= 5.8D-01
   Bfn.  Coefficient  Atom+Function         Bfn.  Coefficient  Atom+Function  
  ----- ------------  ---------------      ----- ------------  ---------------
   376      2.446786  13 O  s               315      1.867229  11 C  s         
   375     -1.773477  13 O  s               374      1.644206  13 O  s         
   373     -1.326224  13 O  s               377     -1.142673  13 O  s         
   222     -1.106891   8 C  s               314     -1.027363  11 C  s         
   191     -0.995172   7 C  s               198     -0.974255   7 C  px        
 
 Vector  608  Occ=0.000000D+00  E= 4.344974D+01
              MO Center=  6.6D+00,  1.3D+00,  1.4D+00, r^2= 5.8D-01
   Bfn.  Coefficient  Atom+Function         Bfn.  Coefficient  Atom+Function  
  ----- ------------  ---------------      ----- ------------  ---------------
   407      2.682505  14 O  s               406     -1.780359  14 O  s         
   405      1.645787  14 O  s               404     -1.326522  14 O  s         
   408     -1.260984  14 O  s               376     -1.007089  13 O  s         
   315      0.942401  11 C  s               191     -0.929464   7 C  s         
   352     -0.822667  12 C  pz              222      0.778308   8 C  s         
 
 Vector  609  Occ=0.000000D+00  E= 4.376641D+01
              MO Center= -2.0D+00, -7.2D-01, -4.6D-01, r^2= 1.5D-01
   Bfn.  Coefficient  Atom+Function         Bfn.  Coefficient  Atom+Function  
  ----- ------------  ---------------      ----- ------------  ---------------
     4      3.184781   1 O  s                 3     -2.084336   1 O  s         
     2      1.752808   1 O  s                 1     -1.399116   1 O  s         
    43     -1.135725   2 C  px               71      1.124117   3 C  px        
   102      1.062391   4 C  px               40      1.041863   2 C  px        
    97     -0.980104   4 C  s               284      0.896575  10 C  s         
 

 center of mass
 --------------
 x =   4.96602792 y =   0.34320322 z =  -0.79188841

 moments of inertia (a.u.)
 ------------------
        1938.454067577615       -1782.458972999158        -506.090931649800
       -1782.458972999158        8332.936653740582        -128.887064828513
        -506.090931649800        -128.887064828513        9297.023331223059
 
     Multipole analysis of the density
     ---------------------------------
 
     L   x y z        total         alpha         beta         nuclear
     -   - - -        -----         -----         ----         -------
     0   0 0 0     -0.000000    -61.000000    -61.000000    122.000000
 
     1   1 0 0     -0.548401   -301.733987   -301.733987    602.919573
     1   0 1 0     -1.008821    -19.365437    -19.365437     37.722053
     1   0 0 1     -0.543490     50.882384     50.882384   -102.308257
 
     2   2 0 0    -74.259097  -3657.367367  -3657.367367   7240.475636
     2   1 1 0     -3.730398   -587.047794   -587.047794   1170.365191
     2   1 0 1     -5.675687    135.006870    135.006870   -275.689426
     2   0 2 0    -68.593675   -459.224646   -459.224646    849.855617
     2   0 1 1     -2.863929    -16.960768    -16.960768     31.057607
     2   0 0 2    -77.847352   -219.160321   -219.160321    360.473290
 
 *** CALLING NEW AORESP DRIVER FOR CLOSED AND OPEN SHELLS ***
 Entering AOResponse driver routine


--------------------------------------------------------------------------------

          ****************
          *** RESPONSE ***
          ****************

 Response module for NWChem and dynamic CPKS solver
 developed by J. Autschbach and coworkers, SUNY Buffalo
 The methodology used in this program is described in 
 ChemPhysChem 12 (2011), 3224-3235 (main reference)
 J. Chem. Phys. 123 (2005), 114103
 J. Chem. Phys. 122 (2005), 224115
 J. Chem. Phys. 122 (2005), 074105
 Comp. Lett. 3 (2007), 131-150 (contact JA for a copy)
 Please cite this work in publications based on results
 obtained with this code. Thank you!

 For extension of response module to open shell
 calculations please acknowledge:
 F. Aquino, Northwestern University, Schatz Rsrch Group
 The update to the methodology is described in
 J. Phys. Chem. A 118 (2014) 517-525



          -----------------------------------------------
          Solving response equations for perturbing field
          -----------------------------------------------

 number of frequencies:     1
 frequency in a.u.:  0.1280230E+00
 Perturbing field: electric
 Using GIAO formalism for OptRot
 Adding quadrupole terms to OptRot
 to create an origin in dependent tensor.
 Using El. Dipole Length Gauge
 
 Applying DAMPING constant of  0.003700 a.u.
 
 Setting up CPKS
 with frequency omega =      0.12802300 a.u.
 and a damping of            0.00370000 a.u.

 
                            NWChem Dynamic CPHF Module
                            --------------------------
 
 
    scftype = RHF 
    nclosed =   61
      nopen =    0
  variables =   133712
  num. vecs =        3
  tolerance =   1.0D-07
  max. iter =  100

 Grid integrated density:     122.000001799027
 Requested integration accuracy:   0.10E-07
 SCF residual:   1.782959813122999E-004


Iterative solution of linear equations
  No. of variables    66856
  No. of equations        3
  Maximum subspace       99
       Convergence  1.0D-07
        Start time   1073.0


   iter   nsub   residual    time 
   ----  ------  --------  --------- 
 dft_CPHF2_read: failed to open./naproxen_355.9_051.inp.aoresp_fiao_f1
     1      3    9.11D+01    1315.2
     2      6    2.89D+01    1557.9
     3      9    7.00D+00    1801.3
     4     12    1.98D+00    2042.0
     5     15    4.19D-01    2283.0
     6     18    2.47D-01    2522.6
     7     21    1.36D-01    2763.6
     8     24    1.62D-02    3004.2
     9     27    2.61D-03    3244.3
    10     30    9.73D-04    3484.9
    11     33    5.92D-04    3725.8
    12     36    7.97D-05    3969.3
    13     39    6.98D-06    4213.0
    14     42    2.46D-06    4457.4
    15     45    7.89D-07    4703.0
    16     48    4.77D-07    4947.9
    17     51    3.46D-07    5193.6
    18     54    3.92D-07    5438.4
    19     57    4.67D-07    5682.8
    20     60    3.32D-07    5928.9
    21     63    2.20D-07    6174.0
    22     66    1.08D-07    6419.2
    23     69    1.33D-07    6664.2
    24     72    1.43D-07    6908.3
    25     75    6.24D-08    7153.4

 Calculating some arrays needed for GIAO optical rotation

    0 giaofock schwarz done =      52.46%
    0 giaofock schwarz done =      52.46%
 Grid integrated density:     122.000001799259
 Requested integration accuracy:   0.10E-07
 aor_r1_tensor_giao: roadata output requested
 dip-quad polarizability Re:

              1        2        3        4        5        6      
    1 3351.1267 244.7536-346.3660 -45.3748 -95.7634 141.1067
    2  460.0016 917.2940 -53.7292 132.3531-222.9339   6.6667
    3  121.8821  34.6475 734.9097  15.2816  33.2959-268.6967
 traceless dip-quad polarizability:

              1        2        3      
    1 3303.2608 367.1304-519.5491
    2  367.1304*********-143.6451
    3 -519.5491-143.6451*********

              1        2        3      
    1  390.49171375.9410 -80.5938
    2 1375.9410-100.9811-334.4008
    3  -80.5938-334.4008-289.5106

              1        2        3      
    1  248.5896  51.97131102.3645
    2   51.9713  88.6889  49.9438
    3 1102.3645  49.9438-337.2786

 roa begin

 alpha real:
 XX       0.4111611569118E+03
 XY       0.8096959768218E+02
 XZ       0.3977256068570E+01
 YX       0.8096959724417E+02
 YY       0.2278960764137E+03
 YZ       0.8964600531876E+01
 ZX       0.3977256096610E+01
 ZY       0.8964600415226E+01
 ZZ       0.1251306658279E+03

 alpha im:
 XX       0.4268092274606E+02
 XY       0.5726982465273E+02
 XZ       0.7194301560853E+01
 YX       0.5726982477540E+02
 YY       0.1384799440007E+03
 YZ       0.1687721159656E+02
 ZX       0.7194301510392E+01
 ZY       0.1687721160539E+02
 ZZ       0.2632193958973E+01

 beta real:
 XX      -0.5557903085701E+01
 XY       0.3956589557985E+02
 XZ       0.1249746898096E+02
 YX      -0.1510494383337E+02
 YY       0.8591464800761E+01
 YZ      -0.5496758129111E+02
 ZX      -0.3611501410369E+01
 ZY       0.4481136433837E+02
 ZZ      -0.8516045690109E+00

 G-prime = -omega beta(real):
 XX      -0.5557903085701E+01
 XY       0.3956589557985E+02
 XZ       0.1249746898096E+02
 YX      -0.1510494383337E+02
 YY       0.8591464800761E+01
 YZ      -0.5496758129111E+02
 ZX      -0.3611501410369E+01
 ZY       0.4481136433837E+02
 ZZ      -0.8516045690109E+00

 beta im:
 XX      -0.4670419648665E+01
 XY       0.8827731772484E+01
 XZ      -0.1105416604718E+02
 YX      -0.1173516669671E+02
 YY       0.1433023964984E+02
 YZ      -0.3656199249896E+02
 ZX      -0.1457765231600E+01
 ZY       0.2402783471499E+01
 ZZ      -0.4297266525909E+01

 G-prime = -omega beta(imag):
 XX      -0.4670419648665E+01
 XY       0.8827731772484E+01
 XZ      -0.1105416604718E+02
 YX      -0.1173516669671E+02
 YY       0.1433023964984E+02
 YZ      -0.3656199249896E+02
 ZX      -0.1457765231600E+01
 ZY       0.2402783471499E+01
 ZZ      -0.4297266525909E+01

 dipole-quadrupole real (Cartesian):
 XXX      0.3351126715006E+04
 XXY      0.2447536076685E+03
 XXZ     -0.3463660453889E+03
 XYY     -0.4537484449914E+02
 XYZ     -0.9576342535158E+02
 XZZ      0.1411067119858E+03
 YXX      0.4600016051824E+03
 YXY      0.9172939669245E+03
 YXZ     -0.5372920700442E+02
 YYY      0.1323530606123E+03
 YYZ     -0.2229338534018E+03
 YZZ      0.6666741968323E+01
 ZXX      0.1218820720164E+03
 ZXY      0.3464753160593E+02
 ZXZ      0.7349096689088E+03
 ZYY      0.1528160002543E+02
 ZYZ      0.3329586677678E+02
 ZZZ     -0.2686967376015E+03

 dipole-quadrupole imag (Cartesian):
 XXX      0.3665210019290E+03
 XXY      0.1188486065264E+03
 XXZ     -0.4690158760805E+01
 XYY     -0.1502674382532E+01
 XYZ     -0.6425701939761E+02
 XZZ      0.1758130920988E+02
 YXX      0.4723394865542E+03
 YXY      0.2639013434266E+03
 YXZ      0.1188594333237E+02
 YYY      0.2434847792998E+01
 YYZ     -0.1548673477001E+03
 YZZ      0.1634784418705E+02
 ZXX      0.6217842799474E+02
 ZXY      0.3225865089201E+02
 ZXZ      0.5405840007588E+01
 ZYY      0.2423842885400E+00
 ZYZ     -0.1890334787840E+02
 ZZZ      0.1157275519285E+01

 dipole-quadrupole (traceless):
 XXX      0.3303260781262E+04
 XXY      0.3671304115027E+03
 XXZ     -0.5195490680834E+03
 XYY     -0.1791491557995E+04
 XYZ     -0.1436451380274E+03
 XZZ     -0.1511769223267E+04
 YXX      0.3904917038921E+03
 YXY      0.1375940950387E+04
 YXZ     -0.8059381050664E+02
 YYY     -0.1009811129630E+03
 YYZ     -0.3344007801027E+03
 YZZ     -0.2895105909290E+03
 ZXX      0.2485896408045E+03
 ZXY      0.5197129740890E+02
 ZXZ      0.1102364503363E+04
 ZYY      0.8868893281797E+02
 ZYZ      0.4994380016517E+02
 ZZZ     -0.3372785736225E+03

 roa end


 Electric Dipole Response Matrix (nonzero elements):

              1        2        3      
    1  411.1612  80.9696   3.9773
    2   80.9696 227.8961   8.9646
    3    3.9773   8.9646 125.1307
 
 Imaginary part:

              1        2        3      
    1   42.6809  57.2698   7.1943
    2   57.2698 138.4799  16.8772
    3    7.1943  16.8772   2.6322

 ------------------------------------------
 average:       254.72930 + I      61.26435


 DFT Linear Response polarizability / au 
 Frequency  =       0.1280230 / au
 Wavelength =     355.8997446 / nm
              X              Y              Z
 -----------------------------------------------
 X     411.1611569     80.9695977      3.9772561
 Y      80.9695972    227.8960764      8.9646005
 Z       3.9772561      8.9646004    125.1306658
 -----------------------------------------------
 Eigenvalues =     441.9595027    197.9146541    124.3137423
 Isotropic   =     254.7292997
 Anisotropic =     235.1409587
 -----------------------------------------------
 *************************

 DFT Linear Response IMAG polarizability / au 
 Frequency  =       0.1280230 / au
 Wavelength =     355.8997446 / nm
              X              Y              Z
 -----------------------------------------------
 X      42.6809227     57.2698247      7.1943016
 Y      57.2698248    138.4799440     16.8772116
 Z       7.1943015     16.8772116      2.6321940
 -----------------------------------------------
 Eigenvalues =      15.9451529    167.2829326      0.5649753
 Isotropic   =      61.2643536
 Anisotropic =     130.3003591
 -----------------------------------------------
 *************************

 Magnetic Dipole Response Matrix (nonzero elements):
 Optical rotation tensor Beta
 (Buckingham-Dunn version including dipole-quadrupole terms)

              1        2        3      
    1   -0.7751 -38.0253 -95.1739
    2  -38.0253  -1.9033 -52.5509
    3  -95.1739 -52.5509 -14.3651
 
 Imaginary part:

              1        2        3      
    1   36.4811 -68.9543  86.3452
    2   91.6645-111.9349 285.5892
    3   11.3867 -18.7684  33.5664

 ------------------------------------------
 average:        -5.68116 + I     -13.96247

 Principal components and PAS (Real part)
               -134.34239
                 88.76870
                 28.53021
 ------------------------
 average:        -5.68116

              1        2        3      
    1    0.6011   0.7002  -0.3852
    2    0.4379   0.1147   0.8917
    3    0.6686  -0.7046  -0.2376

 Chiral response tensor (Real part):

              1        2        3      
    1   -8.1342  19.0126  47.5869
    2   19.0126  -7.5701  26.2754
    3   47.5869  26.2754  -1.3392
 
 Principal components and PAS (Real part)
                 58.64946
                -52.90609
                -22.78685
 ------------------------
 average:        -5.68116

              1        2        3      
    1    0.6011   0.7002  -0.3852
    2    0.4379   0.1147   0.8917
    3    0.6686  -0.7046  -0.2376
 Exiting AOResponse driver routine

 Task  times  cpu:     7172.7s     wall:     7470.1s
 
 
                                NWChem Input Module
                                -------------------
 
 
 Summary of allocated global arrays
-----------------------------------
  No active global arrays



                         GA Statistics for process    0
                         ------------------------------

       create   destroy   get      put      acc     scatter   gather  read&inc
calls: 9659     9659     2.92e+08 6.66e+07 1.28e+07 8730        0     3101     
number of processes/call 1.00e+00 1.01e+00 1.21e+00 0.00e+00 0.00e+00
bytes total:             5.83e+10 2.43e+09 6.21e+10 0.00e+00 0.00e+00 2.48e+04
bytes remote:            2.63e+10 7.40e+08 2.97e+10 -4.48e+02 0.00e+00 0.00e+00
Max memory consumed for GA by this process: 128676136 bytes
 
MA_summarize_allocated_blocks: starting scan ...
MA_summarize_allocated_blocks: scan completed: 0 heap blocks, 0 stack blocks
MA usage statistics:

	allocation statistics:
					      heap	     stack
					      ----	     -----
	current number of blocks	         0	         0
	maximum number of blocks	        24	        52
	current total bytes		         0	         0
	maximum total bytes		  15665040	 111074968
	maximum total K-bytes		     15666	    111075
	maximum total M-bytes		        16	       112
 
 
                                     CITATION
                                     --------
                Please cite the following reference when publishing
                           results obtained with NWChem:
 
                 M. Valiev, E.J. Bylaska, N. Govind, K. Kowalski,
              T.P. Straatsma, H.J.J. van Dam, D. Wang, J. Nieplocha,
                        E. Apra, T.L. Windus, W.A. de Jong
                 "NWChem: a comprehensive and scalable open-source
                  solution for large scale molecular simulations"
                      Comput. Phys. Commun. 181, 1477 (2010)
                           doi:10.1016/j.cpc.2010.04.018
 
                                      AUTHORS
                                      -------
          E. Apra, E. J. Bylaska, W. A. de Jong, N. Govind, K. Kowalski,
       T. P. Straatsma, M. Valiev, H. J. J. van Dam, D. Wang, T. L. Windus,
        J. Hammond, J. Autschbach, K. Bhaskaran-Nair, J. Brabec, K. Lopata,
    S. A. Fischer, S. Krishnamoorthy, M. Jacquelin, W. Ma, M. Klemm, O. Villa,
      Y. Chen, V. Anisimov, F. Aquino, S. Hirata, M. T. Hackler, V. Konjkov,
            D. Mejia-Rodriguez, T. Risthaus, M. Malagoli, A. Marenich,
   A. Otero-de-la-Roza, J. Mullin, P. Nichols, R. Peverati, J. Pittner, Y. Zhao,
        P.-D. Fan, A. Fonari, M. J. Williamson, R. J. Harrison, J. R. Rehr,
      M. Dupuis, D. Silverstein, D. M. A. Smith, J. Nieplocha, V. Tipparaju,
    M. Krishnan, B. E. Van Kuiken, A. Vazquez-Mayagoitia, L. Jensen, M. Swart,
      Q. Wu, T. Van Voorhis, A. A. Auer, M. Nooijen, L. D. Crosby, E. Brown,
      G. Cisneros, G. I. Fann, H. Fruchtl, J. Garza, K. Hirao, R. A. Kendall,
      J. A. Nichols, K. Tsemekhman, K. Wolinski, J. Anchell, D. E. Bernholdt,
      P. Borowski, T. Clark, D. Clerc, H. Dachsel, M. J. O. Deegan, K. Dyall,
    D. Elwood, E. Glendening, M. Gutowski, A. C. Hess, J. Jaffe, B. G. Johnson,
     J. Ju, R. Kobayashi, R. Kutteh, Z. Lin, R. Littlefield, X. Long, B. Meng,
      T. Nakajima, S. Niu, L. Pollack, M. Rosing, K. Glaesemann, G. Sandrone,
      M. Stave, H. Taylor, G. Thomas, J. H. van Lenthe, A. T. Wong, Z. Zhang.

 Total times  cpu:     8042.5s     wall:     8343.8s
