 argument  1 = naproxen_355.9_050.inp
 


============================== echo of input deck ==============================
echo
start naproxen_355.9_050.inp
title "naproxen roa calculations at 355.9 nm"
charge 0



geometry units angstrom nocenter noautoz noautosym nucleus point;symmetry c1
 O -2.050011 -0.722066 -0.456174
 C -0.673375 -0.645638 -0.541017
 C -0.122289  0.622689 -0.437001
 C  1.282230  0.813831 -0.510608
 C  1.887443  2.098781 -0.404781
 C  3.260561  2.244583 -0.480480
 C  4.115668  1.123961 -0.672256
 C  3.549761 -0.135600 -0.772256
 C  2.142725 -0.326974 -0.697228
 C  0.168202 -1.779040 -0.724185
 C  5.636277  1.350735 -0.764005
 C  6.329439  0.808470  0.491239
 O  6.541221 -0.550983  0.437018
 O  6.660298  1.475788  1.451780
 C  6.257871  0.813804 -2.075246
 H  5.809901  2.432345 -0.713024
 H  5.784897  1.303425 -2.935510
 H  6.120966 -0.267927 -2.175080
 H  7.335281  1.023209 -2.108970
 H  6.954217 -0.792388  1.293632
 H  1.239795  2.963773 -0.260780
 H  3.718542  3.230024 -0.394418
 H  4.186854 -1.009953 -0.901904
 C  1.541437 -1.611703 -0.799007
 H -0.267558 -2.771198 -0.804827
 H  2.190343 -2.476609 -0.939456
 H -0.792543  1.469842 -0.296096
 C -2.679711 -2.008383 -0.553210
 H -2.362420 -2.681049  0.258045
 H -2.485660 -2.486284 -1.525471
 H -3.751567 -1.810860 -0.457613
end

basis spherical
* library def2-TZVP
end

 set prop:newaoresp 1
 set aor:roadata T
 set cphf:maxsub 100
 set cphf:acc 1.0d-10
 set cphf:maxiter 100

property
    response 1   0.128023
    bdtensor
    convergence 1e-7
    damping 0.0037
    giao
end

dft
 direct
 mult 1
 xc becke88 lyp
 iterations 250
 tolerances tight
 grid xfine
 convergence nolevelshifting
 convergence energy 1e-6
 convergence gradient 1e-6


end

task dft gradient
task dft property
================================================================================


                                         
                                         
 
 
              Northwest Computational Chemistry Package (NWChem) 6.8
              ------------------------------------------------------
 
 
                    Environmental Molecular Sciences Laboratory
                       Pacific Northwest National Laboratory
                                Richland, WA 99352
 
                              Copyright (c) 1994-2017
                       Pacific Northwest National Laboratory
                            Battelle Memorial Institute
 
             NWChem is an open-source computational chemistry package
                        distributed under the terms of the
                      Educational Community License (ECL) 2.0
             A copy of the license is included with this distribution
                              in the LICENSE.TXT file
 
                                  ACKNOWLEDGMENT
                                  --------------

            This software and its documentation were developed at the
            EMSL at Pacific Northwest National Laboratory, a multiprogram
            national laboratory, operated for the U.S. Department of Energy
            by Battelle under Contract Number DE-AC05-76RL01830. Support
            for this work was provided by the Department of Energy Office
            of Biological and Environmental Research, Office of Basic
            Energy Sciences, and the Office of Advanced Scientific Computing.


           Job information
           ---------------

    hostname        = cpn-f11-03.cbls.ccr.buffalo.edu
    program         = /util/academic/nwchem/nwchem-6.8/bin/LINUX64/nwchem
    date            = Tue Feb 26 18:42:47 2019

    compiled        = Tue_Nov_06_14:59:08_2018
    source          = /util/academic/nwchem/nwchem-6.8
    nwchem branch   = 6.8
    nwchem revision = v6.8-47-gdf6c956
    ga revision     = ga-5.6.3
    use scalapack   = F
    input           = naproxen_355.9_050.inp
    prefix          = naproxen_355.9_050.inp.
    data base       = ./naproxen_355.9_050.inp.db
    status          = startup
    nproc           =       11
    time left       =     -1s



           Memory information
           ------------------

    heap     =   13107194 doubles =    100.0 Mbytes
    stack    =   13107199 doubles =    100.0 Mbytes
    global   =   26214400 doubles =    200.0 Mbytes (distinct from heap & stack)
    total    =   52428793 doubles =    400.0 Mbytes
    verify   = yes
    hardfail = no 


           Directory information
           ---------------------
 
  0 permanent = .
  0 scratch   = .
 
 
 
 
                                NWChem Input Module
                                -------------------
 
 
                       naproxen roa calculations at 355.9 nm
                       -------------------------------------

 Scaling coordinates for geometry "geometry" by  1.889725989
 (inverse scale =  0.529177249)

 
 
                             Geometry "geometry" -> ""
                             -------------------------
 
 Output coordinates in angstroms (scale by  1.889725989 to convert to a.u.)
 
  No.       Tag          Charge          X              Y              Z
 ---- ---------------- ---------- -------------- -------------- --------------
    1 O                    8.0000    -2.05001100    -0.72206600    -0.45617400
    2 C                    6.0000    -0.67337500    -0.64563800    -0.54101700
    3 C                    6.0000    -0.12228900     0.62268900    -0.43700100
    4 C                    6.0000     1.28223000     0.81383100    -0.51060800
    5 C                    6.0000     1.88744300     2.09878100    -0.40478100
    6 C                    6.0000     3.26056100     2.24458300    -0.48048000
    7 C                    6.0000     4.11566800     1.12396100    -0.67225600
    8 C                    6.0000     3.54976100    -0.13560000    -0.77225600
    9 C                    6.0000     2.14272500    -0.32697400    -0.69722800
   10 C                    6.0000     0.16820200    -1.77904000    -0.72418500
   11 C                    6.0000     5.63627700     1.35073500    -0.76400500
   12 C                    6.0000     6.32943900     0.80847000     0.49123900
   13 O                    8.0000     6.54122100    -0.55098300     0.43701800
   14 O                    8.0000     6.66029800     1.47578800     1.45178000
   15 C                    6.0000     6.25787100     0.81380400    -2.07524600
   16 H                    1.0000     5.80990100     2.43234500    -0.71302400
   17 H                    1.0000     5.78489700     1.30342500    -2.93551000
   18 H                    1.0000     6.12096600    -0.26792700    -2.17508000
   19 H                    1.0000     7.33528100     1.02320900    -2.10897000
   20 H                    1.0000     6.95421700    -0.79238800     1.29363200
   21 H                    1.0000     1.23979500     2.96377300    -0.26078000
   22 H                    1.0000     3.71854200     3.23002400    -0.39441800
   23 H                    1.0000     4.18685400    -1.00995300    -0.90190400
   24 C                    6.0000     1.54143700    -1.61170300    -0.79900700
   25 H                    1.0000    -0.26755800    -2.77119800    -0.80482700
   26 H                    1.0000     2.19034300    -2.47660900    -0.93945600
   27 H                    1.0000    -0.79254300     1.46984200    -0.29609600
   28 C                    6.0000    -2.67971100    -2.00838300    -0.55321000
   29 H                    1.0000    -2.36242000    -2.68104900     0.25804500
   30 H                    1.0000    -2.48566000    -2.48628400    -1.52547100
   31 H                    1.0000    -3.75156700    -1.81086000    -0.45761300
 
      Atomic Mass 
      ----------- 
 
      O                 15.994910
      C                 12.000000
      H                  1.007825
 

 Effective nuclear repulsion energy (a.u.)    1121.0963476577

            Nuclear Dipole moment (a.u.) 
            ----------------------------
        X                 Y               Z
 ---------------- ---------------- ----------------
   602.9559029666    37.7290558839  -102.3111369628
 
 
            XYZ format geometry
            -------------------
    31
 geometry
 O                    -2.05001100    -0.72206600    -0.45617400
 C                    -0.67337500    -0.64563800    -0.54101700
 C                    -0.12228900     0.62268900    -0.43700100
 C                     1.28223000     0.81383100    -0.51060800
 C                     1.88744300     2.09878100    -0.40478100
 C                     3.26056100     2.24458300    -0.48048000
 C                     4.11566800     1.12396100    -0.67225600
 C                     3.54976100    -0.13560000    -0.77225600
 C                     2.14272500    -0.32697400    -0.69722800
 C                     0.16820200    -1.77904000    -0.72418500
 C                     5.63627700     1.35073500    -0.76400500
 C                     6.32943900     0.80847000     0.49123900
 O                     6.54122100    -0.55098300     0.43701800
 O                     6.66029800     1.47578800     1.45178000
 C                     6.25787100     0.81380400    -2.07524600
 H                     5.80990100     2.43234500    -0.71302400
 H                     5.78489700     1.30342500    -2.93551000
 H                     6.12096600    -0.26792700    -2.17508000
 H                     7.33528100     1.02320900    -2.10897000
 H                     6.95421700    -0.79238800     1.29363200
 H                     1.23979500     2.96377300    -0.26078000
 H                     3.71854200     3.23002400    -0.39441800
 H                     4.18685400    -1.00995300    -0.90190400
 C                     1.54143700    -1.61170300    -0.79900700
 H                    -0.26755800    -2.77119800    -0.80482700
 H                     2.19034300    -2.47660900    -0.93945600
 H                    -0.79254300     1.46984200    -0.29609600
 C                    -2.67971100    -2.00838300    -0.55321000
 H                    -2.36242000    -2.68104900     0.25804500
 H                    -2.48566000    -2.48628400    -1.52547100
 H                    -3.75156700    -1.81086000    -0.45761300
 
 ==============================================================================
                                internuclear distances
 ------------------------------------------------------------------------------
       center one      |      center two      | atomic units |  angstroms
 ------------------------------------------------------------------------------
    2 C                |   1 O                |     2.61040  |     1.38136
    3 C                |   2 C                |     2.62064  |     1.38678
    4 C                |   3 C                |     2.68223  |     1.41938
    5 C                |   4 C                |     2.69150  |     1.42428
    6 C                |   5 C                |     2.61332  |     1.38291
    7 C                |   6 C                |     2.68832  |     1.42260
    8 C                |   7 C                |     2.61626  |     1.38447
    9 C                |   4 C                |     2.72325  |     1.44108
    9 C                |   8 C                |     2.68714  |     1.42197
   10 C                |   2 C                |     2.69006  |     1.42352
   11 C                |   7 C                |     2.91048  |     1.54016
   12 C                |  11 C                |     2.89700  |     1.53302
   13 O                |  12 C                |     2.60200  |     1.37692
   14 O                |  12 C                |     2.29695  |     1.21549
   15 C                |  11 C                |     2.92391  |     1.54726
   16 H                |  11 C                |     2.07235  |     1.09664
   17 H                |  15 C                |     2.07310  |     1.09704
   18 H                |  15 C                |     2.06910  |     1.09492
   19 H                |  15 C                |     2.07509  |     1.09809
   20 H                |  13 O                |     1.85408  |     0.98114
   21 H                |   5 C                |     2.06006  |     1.09014
   22 H                |   6 C                |     2.05993  |     1.09007
   23 H                |   8 C                |     2.05901  |     1.08958
   24 C                |   9 C                |     2.68742  |     1.42212
   24 C                |  10 C                |     2.61805  |     1.38541
   25 H                |  10 C                |     2.05344  |     1.08663
   26 H                |  24 C                |     2.06047  |     1.09035
   27 H                |   3 C                |     2.05864  |     1.08939
   28 C                |   1 O                |     2.71263  |     1.43546
   29 H                |  28 C                |     2.07980  |     1.10059
   30 H                |  28 C                |     2.07985  |     1.10061
   31 H                |  28 C                |     2.06753  |     1.09409
 ------------------------------------------------------------------------------
                         number of included internuclear distances:         32
 ==============================================================================



 ==============================================================================
                                 internuclear angles
 ------------------------------------------------------------------------------
        center 1       |       center 2       |       center 3       |  degrees
 ------------------------------------------------------------------------------
    2 C                |   1 O                |  28 C                |   118.86
    1 O                |   2 C                |   3 C                |   116.23
    1 O                |   2 C                |  10 C                |   123.57
    3 C                |   2 C                |  10 C                |   120.19
    2 C                |   3 C                |   4 C                |   120.83
    2 C                |   3 C                |  27 H                |   118.45
    4 C                |   3 C                |  27 H                |   120.72
    3 C                |   4 C                |   5 C                |   122.56
    3 C                |   4 C                |   9 C                |   119.40
    5 C                |   4 C                |   9 C                |   118.04
    4 C                |   5 C                |   6 C                |   120.86
    4 C                |   5 C                |  21 H                |   118.24
    6 C                |   5 C                |  21 H                |   120.89
    5 C                |   6 C                |   7 C                |   121.41
    5 C                |   6 C                |  22 H                |   120.54
    7 C                |   6 C                |  22 H                |   118.05
    6 C                |   7 C                |   8 C                |   118.73
    6 C                |   7 C                |  11 C                |   119.05
    8 C                |   7 C                |  11 C                |   122.22
    7 C                |   8 C                |   9 C                |   121.54
    7 C                |   8 C                |  23 H                |   119.98
    9 C                |   8 C                |  23 H                |   118.48
    4 C                |   9 C                |   8 C                |   119.42
    4 C                |   9 C                |  24 C                |   118.16
    8 C                |   9 C                |  24 C                |   122.42
    2 C                |  10 C                |  24 C                |   119.79
    2 C                |  10 C                |  25 H                |   119.96
   24 C                |  10 C                |  25 H                |   120.25
    7 C                |  11 C                |  12 C                |   110.22
    7 C                |  11 C                |  15 C                |   113.33
    7 C                |  11 C                |  16 H                |   107.38
   12 C                |  11 C                |  15 C                |   112.92
   12 C                |  11 C                |  16 H                |   103.84
   15 C                |  11 C                |  16 H                |   108.55
   11 C                |  12 C                |  13 O                |   112.74
   11 C                |  12 C                |  14 O                |   125.17
   13 O                |  12 C                |  14 O                |   122.09
   12 C                |  13 O                |  20 H                |   105.86
   11 C                |  15 C                |  17 H                |   109.66
   11 C                |  15 C                |  18 H                |   111.71
   11 C                |  15 C                |  19 H                |   110.73
   17 H                |  15 C                |  18 H                |   108.39
   17 H                |  15 C                |  19 H                |   108.29
   18 H                |  15 C                |  19 H                |   107.96
    9 C                |  24 C                |  10 C                |   121.62
    9 C                |  24 C                |  26 H                |   118.31
   10 C                |  24 C                |  26 H                |   120.07
    1 O                |  28 C                |  29 H                |   111.80
    1 O                |  28 C                |  30 H                |   111.81
    1 O                |  28 C                |  31 H                |   105.19
   29 H                |  28 C                |  30 H                |   109.57
   29 H                |  28 C                |  31 H                |   109.17
   30 H                |  28 C                |  31 H                |   109.17
 ------------------------------------------------------------------------------
                            number of included internuclear angles:         53
 ==============================================================================



  warning:::::::::::::: from_environment
  NWCHEM_BASIS_LIBRARY set to: <
 /util/academic/nwchem/nwchem-6.8/src/basis/libraries>
  but file does not exist !
  using .nwchemrc or compiled library


 Summary of "ao basis" -> "" (spherical)
 ------------------------------------------------------------------------------
       Tag                 Description            Shells   Functions and Types
 ---------------- ------------------------------  ------  ---------------------
 *                         def2-TZVP                  on all atoms 


 
                                 NWChem DFT Module
                                 -----------------
 
 
                       naproxen roa calculations at 355.9 nm
 
 
                      Basis "ao basis" -> "ao basis" (spherical)
                      -----
  O (Oxygen)
  ----------
            Exponent  Coefficients 
       -------------- ---------------------------------------------------------
  1 S  2.70323826E+04  0.000217
  1 S  4.05238714E+03  0.001684
  1 S  9.22327227E+02  0.008740
  1 S  2.61240710E+02  0.035240
  1 S  8.53546414E+01  0.111535
  1 S  3.10350352E+01  0.255890
 
  2 S  1.22608607E+01  0.397687
  2 S  4.99870760E+00  0.246278
 
  3 S  1.17031082E+00  1.000000
 
  4 S  4.64747410E-01  1.000000
 
  5 S  1.85045364E-01  1.000000
 
  6 P  6.32749548E+01  0.006069
  6 P  1.46270494E+01  0.041913
  6 P  4.45012235E+00  0.161538
  6 P  1.52757996E+00  0.357070
 
  7 P  5.29351179E-01  1.000000
 
  8 P  1.74784213E-01  1.000000
 
  9 D  2.31400000E+00  1.000000
 
 10 D  6.45000000E-01  1.000000
 
 11 F  1.42800000E+00  1.000000
 
  C (Carbon)
  ----------
            Exponent  Coefficients 
       -------------- ---------------------------------------------------------
  1 S  1.35753497E+04  0.000222
  1 S  2.03523337E+03  0.001723
  1 S  4.63225624E+02  0.008926
  1 S  1.31200196E+02  0.035728
  1 S  4.28530159E+01  0.110763
  1 S  1.55841858E+01  0.242956
 
  2 S  6.20671385E+00  0.414403
  2 S  2.57648965E+00  0.237450
 
  3 S  5.76963394E-01  1.000000
 
  4 S  2.29728314E-01  1.000000
 
  5 S  9.51644400E-02  1.000000
 
  6 P  3.46972322E+01  0.005333
  6 P  7.95826228E+00  0.035864
  6 P  2.37808269E+00  0.142159
  6 P  8.14332082E-01  0.342705
 
  7 P  2.88875473E-01  1.000000
 
  8 P  1.00568237E-01  1.000000
 
  9 D  1.09700000E+00  1.000000
 
 10 D  3.18000000E-01  1.000000
 
 11 F  7.61000000E-01  1.000000
 
  H (Hydrogen)
  ------------
            Exponent  Coefficients 
       -------------- ---------------------------------------------------------
  1 S  3.40613410E+01  0.006025
  1 S  5.12357460E+00  0.045021
  1 S  1.16466260E+00  0.201897
 
  2 S  3.27230410E-01  1.000000
 
  3 S  1.03072410E-01  1.000000
 
  4 P  8.00000000E-01  1.000000
 


 Summary of "ao basis" -> "ao basis" (spherical)
 ------------------------------------------------------------------------------
       Tag                 Description            Shells   Functions and Types
 ---------------- ------------------------------  ------  ---------------------
 O                         def2-TZVP                11       31   5s3p2d1f
 C                         def2-TZVP                11       31   5s3p2d1f
 H                         def2-TZVP                 4        6   3s1p




 Summary of "ao basis" -> "ao basis" (spherical)
 ------------------------------------------------------------------------------
       Tag                 Description            Shells   Functions and Types
 ---------------- ------------------------------  ------  ---------------------
 O                         def2-TZVP                11       31   5s3p2d1f
 C                         def2-TZVP                11       31   5s3p2d1f
 H                         def2-TZVP                 4        6   3s1p


  Caching 1-el integrals 
 
            General Information
            -------------------
          SCF calculation type: DFT
          Wavefunction type:  closed shell.
          No. of atoms     :    31
          No. of electrons :   122
           Alpha electrons :    61
            Beta electrons :    61
          Charge           :     0
          Spin multiplicity:     1
          Use of symmetry is: off; symmetry adaption is: off
          Maximum number of iterations: 250
          This is a Direct SCF calculation.
          AO basis - number of functions:   611
                     number of shells:   243
          Convergence on energy requested:  1.00D-06
          Convergence on density requested:  1.00D-05
          Convergence on gradient requested:  1.00D-06
 
              XC Information
              --------------
                    Becke 1988 Exchange Functional  1.000          
              Lee-Yang-Parr Correlation Functional  1.000          
 
             Grid Information
             ----------------
          Grid used for XC integration:  xfine     
          Radial quadrature: Mura-Knowles        
          Angular quadrature: Lebedev. 
          Tag              B.-S. Rad. Rad. Pts. Rad. Cut. Ang. Pts.
          ---              ---------- --------- --------- ---------
          O                   0.60      100          18.0      1454
          C                   0.70      100          20.0      1454
          H                   0.35      100          19.0      1202
          Grid pruning is: on 
          Number of quadrature shells:  3100
          Spatial weights used:  Erf1
 
          Convergence Information
          -----------------------
          Convergence aids based upon iterative change in 
          total energy or number of iterations. 
          Levelshifting, if invoked, occurs when the 
          HOMO/LUMO gap drops below (HL_TOL):  1.00D-02
          DIIS, if invoked, will attempt to extrapolate 
          using up to (NFOCK): 10 stored Fock matrices.

                    Damping( 0%)  Levelshifting(0.0)       DIIS
                  --------------- ------------------- ---------------
          dE  on:    start             N/A                start   
          dE off:    2 iters           N/A              250 iters 

 
      Screening Tolerance Information
      -------------------------------
          Density screening/tol_rho:  1.00D-10
          AO Gaussian exp screening on grid/accAOfunc:  14
          CD Gaussian exp screening on grid/accCDfunc:  20
          XC Gaussian exp screening on grid/accXCfunc:  20
          Schwarz screening/accCoul:  1.00D-08

 
 WARNING : Found     2 linear dependencies 
 S eigenvalue threshold:     1.00000E-05
 Smallest S eigenvalue :     5.89081E-06
 Largest  S eigenvalue :     7.46959E-06
 

 !! The overlap matrix has   2 vectors deemed linearly dependent with
    eigenvalues:
 5.89D-06 7.47D-06
 
 
      Superposition of Atomic Density Guess
      -------------------------------------
 
 Sum of atomic energies:        -758.74884536
 
      Non-variational initial energy
      ------------------------------

 Total energy =    -769.925102
 1-e energy   =   -3254.730196
 2-e energy   =    1363.708747
 HOMO         =      -0.233784
 LUMO         =      -0.059538
 
   Time after variat. SCF:     46.7
   Time prior to 1st pass:     46.7

 Grid_pts file          = ./naproxen_355.9_050.inp.gridpts.00
 Record size in doubles =  12289        No. of grid_pts per rec  =   3070
 Max. records in memory =    148        Max. recs in file   =    580248

 Grid integrated density:     121.999622420374
 Requested integration accuracy:   0.10E-07

           Memory utilization after 1st SCF pass: 
           Heap Space remaining (MW):       11.15            11149714
          Stack Space remaining (MW):       13.10            13102884

   convergence    iter        energy       DeltaE   RMS-Dens  Diis-err    time
 ---------------- ----- ----------------- --------- --------- ---------  ------
 d= 0,ls=0.0,diis     1   -767.2412450567 -1.89D+03  5.47D-03  4.15D+00   110.6
 Grid integrated density:     122.000001688274
 Requested integration accuracy:   0.10E-07
 d= 0,ls=0.0,diis     2   -766.6600428742  5.81D-01  4.11D-03  9.90D+00   173.9
 Grid integrated density:     122.000001650645
 Requested integration accuracy:   0.10E-07
 d= 0,ls=0.0,diis     3   -767.4268243625 -7.67D-01  2.22D-03  2.18D+00   237.1
 Grid integrated density:     122.000001771282
 Requested integration accuracy:   0.10E-07
 d= 0,ls=0.0,diis     4   -767.5759384176 -1.49D-01  1.03D-03  5.80D-01   300.4
 Grid integrated density:     122.000001759306
 Requested integration accuracy:   0.10E-07
 d= 0,ls=0.0,diis     5   -767.6237507940 -4.78D-02  3.24D-04  5.02D-02   363.7
 Grid integrated density:     122.000001735258
 Requested integration accuracy:   0.10E-07
 d= 0,ls=0.0,diis     6   -767.6272709171 -3.52D-03  1.35D-04  1.20D-02   427.1
 Grid integrated density:     122.000001734678
 Requested integration accuracy:   0.10E-07
 d= 0,ls=0.0,diis     7   -767.6287590420 -1.49D-03  5.25D-05  1.53D-03   490.3
 Grid integrated density:     122.000001738214
 Requested integration accuracy:   0.10E-07
 d= 0,ls=0.0,diis     8   -767.6289382330 -1.79D-04  2.00D-05  1.88D-04   553.7
 Grid integrated density:     122.000001738729
 Requested integration accuracy:   0.10E-07
 d= 0,ls=0.0,diis     9   -767.6289621399 -2.39D-05  6.48D-06  1.83D-05   616.9
 Grid integrated density:     122.000001738360
 Requested integration accuracy:   0.10E-07
 d= 0,ls=0.0,diis    10   -767.6289640960 -1.96D-06  2.23D-06  2.47D-06   680.2
 Grid integrated density:     122.000001738313
 Requested integration accuracy:   0.10E-07
 d= 0,ls=0.0,diis    11   -767.6289643508 -2.55D-07  9.93D-07  4.52D-07   743.5


         Total DFT energy =     -767.628964350771
      One electron energy =    -3268.691300156413
           Coulomb energy =     1486.771927801004
    Exchange-Corr. energy =     -106.805939653094
 Nuclear repulsion energy =     1121.096347657732

 Numeric. integr. density =      122.000001738313

     Total iterative time =    696.9s


 
                       DFT Final Molecular Orbital Analysis
                       ------------------------------------
 
 Vector    1  Occ=2.000000D+00  E=-1.882035D+01
              MO Center=  6.5D+00, -5.5D-01,  4.4D-01, r^2= 1.5D-02
   Bfn.  Coefficient  Atom+Function         Bfn.  Coefficient  Atom+Function  
  ----- ------------  ---------------      ----- ------------  ---------------
   374      0.638456  13 O  s               373      0.435410  13 O  s         
   375      0.039864  13 O  s               376     -0.034331  13 O  s         
 
 Vector    2  Occ=2.000000D+00  E=-1.880692D+01
              MO Center= -2.0D+00, -7.2D-01, -4.6D-01, r^2= 1.5D-02
   Bfn.  Coefficient  Atom+Function         Bfn.  Coefficient  Atom+Function  
  ----- ------------  ---------------      ----- ------------  ---------------
     2      0.638265   1 O  s                 1      0.435459   1 O  s         
     3      0.041742   1 O  s                 4     -0.039574   1 O  s         
 
 Vector    3  Occ=2.000000D+00  E=-1.876370D+01
              MO Center=  6.7D+00,  1.5D+00,  1.5D+00, r^2= 1.5D-02
   Bfn.  Coefficient  Atom+Function         Bfn.  Coefficient  Atom+Function  
  ----- ------------  ---------------      ----- ------------  ---------------
   405      0.638440  14 O  s               404      0.435400  14 O  s         
   406      0.039995  14 O  s               407     -0.036670  14 O  s         
 
 Vector    4  Occ=2.000000D+00  E=-1.003477D+01
              MO Center=  6.3D+00,  8.1D-01,  4.9D-01, r^2= 2.8D-02
   Bfn.  Coefficient  Atom+Function         Bfn.  Coefficient  Atom+Function  
  ----- ------------  ---------------      ----- ------------  ---------------
   343      0.606442  12 C  s               342      0.467376  12 C  s         
   344      0.043260  12 C  s         
 
 Vector    5  Occ=2.000000D+00  E=-9.970467D+00
              MO Center= -6.7D-01, -6.5D-01, -5.4D-01, r^2= 2.8D-02
   Bfn.  Coefficient  Atom+Function         Bfn.  Coefficient  Atom+Function  
  ----- ------------  ---------------      ----- ------------  ---------------
    33      0.606510   2 C  s                32      0.467312   2 C  s         
    34      0.047626   2 C  s                35     -0.034117   2 C  s         
   106      0.026484   4 C  py              260     -0.025387   9 C  px        
 
 Vector    6  Occ=2.000000D+00  E=-9.965582D+00
              MO Center= -2.7D+00, -2.0D+00, -5.5D-01, r^2= 2.8D-02
   Bfn.  Coefficient  Atom+Function         Bfn.  Coefficient  Atom+Function  
  ----- ------------  ---------------      ----- ------------  ---------------
   564      0.606999  28 C  s               563      0.467299  28 C  s         
   565      0.040031  28 C  s               567      0.027822  28 C  s         
 
 Vector    7  Occ=2.000000D+00  E=-9.935736D+00
              MO Center=  5.6D+00,  1.4D+00, -7.6D-01, r^2= 2.8D-02
   Bfn.  Coefficient  Atom+Function         Bfn.  Coefficient  Atom+Function  
  ----- ------------  ---------------      ----- ------------  ---------------
   312      0.606566  11 C  s               311      0.467317  11 C  s         
   315      0.092600  11 C  s               314     -0.051511  11 C  s         
   313      0.048540  11 C  s         
 
 Vector    8  Occ=2.000000D+00  E=-9.921924D+00
              MO Center=  4.1D+00,  1.1D+00, -6.7D-01, r^2= 3.6D-02
   Bfn.  Coefficient  Atom+Function         Bfn.  Coefficient  Atom+Function  
  ----- ------------  ---------------      ----- ------------  ---------------
   188      0.605925   7 C  s               187      0.466971   7 C  s         
   189      0.053859   7 C  s               190     -0.051882   7 C  s         
   191      0.043554   7 C  s               159      0.030428   6 C  s         
 
 Vector    9  Occ=2.000000D+00  E=-9.921497D+00
              MO Center=  1.3D+00,  8.1D-01, -5.1D-01, r^2= 3.7D-02
   Bfn.  Coefficient  Atom+Function         Bfn.  Coefficient  Atom+Function  
  ----- ------------  ---------------      ----- ------------  ---------------
    95      0.605613   4 C  s                94      0.466790   4 C  s         
    97     -0.061107   4 C  s                96      0.055643   4 C  s         
   252      0.054011   9 C  s                66      0.036569   3 C  s         
   128      0.032751   5 C  s               315      0.028385  11 C  s         
 
 Vector   10  Occ=2.000000D+00  E=-9.918487D+00
              MO Center=  2.1D+00, -3.4D-01, -7.0D-01, r^2= 5.4D-02
   Bfn.  Coefficient  Atom+Function         Bfn.  Coefficient  Atom+Function  
  ----- ------------  ---------------      ----- ------------  ---------------
   250      0.602289   9 C  s               249      0.464258   9 C  s         
   515      0.065134  24 C  s               252     -0.061801   9 C  s         
    97      0.056774   4 C  s               251      0.056063   9 C  s         
   514      0.050014  24 C  s               221      0.038972   8 C  s         
   517      0.034714  24 C  s         
 
 Vector   11  Occ=2.000000D+00  E=-9.917203D+00
              MO Center=  1.4D+00, -1.6D+00, -7.9D-01, r^2= 1.8D-01
   Bfn.  Coefficient  Atom+Function         Bfn.  Coefficient  Atom+Function  
  ----- ------------  ---------------      ----- ------------  ---------------
   515      0.580226  24 C  s               514      0.446886  24 C  s         
   281      0.165103  10 C  s               280      0.126995  10 C  s         
   250     -0.063846   9 C  s               249     -0.049367   9 C  s         
   516      0.044128  24 C  s               252      0.035041   9 C  s         
   261     -0.034562   9 C  py              253     -0.030567   9 C  s         
 
 Vector   12  Occ=2.000000D+00  E=-9.916437D+00
              MO Center=  2.7D-01, -1.8D+00, -7.3D-01, r^2= 1.6D-01
   Bfn.  Coefficient  Atom+Function         Bfn.  Coefficient  Atom+Function  
  ----- ------------  ---------------      ----- ------------  ---------------
   281      0.583774  10 C  s               280      0.449583  10 C  s         
   515     -0.164478  24 C  s               514     -0.126836  24 C  s         
   282      0.042356  10 C  s         
 
 Vector   13  Occ=2.000000D+00  E=-9.911392D+00
              MO Center=  3.2D+00,  2.2D+00, -4.8D-01, r^2= 8.8D-02
   Bfn.  Coefficient  Atom+Function         Bfn.  Coefficient  Atom+Function  
  ----- ------------  ---------------      ----- ------------  ---------------
   157      0.596811   6 C  s               156      0.459596   6 C  s         
   126      0.108506   5 C  s               125      0.083430   5 C  s         
   158      0.044141   6 C  s         
 
 Vector   14  Occ=2.000000D+00  E=-9.910471D+00
              MO Center=  3.5D+00, -1.3D-01, -7.7D-01, r^2= 4.1D-02
   Bfn.  Coefficient  Atom+Function         Bfn.  Coefficient  Atom+Function  
  ----- ------------  ---------------      ----- ------------  ---------------
   219      0.605791   8 C  s               218      0.466714   8 C  s         
   220      0.047563   8 C  s               252      0.034023   9 C  s         
   315      0.032750  11 C  s               222     -0.025343   8 C  s         
 
 Vector   15  Occ=2.000000D+00  E=-9.910217D+00
              MO Center=  1.9D+00,  2.1D+00, -4.1D-01, r^2= 9.8D-02
   Bfn.  Coefficient  Atom+Function         Bfn.  Coefficient  Atom+Function  
  ----- ------------  ---------------      ----- ------------  ---------------
   126      0.596410   5 C  s               125      0.459394   5 C  s         
   157     -0.107901   6 C  s               156     -0.083248   6 C  s         
   127      0.044896   5 C  s               106      0.033669   4 C  py        
    97      0.029074   4 C  s                98     -0.026326   4 C  s         
   260     -0.026261   9 C  px        
 
 Vector   16  Occ=2.000000D+00  E=-9.907935D+00
              MO Center=  6.3D+00,  8.1D-01, -2.1D+00, r^2= 2.8D-02
   Bfn.  Coefficient  Atom+Function         Bfn.  Coefficient  Atom+Function  
  ----- ------------  ---------------      ----- ------------  ---------------
   436      0.606867  15 C  s               435      0.467240  15 C  s         
   437      0.042026  15 C  s               439      0.036048  15 C  s         
   438     -0.027445  15 C  s         
 
 Vector   17  Occ=2.000000D+00  E=-9.905965D+00
              MO Center= -1.2D-01,  6.2D-01, -4.4D-01, r^2= 2.8D-02
   Bfn.  Coefficient  Atom+Function         Bfn.  Coefficient  Atom+Function  
  ----- ------------  ---------------      ----- ------------  ---------------
    64      0.606496   3 C  s                63      0.467189   3 C  s         
    65      0.046088   3 C  s               105     -0.033556   4 C  px        
    97      0.029097   4 C  s         
 
 Vector   18  Occ=2.000000D+00  E=-1.002567D+00
              MO Center=  6.6D+00,  2.1D-01,  7.5D-01, r^2= 1.1D+00
   Bfn.  Coefficient  Atom+Function         Bfn.  Coefficient  Atom+Function  
  ----- ------------  ---------------      ----- ------------  ---------------
   376      0.331188  13 O  s               375      0.252760  13 O  s         
   407      0.193902  14 O  s               344      0.189639  12 C  s         
   374     -0.173700  13 O  s               406      0.165524  14 O  s         
   345      0.147005  12 C  s               343     -0.117470  12 C  s         
   405     -0.112470  14 O  s               377      0.103821  13 O  s         
 
 Vector   19  Occ=2.000000D+00  E=-9.653191D-01
              MO Center= -1.9D+00, -8.9D-01, -4.9D-01, r^2= 6.9D-01
   Bfn.  Coefficient  Atom+Function         Bfn.  Coefficient  Atom+Function  
  ----- ------------  ---------------      ----- ------------  ---------------
     4      0.424186   1 O  s                 3      0.309719   1 O  s         
     2     -0.214783   1 O  s                 5      0.137340   1 O  s         
    34      0.125876   2 C  s               565      0.102928  28 C  s         
     1     -0.092325   1 O  s                35      0.088850   2 C  s         
    37     -0.079495   2 C  px              566      0.079384  28 C  s         
 
 Vector   20  Occ=2.000000D+00  E=-9.206971D-01
              MO Center=  6.6D+00,  7.1D-01,  9.7D-01, r^2= 1.3D+00
   Bfn.  Coefficient  Atom+Function         Bfn.  Coefficient  Atom+Function  
  ----- ------------  ---------------      ----- ------------  ---------------
   407      0.325146  14 O  s               376     -0.284991  13 O  s         
   406      0.268238  14 O  s               375     -0.208648  13 O  s         
   405     -0.179872  14 O  s               374      0.142655  13 O  s         
   348      0.137880  12 C  py              408      0.113458  14 O  s         
   377     -0.106629  13 O  s               349      0.105369  12 C  pz        
 
 Vector   21  Occ=2.000000D+00  E=-7.884023D-01
              MO Center=  2.0D+00,  3.3D-01, -6.1D-01, r^2= 3.9D+00
   Bfn.  Coefficient  Atom+Function         Bfn.  Coefficient  Atom+Function  
  ----- ------------  ---------------      ----- ------------  ---------------
   251      0.158490   9 C  s                96      0.155403   4 C  s         
   252      0.141710   9 C  s                97      0.138582   4 C  s         
   220      0.116557   8 C  s               189      0.110146   7 C  s         
   190      0.108398   7 C  s               127      0.105513   5 C  s         
   516      0.104139  24 C  s               250     -0.102258   9 C  s         
 
 Vector   22  Occ=2.000000D+00  E=-7.507673D-01
              MO Center=  2.8D+00,  3.7D-01, -6.7D-01, r^2= 8.2D+00
   Bfn.  Coefficient  Atom+Function         Bfn.  Coefficient  Atom+Function  
  ----- ------------  ---------------      ----- ------------  ---------------
   189      0.160450   7 C  s               190      0.159743   7 C  s         
   314      0.158188  11 C  s               313      0.137915  11 C  s         
   282     -0.118986  10 C  s                34     -0.112605   2 C  s         
    35     -0.109533   2 C  s               158      0.108946   6 C  s         
   188     -0.103590   7 C  s               283     -0.103216  10 C  s         
 
 Vector   23  Occ=2.000000D+00  E=-7.138367D-01
              MO Center=  3.4D+00,  6.8D-01, -7.5D-01, r^2= 9.5D+00
   Bfn.  Coefficient  Atom+Function         Bfn.  Coefficient  Atom+Function  
  ----- ------------  ---------------      ----- ------------  ---------------
   314      0.211661  11 C  s               313      0.170501  11 C  s         
   127     -0.140465   5 C  s               437      0.129101  15 C  s         
   128     -0.125173   5 C  s               438      0.122255  15 C  s         
   282      0.116163  10 C  s               312     -0.111744  11 C  s         
   283      0.106099  10 C  s                97     -0.097341   4 C  s         
 
 Vector   24  Occ=2.000000D+00  E=-6.948551D-01
              MO Center=  1.1D+00, -2.0D-01, -6.2D-01, r^2= 6.1D+00
   Bfn.  Coefficient  Atom+Function         Bfn.  Coefficient  Atom+Function  
  ----- ------------  ---------------      ----- ------------  ---------------
   252     -0.169717   9 C  s                65      0.157345   3 C  s         
   516     -0.156280  24 C  s               251     -0.137817   9 C  s         
    66      0.128906   3 C  s               517     -0.129345  24 C  s         
   220     -0.125706   8 C  s                35      0.122129   2 C  s         
    34      0.108743   2 C  s                97      0.107406   4 C  s         
 
 Vector   25  Occ=2.000000D+00  E=-6.625221D-01
              MO Center=  1.7D+00,  2.0D-01, -7.2D-01, r^2= 1.2D+01
   Bfn.  Coefficient  Atom+Function         Bfn.  Coefficient  Atom+Function  
  ----- ------------  ---------------      ----- ------------  ---------------
    97      0.166820   4 C  s                96      0.150811   4 C  s         
   566      0.145664  28 C  s               565      0.142355  28 C  s         
   190     -0.138649   7 C  s                35     -0.127184   2 C  s         
   158     -0.120746   6 C  s               189     -0.120139   7 C  s         
   438      0.119705  15 C  s               437      0.116182  15 C  s         
 
 Vector   26  Occ=2.000000D+00  E=-6.554920D-01
              MO Center=  1.1D+00, -2.2D-01, -6.2D-01, r^2= 8.2D+00
   Bfn.  Coefficient  Atom+Function         Bfn.  Coefficient  Atom+Function  
  ----- ------------  ---------------      ----- ------------  ---------------
   283      0.173076  10 C  s               282      0.162651  10 C  s         
   221     -0.151686   8 C  s               220     -0.150239   8 C  s         
   159      0.140555   6 C  s               158      0.139269   6 C  s         
   566      0.128569  28 C  s               128      0.125536   5 C  s         
   565      0.122119  28 C  s               127      0.120977   5 C  s         
 
 Vector   27  Occ=2.000000D+00  E=-6.186433D-01
              MO Center=  7.5D-01, -3.7D-01, -7.6D-01, r^2= 1.4D+01
   Bfn.  Coefficient  Atom+Function         Bfn.  Coefficient  Atom+Function  
  ----- ------------  ---------------      ----- ------------  ---------------
   566      0.198266  28 C  s               565      0.186444  28 C  s         
    66      0.151972   3 C  s                65      0.134521   3 C  s         
   438     -0.129333  15 C  s               190      0.126858   7 C  s         
     4     -0.120612   1 O  s               437     -0.119321  15 C  s         
   564     -0.113406  28 C  s               189      0.110014   7 C  s         
 
 Vector   28  Occ=2.000000D+00  E=-5.963871D-01
              MO Center=  5.5D+00,  4.3D-01, -9.2D-01, r^2= 7.7D+00
   Bfn.  Coefficient  Atom+Function         Bfn.  Coefficient  Atom+Function  
  ----- ------------  ---------------      ----- ------------  ---------------
   438      0.236170  15 C  s               437      0.208552  15 C  s         
   345     -0.157736  12 C  s               344     -0.153476  12 C  s         
   436     -0.131140  15 C  s               314     -0.129725  11 C  s         
   318     -0.111881  11 C  pz              379     -0.110719  13 O  py        
   349      0.096030  12 C  pz              407      0.092258  14 O  s         
 
 Vector   29  Occ=2.000000D+00  E=-5.688867D-01
              MO Center=  2.6D+00,  7.2D-02, -4.5D-01, r^2= 9.6D+00
   Bfn.  Coefficient  Atom+Function         Bfn.  Coefficient  Atom+Function  
  ----- ------------  ---------------      ----- ------------  ---------------
   221      0.155429   8 C  s               517     -0.134853  24 C  s         
   283      0.129933  10 C  s               516     -0.116724  24 C  s         
    66     -0.115399   3 C  s               159     -0.113465   6 C  s         
   282      0.112048  10 C  s               128      0.108835   5 C  s         
   193     -0.108781   7 C  py              220      0.109322   8 C  s         
 
 Vector   30  Occ=2.000000D+00  E=-5.462234D-01
              MO Center=  2.8D+00,  2.2D-01, -3.5D-01, r^2= 1.3D+01
   Bfn.  Coefficient  Atom+Function         Bfn.  Coefficient  Atom+Function  
  ----- ------------  ---------------      ----- ------------  ---------------
    97      0.170612   4 C  s               379     -0.139370  13 O  py        
    96      0.128569   4 C  s               159     -0.128244   6 C  s         
   314      0.117235  11 C  s               158     -0.112780   6 C  s         
   382     -0.108389  13 O  py              345     -0.107004  12 C  s         
   283      0.099414  10 C  s                38     -0.098197   2 C  py        
 
 Vector   31  Occ=2.000000D+00  E=-5.353278D-01
              MO Center=  1.6D+00, -2.5D-02, -6.2D-01, r^2= 5.9D+00
   Bfn.  Coefficient  Atom+Function         Bfn.  Coefficient  Atom+Function  
  ----- ------------  ---------------      ----- ------------  ---------------
   252      0.175559   9 C  s               517     -0.146228  24 C  s         
   251      0.133367   9 C  s                35      0.122595   2 C  s         
    66     -0.122670   3 C  s               100     -0.121524   4 C  py        
   516     -0.118290  24 C  s               221     -0.105602   8 C  s         
   128     -0.100287   5 C  s               285     -0.098495  10 C  px        
 
 Vector   32  Occ=2.000000D+00  E=-5.185944D-01
              MO Center=  3.4D+00,  2.8D-01, -4.0D-01, r^2= 1.3D+01
   Bfn.  Coefficient  Atom+Function         Bfn.  Coefficient  Atom+Function  
  ----- ------------  ---------------      ----- ------------  ---------------
   314      0.178888  11 C  s               379     -0.149178  13 O  py        
   190     -0.123022   7 C  s               128      0.117691   5 C  s         
   348      0.118149  12 C  py              382     -0.117450  13 O  py        
   313      0.110831  11 C  s                35      0.100843   2 C  s         
   127      0.100669   5 C  s               189     -0.095473   7 C  s         
 
 Vector   33  Occ=2.000000D+00  E=-4.759685D-01
              MO Center= -3.8D-02, -6.7D-01, -5.7D-01, r^2= 9.2D+00
   Bfn.  Coefficient  Atom+Function         Bfn.  Coefficient  Atom+Function  
  ----- ------------  ---------------      ----- ------------  ---------------
     6      0.200912   1 O  px               37     -0.167414   2 C  px        
   569     -0.167837  28 C  py                9      0.161188   1 O  px        
   572     -0.105920  28 C  py                7      0.103680   1 O  py        
   286     -0.102212  10 C  py              131     -0.097299   5 C  py        
    40     -0.095553   2 C  px              221     -0.094314   8 C  s         
 
 Vector   34  Occ=2.000000D+00  E=-4.595141D-01
              MO Center=  2.1D+00,  7.3D-02, -6.0D-01, r^2= 1.0D+01
   Bfn.  Coefficient  Atom+Function         Bfn.  Coefficient  Atom+Function  
  ----- ------------  ---------------      ----- ------------  ---------------
   254      0.133350   9 C  px              286     -0.133553  10 C  py        
   223     -0.120860   8 C  px              546      0.117543  25 H  s         
   283      0.113935  10 C  s               190     -0.113315   7 C  s         
    66      0.112593   3 C  s               128     -0.111346   5 C  s         
    35     -0.106653   2 C  s               316      0.101204  11 C  px        
 
 Vector   35  Occ=2.000000D+00  E=-4.538256D-01
              MO Center=  1.9D+00,  2.9D-01, -4.8D-01, r^2= 1.1D+01
   Bfn.  Coefficient  Atom+Function         Bfn.  Coefficient  Atom+Function  
  ----- ------------  ---------------      ----- ------------  ---------------
    38      0.127760   2 C  py              285      0.113496  10 C  px        
   161     -0.107214   6 C  px               99      0.105893   4 C  px        
    68     -0.104497   3 C  px              224      0.103348   8 C  py        
   519     -0.097569  24 C  px                6     -0.093705   1 O  px        
    69     -0.093809   3 C  py              316      0.092124  11 C  px        
 
 Vector   36  Occ=2.000000D+00  E=-4.258021D-01
              MO Center=  5.5D+00,  5.0D-01,  1.7D-01, r^2= 7.9D+00
   Bfn.  Coefficient  Atom+Function         Bfn.  Coefficient  Atom+Function  
  ----- ------------  ---------------      ----- ------------  ---------------
   379      0.163099  13 O  py              410     -0.163400  14 O  py        
   380      0.161009  13 O  pz              407     -0.153321  14 O  s         
   349      0.137394  12 C  pz              377     -0.129325  13 O  s         
   382      0.125982  13 O  py              383      0.124925  13 O  pz        
   413     -0.118267  14 O  py              376     -0.116622  13 O  s         
 
 Vector   37  Occ=2.000000D+00  E=-4.199873D-01
              MO Center=  5.0D+00,  7.6D-01,  1.3D-01, r^2= 1.1D+01
   Bfn.  Coefficient  Atom+Function         Bfn.  Coefficient  Atom+Function  
  ----- ------------  ---------------      ----- ------------  ---------------
   407     -0.182178  14 O  s               411     -0.179766  14 O  pz        
   345      0.166217  12 C  s               348      0.142611  12 C  py        
   344      0.132006  12 C  s               318      0.130770  11 C  pz        
   414     -0.126955  14 O  pz              408     -0.125409  14 O  s         
   406     -0.118271  14 O  s               380      0.113145  13 O  pz        
 
 Vector   38  Occ=2.000000D+00  E=-4.156370D-01
              MO Center= -2.2D+00, -1.7D+00, -5.5D-01, r^2= 2.0D+00
   Bfn.  Coefficient  Atom+Function         Bfn.  Coefficient  Atom+Function  
  ----- ------------  ---------------      ----- ------------  ---------------
   570      0.279672  28 C  pz                8      0.223924   1 O  pz        
   573      0.191991  28 C  pz               11      0.183307   1 O  pz        
   601     -0.153107  30 H  s               595      0.150612  29 H  s         
   600     -0.114040  30 H  s               594      0.112177  29 H  s         
    39      0.103512   2 C  pz               14      0.093892   1 O  pz        
 
 Vector   39  Occ=2.000000D+00  E=-4.138735D-01
              MO Center=  2.2D+00, -1.9D-02, -4.5D-01, r^2= 1.2D+01
   Bfn.  Coefficient  Atom+Function         Bfn.  Coefficient  Atom+Function  
  ----- ------------  ---------------      ----- ------------  ---------------
   162      0.150725   6 C  py                7      0.134055   1 O  py        
   519     -0.123733  24 C  px              286     -0.122395  10 C  py        
   100     -0.115996   4 C  py              255      0.108326   9 C  py        
    10      0.107728   1 O  py              380      0.097890  13 O  pz        
   192      0.092788   7 C  px              503      0.092020  22 H  s         
 
 Vector   40  Occ=2.000000D+00  E=-4.026442D-01
              MO Center=  4.2D+00,  4.1D-01, -2.1D-01, r^2= 1.2D+01
   Bfn.  Coefficient  Atom+Function         Bfn.  Coefficient  Atom+Function  
  ----- ------------  ---------------      ----- ------------  ---------------
   347      0.187223  12 C  px              378      0.144252  13 O  px        
   350      0.141721  12 C  px              409      0.140704  14 O  px        
   381      0.116604  13 O  px              412      0.110971  14 O  px        
   223      0.109476   8 C  px               68      0.099941   3 C  px        
   316      0.095895  11 C  px              252     -0.090955   9 C  s         
 
 Vector   41  Occ=2.000000D+00  E=-3.957268D-01
              MO Center=  1.3D+00,  8.6D-02, -5.9D-01, r^2= 1.1D+01
   Bfn.  Coefficient  Atom+Function         Bfn.  Coefficient  Atom+Function  
  ----- ------------  ---------------      ----- ------------  ---------------
    97      0.143337   4 C  s               252     -0.138813   9 C  s         
   131     -0.133718   5 C  py              224     -0.134070   8 C  py        
   568     -0.134312  28 C  px              558     -0.124917  27 H  s         
   509      0.116235  23 H  s               520     -0.111917  24 C  py        
    66     -0.099493   3 C  s               607      0.098969  31 H  s         
 
 Vector   42  Occ=2.000000D+00  E=-3.898093D-01
              MO Center=  1.9D+00,  2.3D-01, -5.4D-01, r^2= 1.3D+01
   Bfn.  Coefficient  Atom+Function         Bfn.  Coefficient  Atom+Function  
  ----- ------------  ---------------      ----- ------------  ---------------
   130      0.174433   5 C  px              161     -0.143660   6 C  px        
   568      0.127622  28 C  px              497     -0.120517  21 H  s         
     7     -0.119530   1 O  py              520     -0.117878  24 C  py        
   552      0.117550  26 H  s               133      0.104876   5 C  px        
    10     -0.096821   1 O  py              519      0.097092  24 C  px        
 
 Vector   43  Occ=2.000000D+00  E=-3.786145D-01
              MO Center=  4.5D+00,  2.3D-01, -8.1D-01, r^2= 1.4D+01
   Bfn.  Coefficient  Atom+Function         Bfn.  Coefficient  Atom+Function  
  ----- ------------  ---------------      ----- ------------  ---------------
   441     -0.153713  15 C  py              378      0.150058  13 O  px        
   317     -0.135420  11 C  py              381      0.119876  13 O  px        
   479      0.113223  18 H  s               285     -0.110157  10 C  px        
   347      0.108602  12 C  px              467     -0.106659  16 H  s         
   519      0.102097  24 C  px              568     -0.100737  28 C  px        
 
 Vector   44  Occ=2.000000D+00  E=-3.693271D-01
              MO Center=  1.8D+00,  2.1D-01, -6.1D-01, r^2= 7.1D+00
   Bfn.  Coefficient  Atom+Function         Bfn.  Coefficient  Atom+Function  
  ----- ------------  ---------------      ----- ------------  ---------------
   131     -0.151886   5 C  py               69      0.145545   3 C  py        
   520      0.135624  24 C  py              224     -0.129149   8 C  py        
   497     -0.128052  21 H  s               552     -0.125152  26 H  s         
   558      0.120574  27 H  s               519     -0.116911  24 C  px        
   509      0.111695  23 H  s               100      0.093002   4 C  py        
 
 Vector   45  Occ=2.000000D+00  E=-3.632293D-01
              MO Center=  4.7D+00,  3.5D-01, -4.0D-01, r^2= 1.4D+01
   Bfn.  Coefficient  Atom+Function         Bfn.  Coefficient  Atom+Function  
  ----- ------------  ---------------      ----- ------------  ---------------
   380      0.189985  13 O  pz              411      0.182146  14 O  pz        
   383      0.146838  13 O  pz              414      0.131887  14 O  pz        
   440      0.131870  15 C  px              442      0.118909  15 C  pz        
   473     -0.113377  17 H  s               376     -0.106002  13 O  s         
   485      0.103072  19 H  s               568     -0.100454  28 C  px        
 
 Vector   46  Occ=2.000000D+00  E=-3.580838D-01
              MO Center=  2.2D+00, -1.0D-01, -7.4D-01, r^2= 1.4D+01
   Bfn.  Coefficient  Atom+Function         Bfn.  Coefficient  Atom+Function  
  ----- ------------  ---------------      ----- ------------  ---------------
   285      0.144508  10 C  px              568      0.136229  28 C  px        
   519     -0.129475  24 C  px              441     -0.120228  15 C  py        
   161      0.115824   6 C  px              130     -0.110272   5 C  px        
   607     -0.102948  31 H  s                99      0.101824   4 C  px        
   473     -0.094392  17 H  s               255      0.089929   9 C  py        
 
 Vector   47  Occ=2.000000D+00  E=-3.493233D-01
              MO Center=  1.7D+00, -6.7D-02, -5.7D-01, r^2= 8.8D+00
   Bfn.  Coefficient  Atom+Function         Bfn.  Coefficient  Atom+Function  
  ----- ------------  ---------------      ----- ------------  ---------------
   256      0.133585   9 C  pz              101      0.131879   4 C  pz        
    39      0.117618   2 C  pz              259      0.108307   9 C  pz        
   104      0.107634   4 C  pz               70      0.100409   3 C  pz        
   521      0.099709  24 C  pz               42      0.094792   2 C  pz        
   570     -0.094474  28 C  pz              132      0.083190   5 C  pz        
 
 Vector   48  Occ=2.000000D+00  E=-3.449656D-01
              MO Center=  2.0D+00, -6.4D-02, -8.0D-01, r^2= 1.2D+01
   Bfn.  Coefficient  Atom+Function         Bfn.  Coefficient  Atom+Function  
  ----- ------------  ---------------      ----- ------------  ---------------
    38      0.132977   2 C  py              440      0.128311  15 C  px        
   162     -0.113538   6 C  py              546      0.113652  25 H  s         
   286     -0.112790  10 C  py               69     -0.106368   3 C  py        
   224     -0.103959   8 C  py              193      0.095972   7 C  py        
   503     -0.096111  22 H  s               485      0.094550  19 H  s         
 
 Vector   49  Occ=2.000000D+00  E=-3.353880D-01
              MO Center=  4.6D+00,  6.6D-01, -6.3D-01, r^2= 1.1D+01
   Bfn.  Coefficient  Atom+Function         Bfn.  Coefficient  Atom+Function  
  ----- ------------  ---------------      ----- ------------  ---------------
   442      0.198195  15 C  pz              318     -0.155522  11 C  pz        
   349      0.137934  12 C  pz              445      0.132075  15 C  pz        
   473     -0.127738  17 H  s               378     -0.125379  13 O  px        
   410     -0.122702  14 O  py              321     -0.115703  11 C  pz        
   409     -0.107436  14 O  px              381     -0.100386  13 O  px        
 
 Vector   50  Occ=2.000000D+00  E=-3.335996D-01
              MO Center=  3.8D+00,  6.0D-01, -7.6D-01, r^2= 1.1D+01
   Bfn.  Coefficient  Atom+Function         Bfn.  Coefficient  Atom+Function  
  ----- ------------  ---------------      ----- ------------  ---------------
    99     -0.165338   4 C  px               68      0.154420   3 C  px        
   440     -0.153003  15 C  px              485     -0.131533  19 H  s         
   349     -0.109125  12 C  pz              102     -0.106426   4 C  px        
   162     -0.104095   6 C  py              223     -0.104598   8 C  px        
   254      0.104285   9 C  px              380      0.101458  13 O  pz        
 
 Vector   51  Occ=2.000000D+00  E=-3.157325D-01
              MO Center=  4.5D+00,  8.9D-01, -1.1D+00, r^2= 1.0D+01
   Bfn.  Coefficient  Atom+Function         Bfn.  Coefficient  Atom+Function  
  ----- ------------  ---------------      ----- ------------  ---------------
   317      0.211176  11 C  py              441     -0.205587  15 C  py        
   467      0.178492  16 H  s               479      0.169223  18 H  s         
   320      0.140240  11 C  py              444     -0.132885  15 C  py        
   466      0.122549  16 H  s               478      0.116600  18 H  s         
   100     -0.101001   4 C  py              161     -0.092294   6 C  px        
 
 Vector   52  Occ=2.000000D+00  E=-3.096799D-01
              MO Center=  7.0D-01, -2.1D-01, -5.3D-01, r^2= 1.1D+01
   Bfn.  Coefficient  Atom+Function         Bfn.  Coefficient  Atom+Function  
  ----- ------------  ---------------      ----- ------------  ---------------
     8      0.193682   1 O  pz               39      0.179964   2 C  pz        
    11      0.156121   1 O  pz               42      0.143203   2 C  pz        
   570     -0.134978  28 C  pz              163     -0.113185   6 C  pz        
   225     -0.112678   8 C  pz               14      0.107529   1 O  pz        
   194     -0.105346   7 C  pz              595     -0.104607  29 H  s         
 
 Vector   53  Occ=2.000000D+00  E=-3.001901D-01
              MO Center=  3.3D+00,  4.8D-01, -7.3D-01, r^2= 1.1D+01
   Bfn.  Coefficient  Atom+Function         Bfn.  Coefficient  Atom+Function  
  ----- ------------  ---------------      ----- ------------  ---------------
   192      0.147581   7 C  px              316     -0.145789  11 C  px        
   223     -0.118235   8 C  px              224     -0.116617   8 C  py        
   193      0.108477   7 C  py              195      0.107904   7 C  px        
     6      0.106612   1 O  px              254      0.106904   9 C  px        
   467     -0.105113  16 H  s               519     -0.101974  24 C  px        
 
 Vector   54  Occ=2.000000D+00  E=-2.956937D-01
              MO Center=  1.8D+00,  2.8D-01, -5.5D-01, r^2= 1.3D+01
   Bfn.  Coefficient  Atom+Function         Bfn.  Coefficient  Atom+Function  
  ----- ------------  ---------------      ----- ------------  ---------------
     7      0.179743   1 O  py               10      0.143897   1 O  py        
    98      0.131843   4 C  s               284      0.127303  10 C  s         
   161     -0.116002   6 C  px              192      0.111122   7 C  px        
   316     -0.110490  11 C  px              193     -0.109372   7 C  py        
   222     -0.107824   8 C  s                 6     -0.107182   1 O  px        
 
 Vector   55  Occ=2.000000D+00  E=-2.819378D-01
              MO Center=  5.7D-01, -3.4D-01, -4.8D-01, r^2= 1.0D+01
   Bfn.  Coefficient  Atom+Function         Bfn.  Coefficient  Atom+Function  
  ----- ------------  ---------------      ----- ------------  ---------------
     7      0.187481   1 O  py               10      0.150314   1 O  py        
   255      0.141558   9 C  py              100     -0.137654   4 C  py        
    38     -0.135903   2 C  py              286      0.131119  10 C  py        
     6     -0.123802   1 O  px              520     -0.118977  24 C  py        
   292      0.116138  10 C  py              284      0.110465  10 C  s         
 
 Vector   56  Occ=2.000000D+00  E=-2.769454D-01
              MO Center=  6.1D+00,  4.9D-01,  6.8D-01, r^2= 4.8D+00
   Bfn.  Coefficient  Atom+Function         Bfn.  Coefficient  Atom+Function  
  ----- ------------  ---------------      ----- ------------  ---------------
   378     -0.295676  13 O  px              409      0.287085  14 O  px        
   222      0.278876   8 C  s               381     -0.237016  13 O  px        
   412      0.227872  14 O  px              160     -0.212919   6 C  s         
   384     -0.195764  13 O  px              415      0.160572  14 O  px        
   199      0.148175   7 C  py              411     -0.131789  14 O  pz        
 
 Vector   57  Occ=2.000000D+00  E=-2.673201D-01
              MO Center=  1.2D+00, -2.3D-01, -6.0D-01, r^2= 8.2D+00
   Bfn.  Coefficient  Atom+Function         Bfn.  Coefficient  Atom+Function  
  ----- ------------  ---------------      ----- ------------  ---------------
   521     -0.205676  24 C  pz                8      0.198439   1 O  pz        
   524     -0.168963  24 C  pz              163      0.162627   6 C  pz        
    11      0.160370   1 O  pz              287     -0.148799  10 C  pz        
   166      0.133900   6 C  pz              132      0.133003   5 C  pz        
   256     -0.127507   9 C  pz              290     -0.123505  10 C  pz        
 
 Vector   58  Occ=2.000000D+00  E=-2.477608D-01
              MO Center=  2.5D+00,  5.9D-01, -3.6D-01, r^2= 8.8D+00
   Bfn.  Coefficient  Atom+Function         Bfn.  Coefficient  Atom+Function  
  ----- ------------  ---------------      ----- ------------  ---------------
   101      0.190622   4 C  pz              225     -0.169453   8 C  pz        
   194     -0.161306   7 C  pz              104      0.157768   4 C  pz        
    70      0.152724   3 C  pz              410      0.142607  14 O  py        
   228     -0.138124   8 C  pz              197     -0.134721   7 C  pz        
     8     -0.131758   1 O  pz              132      0.130970   5 C  pz        
 
 Vector   59  Occ=2.000000D+00  E=-2.282836D-01
              MO Center=  5.5D+00,  9.5D-01,  6.9D-01, r^2= 8.5D+00
   Bfn.  Coefficient  Atom+Function         Bfn.  Coefficient  Atom+Function  
  ----- ------------  ---------------      ----- ------------  ---------------
   410      0.312483  14 O  py              413      0.247824  14 O  py        
   315     -0.238112  11 C  s               416      0.190571  14 O  py        
   411     -0.186341  14 O  pz              379      0.151681  13 O  py        
   414     -0.146548  14 O  pz              409     -0.132083  14 O  px        
   382      0.126654  13 O  py              318     -0.122012  11 C  pz        
 
 Vector   60  Occ=2.000000D+00  E=-2.097450D-01
              MO Center=  1.5D+00,  1.2D-02, -6.0D-01, r^2= 6.8D+00
   Bfn.  Coefficient  Atom+Function         Bfn.  Coefficient  Atom+Function  
  ----- ------------  ---------------      ----- ------------  ---------------
   287      0.224930  10 C  pz              163      0.201316   6 C  pz        
   290      0.186112  10 C  pz              256     -0.173524   9 C  pz        
   166      0.166829   6 C  pz              293      0.158021  10 C  pz        
   259     -0.144417   9 C  pz                8     -0.136816   1 O  pz        
   169      0.133852   6 C  pz              101     -0.127067   4 C  pz        
 
 Vector   61  Occ=2.000000D+00  E=-1.800682D-01
              MO Center=  1.1D+00,  1.9D-01, -5.5D-01, r^2= 7.5D+00
   Bfn.  Coefficient  Atom+Function         Bfn.  Coefficient  Atom+Function  
  ----- ------------  ---------------      ----- ------------  ---------------
    70     -0.209060   3 C  pz                8      0.199009   1 O  pz        
    73     -0.175758   3 C  pz              132      0.164461   5 C  pz        
    11      0.160640   1 O  pz              194     -0.157228   7 C  pz        
    39     -0.154133   2 C  pz              521      0.151578  24 C  pz        
    76     -0.140510   3 C  pz              225     -0.140264   8 C  pz        
 
 Vector   62  Occ=0.000000D+00  E=-7.107195D-02
              MO Center=  1.8D+00,  1.2D-01, -6.1D-01, r^2= 6.8D+00
   Bfn.  Coefficient  Atom+Function         Bfn.  Coefficient  Atom+Function  
  ----- ------------  ---------------      ----- ------------  ---------------
   527      0.264352  24 C  pz              138     -0.231753   5 C  pz        
   293     -0.222672  10 C  pz              231     -0.219549   8 C  pz        
    76      0.209625   3 C  pz              439      0.208566  15 C  s         
   521      0.205409  24 C  pz              225     -0.201123   8 C  pz        
   169      0.186357   6 C  pz              132     -0.184892   5 C  pz        
 
 Vector   63  Occ=0.000000D+00  E=-4.571803D-02
              MO Center=  4.0D+00,  7.0D-01, -1.0D-01, r^2= 9.8D+00
   Bfn.  Coefficient  Atom+Function         Bfn.  Coefficient  Atom+Function  
  ----- ------------  ---------------      ----- ------------  ---------------
   222     -0.384941   8 C  s               160      0.354482   6 C  s         
   439      0.292760  15 C  s               169     -0.284921   6 C  pz        
   199     -0.281996   7 C  py              350     -0.245933  12 C  px        
   315     -0.238369  11 C  s               200      0.229618   7 C  pz        
   347     -0.226199  12 C  px              129     -0.216766   5 C  s         
 
 Vector   64  Occ=0.000000D+00  E=-2.322180D-02
              MO Center=  3.9D+00,  5.2D-01,  4.7D-03, r^2= 1.0D+01
   Bfn.  Coefficient  Atom+Function         Bfn.  Coefficient  Atom+Function  
  ----- ------------  ---------------      ----- ------------  ---------------
   222     -0.373438   8 C  s               160      0.340962   6 C  s         
   350     -0.292675  12 C  px              347     -0.289243  12 C  px        
   200     -0.264908   7 C  pz              199     -0.250688   7 C  py        
   315     -0.238744  11 C  s               129     -0.233306   5 C  s         
    45      0.231946   2 C  pz              262      0.218061   9 C  pz        
 
 Vector   65  Occ=0.000000D+00  E=-1.370653D-02
              MO Center=  1.9D+00,  1.8D-01, -5.5D-01, r^2= 6.4D+00
   Bfn.  Coefficient  Atom+Function         Bfn.  Coefficient  Atom+Function  
  ----- ------------  ---------------      ----- ------------  ---------------
   315      0.517682  11 C  s               527     -0.409429  24 C  pz        
   138     -0.392103   5 C  pz               76     -0.385260   3 C  pz        
   231     -0.379795   8 C  pz              262      0.342594   9 C  pz        
   346     -0.322771  12 C  s               107      0.301685   4 C  pz        
   492     -0.249124  20 H  s               169      0.196404   6 C  pz        
 
 Vector   66  Occ=0.000000D+00  E= 4.424533D-03
              MO Center=  6.5D+00, -2.4D-01,  6.2D-01, r^2= 8.0D+00
   Bfn.  Coefficient  Atom+Function         Bfn.  Coefficient  Atom+Function  
  ----- ------------  ---------------      ----- ------------  ---------------
   315      3.081365  11 C  s               492     -1.299441  20 H  s         
   346     -1.283677  12 C  s               439      1.284290  15 C  s         
   198     -1.152865   7 C  px              468     -0.802720  16 H  s         
   324      0.732308  11 C  pz               98      0.727128   4 C  s         
   105      0.687554   4 C  px              480     -0.602140  18 H  s         
 
 Vector   67  Occ=0.000000D+00  E= 1.707057D-02
              MO Center= -1.8D+00, -2.8D+00, -6.9D-01, r^2= 7.2D+00
   Bfn.  Coefficient  Atom+Function         Bfn.  Coefficient  Atom+Function  
  ----- ------------  ---------------      ----- ------------  ---------------
   567      3.822788  28 C  s               547     -1.728209  25 H  s         
   596     -1.562186  29 H  s               602     -1.569340  30 H  s         
   260     -1.516700   9 C  px               43      1.460488   2 C  px        
   292     -1.226164  10 C  py              106      1.090063   4 C  py        
   608     -0.931536  31 H  s               553     -0.794068  26 H  s         
 
 Vector   68  Occ=0.000000D+00  E= 3.243781D-02
              MO Center=  3.9D+00,  9.7D-01, -6.4D-01, r^2= 2.1D+01
   Bfn.  Coefficient  Atom+Function         Bfn.  Coefficient  Atom+Function  
  ----- ------------  ---------------      ----- ------------  ---------------
   439      2.442290  15 C  s               315      1.642175  11 C  s         
   468     -1.284089  16 H  s               198     -1.236161   7 C  px        
   504     -1.129300  22 H  s               498     -1.010766  21 H  s         
   284      0.964701  10 C  s                98      0.934271   4 C  s         
   474     -0.898308  17 H  s               486     -0.840146  19 H  s         
 
 Vector   69  Occ=0.000000D+00  E= 3.747684D-02
              MO Center=  8.5D-01, -9.3D-01, -8.1D-01, r^2= 2.1D+01
   Bfn.  Coefficient  Atom+Function         Bfn.  Coefficient  Atom+Function  
  ----- ------------  ---------------      ----- ------------  ---------------
   284      1.666459  10 C  s               439     -1.421049  15 C  s         
   553     -1.288271  26 H  s               567     -1.145201  28 C  s         
   315     -1.105652  11 C  s               468      0.987572  16 H  s         
     5     -0.835120   1 O  s               547     -0.808788  25 H  s         
   602      0.732862  30 H  s               575      0.724455  28 C  py        
 
 Vector   70  Occ=0.000000D+00  E= 4.182110D-02
              MO Center=  3.5D+00,  7.5D-01, -1.0D+00, r^2= 1.7D+01
   Bfn.  Coefficient  Atom+Function         Bfn.  Coefficient  Atom+Function  
  ----- ------------  ---------------      ----- ------------  ---------------
   439      3.198754  15 C  s               315     -1.319644  11 C  s         
   480     -1.315820  18 H  s               498      1.282592  21 H  s         
   106     -1.057246   4 C  py              229      1.044305   8 C  px        
   504      1.033938  22 H  s               260      0.958672   9 C  px        
   486     -0.921452  19 H  s               261     -0.910253   9 C  py        
 
 Vector   71  Occ=0.000000D+00  E= 5.169894D-02
              MO Center=  5.1D-01, -4.7D-01, -6.9D-01, r^2= 1.8D+01
   Bfn.  Coefficient  Atom+Function         Bfn.  Coefficient  Atom+Function  
  ----- ------------  ---------------      ----- ------------  ---------------
   553      1.498583  26 H  s               526      1.283450  24 C  py        
   559      1.264890  27 H  s               498      1.232355  21 H  s         
   510      1.099574  23 H  s                75     -1.058278   3 C  py        
     5     -0.996797   1 O  s               198      0.883154   7 C  px        
   439      0.872638  15 C  s               315     -0.816247  11 C  s         
 
 Vector   72  Occ=0.000000D+00  E= 5.562764D-02
              MO Center=  2.1D+00,  2.5D-01, -6.5D-01, r^2= 1.1D+01
   Bfn.  Coefficient  Atom+Function         Bfn.  Coefficient  Atom+Function  
  ----- ------------  ---------------      ----- ------------  ---------------
   315      1.400694  11 C  s               439     -1.244926  15 C  s         
   486      0.690873  19 H  s               198     -0.511619   7 C  px        
   169      0.508130   6 C  pz              293      0.489246  10 C  pz        
    45     -0.468222   2 C  pz              200     -0.465431   7 C  pz        
   553     -0.355960  26 H  s                76      0.349211   3 C  pz        
 
 Vector   73  Occ=0.000000D+00  E= 6.213025D-02
              MO Center=  2.8D+00,  1.1D+00, -8.4D-01, r^2= 2.0D+01
   Bfn.  Coefficient  Atom+Function         Bfn.  Coefficient  Atom+Function  
  ----- ------------  ---------------      ----- ------------  ---------------
   315      3.657403  11 C  s               439     -3.023014  15 C  s         
   253     -1.986823   9 C  s               468     -1.517586  16 H  s         
   168      1.476080   6 C  py              504     -1.477855  22 H  s         
   559      1.409812  27 H  s               498      1.316357  21 H  s         
   137     -1.275436   5 C  py               74      1.136441   3 C  px        
 
 Vector   74  Occ=0.000000D+00  E= 6.881236D-02
              MO Center=  1.8D+00, -1.0D-02, -7.8D-01, r^2= 2.0D+01
   Bfn.  Coefficient  Atom+Function         Bfn.  Coefficient  Atom+Function  
  ----- ------------  ---------------      ----- ------------  ---------------
   260      1.902253   9 C  px              160      1.841132   6 C  s         
   284     -1.826452  10 C  s               559      1.495952  27 H  s         
   525     -1.430966  24 C  px              105      1.409331   4 C  px        
   547      1.398666  25 H  s               229      1.356430   8 C  px        
   510     -1.321024  23 H  s               504     -1.268262  22 H  s         
 
 Vector   75  Occ=0.000000D+00  E= 7.501012D-02
              MO Center= -2.9D+00, -1.4D+00, -4.9D-01, r^2= 1.1D+01
   Bfn.  Coefficient  Atom+Function         Bfn.  Coefficient  Atom+Function  
  ----- ------------  ---------------      ----- ------------  ---------------
   608      2.777744  31 H  s               574      1.608893  28 C  px        
   602     -0.947664  30 H  s               596     -0.912059  29 H  s         
    67     -0.809139   3 C  s               498     -0.754526  21 H  s         
   575     -0.548141  28 C  py              518     -0.539624  24 C  s         
   559      0.540522  27 H  s               261      0.519991   9 C  py        
 
 Vector   76  Occ=0.000000D+00  E= 8.319460D-02
              MO Center=  5.7D+00,  9.4D-01, -1.4D+00, r^2= 1.1D+01
   Bfn.  Coefficient  Atom+Function         Bfn.  Coefficient  Atom+Function  
  ----- ------------  ---------------      ----- ------------  ---------------
   315      4.744671  11 C  s               346     -2.283541  12 C  s         
   439     -2.081339  15 C  s               474      1.908428  17 H  s         
   446      1.426802  15 C  px              191     -1.361800   7 C  s         
   198     -1.347537   7 C  px              486     -1.268320  19 H  s         
   222     -1.234479   8 C  s               408      0.963644  14 O  s         
 
 Vector   77  Occ=0.000000D+00  E= 8.595168D-02
              MO Center= -1.9D+00, -2.6D+00, -6.9D-01, r^2= 6.9D+00
   Bfn.  Coefficient  Atom+Function         Bfn.  Coefficient  Atom+Function  
  ----- ------------  ---------------      ----- ------------  ---------------
   596      2.123952  29 H  s               602     -2.077834  30 H  s         
   576     -1.349934  28 C  pz              315     -0.657155  11 C  s         
   486     -0.321640  19 H  s               198      0.319758   7 C  px        
   474      0.318503  17 H  s               570     -0.280830  28 C  pz        
   439      0.271326  15 C  s                14      0.228579   1 O  pz        
 
 Vector   78  Occ=0.000000D+00  E= 8.736972D-02
              MO Center=  4.3D+00,  7.2D-01, -1.3D+00, r^2= 1.4D+01
   Bfn.  Coefficient  Atom+Function         Bfn.  Coefficient  Atom+Function  
  ----- ------------  ---------------      ----- ------------  ---------------
   315      4.931412  11 C  s               198     -2.154520   7 C  px        
   439     -1.746800  15 C  s               346     -1.624399  12 C  s         
   105      1.440891   4 C  px              323     -1.445182  11 C  py        
   474     -1.379854  17 H  s               486      1.315723  19 H  s         
   448     -1.188020  15 C  pz              261     -1.051812   9 C  py        
 
 Vector   79  Occ=0.000000D+00  E= 9.469608D-02
              MO Center=  1.9D+00,  6.7D-01, -7.6D-01, r^2= 2.1D+01
   Bfn.  Coefficient  Atom+Function         Bfn.  Coefficient  Atom+Function  
  ----- ------------  ---------------      ----- ------------  ---------------
   315      3.140004  11 C  s               253      2.713095   9 C  s         
    98      2.556744   4 C  s                67     -2.218958   3 C  s         
   518     -2.136203  24 C  s               129     -1.997764   5 C  s         
   559     -2.000518  27 H  s                74     -1.846477   3 C  px        
   468     -1.793803  16 H  s               547      1.726205  25 H  s         
 
 Vector   80  Occ=0.000000D+00  E= 1.058957D-01
              MO Center=  3.5D+00, -1.0D+00, -1.3D+00, r^2= 1.9D+01
   Bfn.  Coefficient  Atom+Function         Bfn.  Coefficient  Atom+Function  
  ----- ------------  ---------------      ----- ------------  ---------------
   315      3.900695  11 C  s               547     -2.173947  25 H  s         
   526      2.017711  24 C  py              553      1.961932  26 H  s         
    67      1.874362   3 C  s               292     -1.860496  10 C  py        
   439     -1.593460  15 C  s               480     -1.345628  18 H  s         
   346     -1.306802  12 C  s               486      1.303652  19 H  s         
 
 Vector   81  Occ=0.000000D+00  E= 1.172032D-01
              MO Center=  2.2D+00,  1.2D+00, -5.0D-01, r^2= 1.5D+01
   Bfn.  Coefficient  Atom+Function         Bfn.  Coefficient  Atom+Function  
  ----- ------------  ---------------      ----- ------------  ---------------
   199      2.509710   7 C  py              315     -2.302206  11 C  s         
   222      1.871262   8 C  s                67      1.854913   3 C  s         
   498      1.793123  21 H  s               168      1.773862   6 C  py        
   137     -1.759431   5 C  py              230      1.747687   8 C  py        
   504     -1.686782  22 H  s               261     -1.593955   9 C  py        
 
[...]
   Bfn.  Coefficient  Atom+Function         Bfn.  Coefficient  Atom+Function  
  ----- ------------  ---------------      ----- ------------  ---------------
   258      1.919449   9 C  py              260      1.755689   9 C  px        
   103      1.730997   4 C  py              106     -1.714412   4 C  py        
   113      1.721779   4 C  d -2            315      1.703194  11 C  s         
   517      1.670901  24 C  s               261     -1.639599   9 C  py        
   268     -1.587637   9 C  d -2            190      1.357440   7 C  s         
 
 Vector  604  Occ=0.000000D+00  E= 2.277579D+01
              MO Center=  1.9D+00,  3.1D-01, -4.7D-01, r^2= 7.7D+00
   Bfn.  Coefficient  Atom+Function         Bfn.  Coefficient  Atom+Function  
  ----- ------------  ---------------      ----- ------------  ---------------
   190      2.991279   7 C  s               191     -2.183688   7 C  s         
   314     -2.017193  11 C  s               105     -1.885139   4 C  px        
   159     -1.819986   6 C  s               283     -1.668549  10 C  s         
   189     -1.651824   7 C  s                35      1.562122   2 C  s         
   222      1.473301   8 C  s               128      1.405767   5 C  s         
 
 Vector  605  Occ=0.000000D+00  E= 2.286779D+01
              MO Center=  5.5D+00,  6.8D-01,  1.8D-01, r^2= 3.1D+00
   Bfn.  Coefficient  Atom+Function         Bfn.  Coefficient  Atom+Function  
  ----- ------------  ---------------      ----- ------------  ---------------
   315      1.949969  11 C  s               344      1.819956  12 C  s         
   352      1.643882  12 C  pz              343     -1.625451  12 C  s         
   407     -1.510443  14 O  s               191     -1.310650   7 C  s         
   342      1.216300  12 C  s               226      1.054322   8 C  px        
   319      1.051598  11 C  px              257      0.879373   9 C  px        
 
 Vector  606  Occ=0.000000D+00  E= 2.326307D+01
              MO Center=  1.8D+00,  2.8D-01, -6.0D-01, r^2= 2.1D+00
   Bfn.  Coefficient  Atom+Function         Bfn.  Coefficient  Atom+Function  
  ----- ------------  ---------------      ----- ------------  ---------------
   252     -7.250380   9 C  s                97      7.164212   4 C  s         
   221      4.158700   8 C  s                66     -3.711020   3 C  s         
   128     -3.390171   5 C  s               517      3.071373  24 C  s         
   190     -2.936934   7 C  s                96     -2.663116   4 C  s         
   251      2.635861   9 C  s                71     -2.275528   3 C  px        
 
 Vector  607  Occ=0.000000D+00  E= 4.335778D+01
              MO Center=  6.6D+00, -3.5D-01,  5.3D-01, r^2= 5.8D-01
   Bfn.  Coefficient  Atom+Function         Bfn.  Coefficient  Atom+Function  
  ----- ------------  ---------------      ----- ------------  ---------------
   376      2.446511  13 O  s               315      1.854944  11 C  s         
   375     -1.773183  13 O  s               374      1.643871  13 O  s         
   373     -1.325949  13 O  s               377     -1.141965  13 O  s         
   222     -1.102883   8 C  s               314     -1.018912  11 C  s         
   191     -0.984970   7 C  s               198     -0.975098   7 C  px        
 
 Vector  608  Occ=0.000000D+00  E= 4.344984D+01
              MO Center=  6.6D+00,  1.3D+00,  1.4D+00, r^2= 5.8D-01
   Bfn.  Coefficient  Atom+Function         Bfn.  Coefficient  Atom+Function  
  ----- ------------  ---------------      ----- ------------  ---------------
   407      2.682410  14 O  s               406     -1.780101  14 O  s         
   405      1.645451  14 O  s               404     -1.326244  14 O  s         
   408     -1.261318  14 O  s               376     -1.008781  13 O  s         
   315      0.928503  11 C  s               191     -0.919893   7 C  s         
   352     -0.823454  12 C  pz              222      0.776445   8 C  s         
 
 Vector  609  Occ=0.000000D+00  E= 4.376607D+01
              MO Center= -2.0D+00, -7.2D-01, -4.6D-01, r^2= 1.5D-01
   Bfn.  Coefficient  Atom+Function         Bfn.  Coefficient  Atom+Function  
  ----- ------------  ---------------      ----- ------------  ---------------
     4      3.182022   1 O  s                 3     -2.084014   1 O  s         
     2      1.752763   1 O  s                 1     -1.399109   1 O  s         
    43     -1.143836   2 C  px               71      1.104858   3 C  px        
   102      1.045930   4 C  px               40      1.037622   2 C  px        
    97     -0.983024   4 C  s               284      0.884203  10 C  s         
 

 center of mass
 --------------
 x =   4.96602800 y =   0.34320341 z =  -0.79188855

 moments of inertia (a.u.)
 ------------------
        1936.886813341799       -1783.054900920535        -506.061830913886
       -1783.054900920535        8334.449606674192        -128.678685221471
        -506.061830913886        -128.678685221471        9297.060400224651
 
     Multipole analysis of the density
     ---------------------------------
 
     L   x y z        total         alpha         beta         nuclear
     -   - - -        -----         -----         ----         -------
     0   0 0 0     -0.000000    -61.000000    -61.000000    122.000000
 
     1   1 0 0     -0.539929   -301.747916   -301.747916    602.955903
     1   0 1 0     -1.003592    -19.366324    -19.366324     37.729056
     1   0 0 1     -0.543943     50.883597     50.883597   -102.311137
 
     2   2 0 0    -74.059229  -3658.002922  -3658.002922   7241.946615
     2   1 1 0     -3.693907   -587.267797   -587.267797   1170.841686
     2   1 0 1     -5.696793    135.042389    135.042389   -275.781572
     2   0 2 0    -68.732868   -458.707260   -458.707260    848.681653
     2   0 1 1     -2.888833    -16.887421    -16.887421     30.886010
     2   0 0 2    -77.848551   -219.145932   -219.145932    360.443312
 
 *** CALLING NEW AORESP DRIVER FOR CLOSED AND OPEN SHELLS ***
 Entering AOResponse driver routine


--------------------------------------------------------------------------------

          ****************
          *** RESPONSE ***
          ****************

 Response module for NWChem and dynamic CPKS solver
 developed by J. Autschbach and coworkers, SUNY Buffalo
 The methodology used in this program is described in 
 ChemPhysChem 12 (2011), 3224-3235 (main reference)
 J. Chem. Phys. 123 (2005), 114103
 J. Chem. Phys. 122 (2005), 224115
 J. Chem. Phys. 122 (2005), 074105
 Comp. Lett. 3 (2007), 131-150 (contact JA for a copy)
 Please cite this work in publications based on results
 obtained with this code. Thank you!

 For extension of response module to open shell
 calculations please acknowledge:
 F. Aquino, Northwestern University, Schatz Rsrch Group
 The update to the methodology is described in
 J. Phys. Chem. A 118 (2014) 517-525



          -----------------------------------------------
          Solving response equations for perturbing field
          -----------------------------------------------

 number of frequencies:     1
 frequency in a.u.:  0.1280230E+00
 Perturbing field: electric
 Using GIAO formalism for OptRot
 Adding quadrupole terms to OptRot
 to create an origin in dependent tensor.
 Using El. Dipole Length Gauge
 
 Applying DAMPING constant of  0.003700 a.u.
 
 Setting up CPKS
 with frequency omega =      0.12802300 a.u.
 and a damping of            0.00370000 a.u.

 
                            NWChem Dynamic CPHF Module
                            --------------------------
 
 
    scftype = RHF 
    nclosed =   61
      nopen =    0
  variables =   133712
  num. vecs =        3
  tolerance =   1.0D-07
  max. iter =  100

 Grid integrated density:     122.000001738325
 Requested integration accuracy:   0.10E-07
 SCF residual:   1.774728581545924E-004


Iterative solution of linear equations
  No. of variables    66856
  No. of equations        3
  Maximum subspace       99
       Convergence  1.0D-07
        Start time   1071.5


   iter   nsub   residual    time 
   ----  ------  --------  --------- 
 dft_CPHF2_read: failed to open./naproxen_355.9_050.inp.aoresp_fiao_f1
     1      3    9.08D+01    1311.3
     2      6    2.92D+01    1553.8
     3      9    6.77D+00    1796.7
     4     12    1.99D+00    2039.7
     5     15    4.26D-01    2281.9
     6     18    2.44D-01    2525.3
     7     21    1.34D-01    2766.8
     8     24    1.69D-02    3008.5
     9     27    2.84D-03    3249.7
    10     30    9.81D-04    3490.8
    11     33    6.01D-04    3732.2
    12     36    7.82D-05    3976.3
    13     39    7.16D-06    4221.5
    14     42    2.55D-06    4467.5
    15     45    6.27D-07    4713.7
    16     48    2.97D-07    4958.6
    17     51    1.29D-07    5205.0
    18     54    1.12D-07    5451.1
    19     57    7.93D-08    5696.4

 Calculating some arrays needed for GIAO optical rotation

    0 giaofock schwarz done =      42.97%
    0 giaofock schwarz done =      50.01%
 Grid integrated density:     122.000001738533
 Requested integration accuracy:   0.10E-07
 aor_r1_tensor_giao: roadata output requested
 dip-quad polarizability Re:

              1        2        3        4        5        6      
    1 3313.5982 235.3315-345.7244 -44.6296 -90.9297 138.8676
    2  424.1115 895.1560 -55.1489 132.7539-209.5255   5.5687
    3  117.1587  31.9518 734.7241  15.3127  35.0251-268.8059
 traceless dip-quad polarizability:

              1        2        3      
    1 3266.4792 352.9972-518.5866
    2  352.9972*********-136.3945
    3 -518.5866-136.3945*********

              1        2        3      
    1  354.95021342.7340 -82.7234
    2 1342.7340 -82.0863-314.2883
    3  -82.7234-314.2883-272.8640

              1        2        3      
    1  243.9053  47.92771102.0862
    2   47.9277  91.1363  52.5376
    3 1102.0862  52.5376-335.0416

 roa begin

 alpha real:
 XX       0.4072401981743E+03
 XY       0.7664728801281E+02
 XZ       0.3408179993850E+01
 YX       0.7664728860027E+02
 YY       0.2158912421688E+03
 YZ       0.7495143377523E+01
 ZX       0.3408180119224E+01
 ZY       0.7495143262035E+01
 ZZ       0.1249326302689E+03

 alpha im:
 XX       0.3747930197627E+02
 XY       0.5072286710721E+02
 XZ       0.6425698175435E+01
 YX       0.5072286614827E+02
 YY       0.1356454514493E+03
 YZ       0.1667459062631E+02
 ZX       0.6425697943797E+01
 ZY       0.1667459054135E+02
 ZZ       0.2625578831150E+01

 beta real:
 XX      -0.5237640503112E+01
 XY       0.3890377205830E+02
 XZ       0.1288223371490E+02
 YX      -0.1411239033842E+02
 YY       0.7475041045740E+01
 YZ      -0.5189905574837E+02
 ZX      -0.3487365061971E+01
 ZY       0.4465131851419E+02
 ZZ      -0.4732612404495E+00

 G-prime = -omega beta(real):
 XX      -0.5237640503112E+01
 XY       0.3890377205830E+02
 XZ       0.1288223371490E+02
 YX      -0.1411239033842E+02
 YY       0.7475041045740E+01
 YZ      -0.5189905574837E+02
 ZX      -0.3487365061971E+01
 ZY       0.4465131851419E+02
 ZZ      -0.4732612404495E+00

 beta im:
 XX      -0.4155723758833E+01
 XY       0.7948713225731E+01
 XZ      -0.1020899720012E+02
 YX      -0.1156694684633E+02
 YY       0.1368277993456E+02
 YZ      -0.3768163856756E+02
 ZX      -0.1448960712750E+01
 ZY       0.2335010733187E+01
 ZZ      -0.4476508750086E+01

 G-prime = -omega beta(imag):
 XX      -0.4155723758833E+01
 XY       0.7948713225731E+01
 XZ      -0.1020899720012E+02
 YX      -0.1156694684633E+02
 YY       0.1368277993456E+02
 YZ      -0.3768163856756E+02
 ZX      -0.1448960712750E+01
 ZY       0.2335010733187E+01
 ZZ      -0.4476508750086E+01

 dipole-quadrupole real (Cartesian):
 XXX      0.3313598190823E+04
 XXY      0.2353314781880E+03
 XXZ     -0.3457243911321E+03
 XYY     -0.4462960769710E+02
 XYZ     -0.9092967596729E+02
 XZZ      0.1388676319229E+03
 YXX      0.4241115440462E+03
 YXY      0.8951560277607E+03
 YXZ     -0.5514891940940E+02
 YYY      0.1327538720478E+03
 YYZ     -0.2095255163173E+03
 YZZ      0.5568728076947E+01
 ZXX      0.1171587202050E+03
 ZXY      0.3195180573169E+02
 ZXZ      0.7347241348635E+03
 ZYY      0.1531273768412E+02
 ZYZ      0.3502508467986E+02
 ZZZ     -0.2688058616194E+03

 dipole-quadrupole imag (Cartesian):
 XXX      0.3220432071991E+03
 XXY      0.1049308576831E+03
 XXZ     -0.3372307966712E+01
 XYY     -0.1090618749413E+01
 XYZ     -0.5683315481293E+02
 XZZ      0.1543913681539E+02
 YXX      0.4167702187290E+03
 YXY      0.2550663520862E+03
 YXZ      0.1653418150588E+02
 YYY      0.3395481966077E+01
 YYZ     -0.1513959981975E+03
 YZZ      0.1347596403556E+02
 ZXX      0.5564696442828E+02
 ZXY      0.3144036068902E+02
 ZXZ      0.6010479352987E+01
 ZYY      0.3734726316803E+00
 ZYZ     -0.1863887021896E+02
 ZZZ      0.8137626266592E+00

 dipole-quadrupole (traceless):
 XXX      0.3266479178710E+04
 XXY      0.3529972172820E+03
 XXZ     -0.5185865866982E+03
 XYY     -0.1770862519070E+04
 XYZ     -0.1363945139509E+03
 XZZ     -0.1495616659640E+04
 YXX      0.3549502439838E+03
 YXY      0.1342734041641E+04
 YXZ     -0.8272337911409E+02
 YYY     -0.8208626401372E+02
 YYZ     -0.3142882744759E+03
 YZZ     -0.2728639799700E+03
 ZXX      0.2439052821726E+03
 ZXY      0.4792770859753E+02
 ZXZ      0.1102086202295E+04
 ZYY      0.9113630839133E+02
 ZYZ      0.5253762701980E+02
 ZZZ     -0.3350415905640E+03

 roa end


 Electric Dipole Response Matrix (nonzero elements):

              1        2        3      
    1  407.2402  76.6473   3.4082
    2   76.6473 215.8912   7.4951
    3    3.4082   7.4951 124.9326
 
 Imaginary part:

              1        2        3      
    1   37.4793  50.7229   6.4257
    2   50.7229 135.6455  16.6746
    3    6.4257  16.6746   2.6256

 ------------------------------------------
 average:       249.35469 + I      58.58344


 DFT Linear Response polarizability / au 
 Frequency  =       0.1280230 / au
 Wavelength =     355.8997446 / nm
              X              Y              Z
 -----------------------------------------------
 X     407.2401982     76.6472880      3.4081800
 Y      76.6472886    215.8912422      7.4951434
 Z       3.4081801      7.4951433    124.9326303
 -----------------------------------------------
 Eigenvalues =     434.2611934    189.5209255    124.2819517
 Isotropic   =     249.3546902
 Anisotropic =     231.1140070
 -----------------------------------------------
 *************************

 DFT Linear Response IMAG polarizability / au 
 Frequency  =       0.1280230 / au
 Wavelength =     355.8997446 / nm
              X              Y              Z
 -----------------------------------------------
 X      37.4793020     50.7228671      6.4256982
 Y      50.7228661    135.6454514     16.6745906
 Z       6.4256979     16.6745905      2.6255788
 -----------------------------------------------
 Eigenvalues =      16.0017502    159.1828692      0.5657129
 Isotropic   =      58.5834441
 Anisotropic =     123.6911562
 -----------------------------------------------
 *************************

 Magnetic Dipole Response Matrix (nonzero elements):
 Optical rotation tensor Beta
 (Buckingham-Dunn version including dipole-quadrupole terms)

              1        2        3      
    1   -2.6386 -37.3127 -91.2512
    2  -37.3127   3.0525 -57.6759
    3  -91.2512 -57.6759 -14.1937
 
 Imaginary part:

              1        2        3      
    1   32.4608 -62.0882  79.7435
    2   90.3505-106.8775 294.3349
    3   11.3180 -18.2390  34.9664

 ------------------------------------------
 average:        -4.59329 + I     -13.15010

 Principal components and PAS (Real part)
               -133.48022
                 85.61595
                 34.08441
 ------------------------
 average:        -4.59329

              1        2        3      
    1    0.5941   0.6597  -0.4602
    2    0.4453   0.2066   0.8712
    3    0.6698  -0.7225  -0.1711

 Chiral response tensor (Real part):

              1        2        3      
    1   -5.5706  18.6564  45.6256
    2   18.6564  -8.4162  28.8379
    3   45.6256  28.8379   0.2069
 
 Principal components and PAS (Real part)
                 59.85018
                -49.69790
                -23.93214
 ------------------------
 average:        -4.59329

              1        2        3      
    1    0.5941   0.6597  -0.4602
    2    0.4453   0.2066   0.8712
    3    0.6698  -0.7225  -0.1711
 Exiting AOResponse driver routine

 Task  times  cpu:     5772.0s     wall:     6019.3s
 
 
                                NWChem Input Module
                                -------------------
 
 
 Summary of allocated global arrays
-----------------------------------
  No active global arrays



                         GA Statistics for process    0
                         ------------------------------

       create   destroy   get      put      acc     scatter   gather  read&inc
calls: 9023     9023     2.75e+08 5.02e+07 9.15e+06 8226        0     2971     
number of processes/call 1.00e+00 1.01e+00 1.21e+00 0.00e+00 0.00e+00
bytes total:             4.60e+10 1.90e+09 4.63e+10 0.00e+00 0.00e+00 2.38e+04
bytes remote:            1.88e+10 5.97e+08 2.18e+10 -4.48e+02 0.00e+00 0.00e+00
Max memory consumed for GA by this process: 128676136 bytes
 
MA_summarize_allocated_blocks: starting scan ...
MA_summarize_allocated_blocks: scan completed: 0 heap blocks, 0 stack blocks
MA usage statistics:

	allocation statistics:
					      heap	     stack
					      ----	     -----
	current number of blocks	         0	         0
	maximum number of blocks	        24	        52
	current total bytes		         0	         0
	maximum total bytes		  15665040	 106093272
	maximum total K-bytes		     15666	    106094
	maximum total M-bytes		        16	       107
 
 
                                     CITATION
                                     --------
                Please cite the following reference when publishing
                           results obtained with NWChem:
 
                 M. Valiev, E.J. Bylaska, N. Govind, K. Kowalski,
              T.P. Straatsma, H.J.J. van Dam, D. Wang, J. Nieplocha,
                        E. Apra, T.L. Windus, W.A. de Jong
                 "NWChem: a comprehensive and scalable open-source
                  solution for large scale molecular simulations"
                      Comput. Phys. Commun. 181, 1477 (2010)
                           doi:10.1016/j.cpc.2010.04.018
 
                                      AUTHORS
                                      -------
          E. Apra, E. J. Bylaska, W. A. de Jong, N. Govind, K. Kowalski,
       T. P. Straatsma, M. Valiev, H. J. J. van Dam, D. Wang, T. L. Windus,
        J. Hammond, J. Autschbach, K. Bhaskaran-Nair, J. Brabec, K. Lopata,
    S. A. Fischer, S. Krishnamoorthy, M. Jacquelin, W. Ma, M. Klemm, O. Villa,
      Y. Chen, V. Anisimov, F. Aquino, S. Hirata, M. T. Hackler, V. Konjkov,
            D. Mejia-Rodriguez, T. Risthaus, M. Malagoli, A. Marenich,
   A. Otero-de-la-Roza, J. Mullin, P. Nichols, R. Peverati, J. Pittner, Y. Zhao,
        P.-D. Fan, A. Fonari, M. J. Williamson, R. J. Harrison, J. R. Rehr,
      M. Dupuis, D. Silverstein, D. M. A. Smith, J. Nieplocha, V. Tipparaju,
    M. Krishnan, B. E. Van Kuiken, A. Vazquez-Mayagoitia, L. Jensen, M. Swart,
      Q. Wu, T. Van Voorhis, A. A. Auer, M. Nooijen, L. D. Crosby, E. Brown,
      G. Cisneros, G. I. Fann, H. Fruchtl, J. Garza, K. Hirao, R. A. Kendall,
      J. A. Nichols, K. Tsemekhman, K. Wolinski, J. Anchell, D. E. Bernholdt,
      P. Borowski, T. Clark, D. Clerc, H. Dachsel, M. J. O. Deegan, K. Dyall,
    D. Elwood, E. Glendening, M. Gutowski, A. C. Hess, J. Jaffe, B. G. Johnson,
     J. Ju, R. Kobayashi, R. Kutteh, Z. Lin, R. Littlefield, X. Long, B. Meng,
      T. Nakajima, S. Niu, L. Pollack, M. Rosing, K. Glaesemann, G. Sandrone,
      M. Stave, H. Taylor, G. Thomas, J. H. van Lenthe, A. T. Wong, Z. Zhang.

 Total times  cpu:     6641.3s     wall:     6892.3s
