 argument  1 = h2o.nw
 


============================== echo of input deck ==============================

echo
start h2o-spher
title h2o-spher

geometry units atomic
symmetry c1
O    0.015430 -1.243955  0.407682
H    2.851070  0.834185  0.489629
H   -2.682386  1.026473  0.460734
end

basis spherical
 O library cc-pvdz
 H library cc-pvdz
end

dft
 mult 1
 grid xfine
 xc b3lyp
 iterations 100
 print "final vectors" "final vectors analysis"
end

property
 nbofile 2
end

task dft property

================================================================================


                                         
                                         
 
 
              Northwest Computational Chemistry Package (NWChem) 6.6
              ------------------------------------------------------
 
 
                    Environmental Molecular Sciences Laboratory
                       Pacific Northwest National Laboratory
                                Richland, WA 99352
 
                              Copyright (c) 1994-2015
                       Pacific Northwest National Laboratory
                            Battelle Memorial Institute
 
             NWChem is an open-source computational chemistry package
                        distributed under the terms of the
                      Educational Community License (ECL) 2.0
             A copy of the license is included with this distribution
                              in the LICENSE.TXT file
 
                                  ACKNOWLEDGMENT
                                  --------------

            This software and its documentation were developed at the
            EMSL at Pacific Northwest National Laboratory, a multiprogram
            national laboratory, operated for the U.S. Department of Energy
            by Battelle under Contract Number DE-AC05-76RL01830. Support
            for this work was provided by the Department of Energy Office
            of Biological and Environmental Research, Office of Basic
            Energy Sciences, and the Office of Advanced Scientific Computing.


           Job information
           ---------------

    hostname        = srv-k07-14.cbls.ccr.buffalo.edu
    program         = /projects/academic/jochena/software/nwchem-svn/bin/LINUX64/nwchem
    date            = Sat Sep 24 03:53:03 2016

    compiled        = Wed_Sep_14_13:31:52_2016
    source          = /projects/academic/jochena/software/nwchem-svn
    nwchem branch   = Development
    nwchem revision = 28323
    ga revision     = 10664
    input           = h2o.nw
    prefix          = h2o-spher.
    data base       = ./h2o-spher.db
    status          = startup
    nproc           =        1
    time left       =     -1s



           Memory information
           ------------------

    heap     =   13107194 doubles =    100.0 Mbytes
    stack    =   13107199 doubles =    100.0 Mbytes
    global   =   26214400 doubles =    200.0 Mbytes (distinct from heap & stack)
    total    =   52428793 doubles =    400.0 Mbytes
    verify   = yes
    hardfail = no 


           Directory information
           ---------------------
 
  0 permanent = .
  0 scratch   = .
 
 
 
 
                                NWChem Input Module
                                -------------------
 
 
                                     h2o-spher
                                     ---------
 Turning off AUTOSYM since
 SYMMETRY directive was detected!
 

          ------
          auto-z
          ------
     1 autoz failed with cvr_scaling = 1.2 changing to 1.3
     2 autoz failed with cvr_scaling = 1.3 changing to 1.4
     3 autoz failed with cvr_scaling = 1.4 changing to 1.5
     4 autoz failed with cvr_scaling = 1.5 changing to 1.6
     5 autoz failed with cvr_scaling = 1.6 changing to 1.7

 AUTOZ failed to generate good internal coordinates.
 Cartesian coordinates will be used in optimizations.

 
 
                             Geometry "geometry" -> ""
                             -------------------------
 
 Output coordinates in a.u. (scale by  1.000000000 to convert to a.u.)
 
  No.       Tag          Charge          X              Y              Z
 ---- ---------------- ---------- -------------- -------------- --------------
    1 O                    8.0000    -0.01378240    -0.43485680    -0.01349990
    2 H                    1.0000     2.82185760     1.64328320     0.06844710
    3 H                    1.0000    -2.71159840     1.83557120     0.03955210
 
      Atomic Mass 
      ----------- 
 
      O                 15.994910
      H                  1.007825
 

 Effective nuclear repulsion energy (a.u.)       4.7241227517

            Nuclear Dipole moment (a.u.) 
            ----------------------------
        X                 Y               Z
 ---------------- ---------------- ----------------
     0.0000000000     0.0000000000    -0.0000000000
 
 
            XYZ format geometry
            -------------------
     3
 geometry
 O                    -0.00729333    -0.23011633    -0.00714384
 H                     1.49326284     0.86958808     0.03622065
 H                    -1.43491618     0.97134252     0.02093007
 
  library name resolved from: environment
  library file name is: <
 /projects/academic/jochena/software/nwchem-svn/src/basis/libraries/>
  
                      Basis "ao basis" -> "" (spherical)
                      -----
  O (Oxygen)
  ----------
            Exponent  Coefficients 
       -------------- ---------------------------------------------------------
  1 S  1.17200000E+04  0.000710
  1 S  1.75900000E+03  0.005470
  1 S  4.00800000E+02  0.027837
  1 S  1.13700000E+02  0.104800
  1 S  3.70300000E+01  0.283062
  1 S  1.32700000E+01  0.448719
  1 S  5.02500000E+00  0.270952
  1 S  1.01300000E+00  0.015458
 
  2 S  1.17200000E+04 -0.000160
  2 S  1.75900000E+03 -0.001263
  2 S  4.00800000E+02 -0.006267
  2 S  1.13700000E+02 -0.025716
  2 S  3.70300000E+01 -0.070924
  2 S  1.32700000E+01 -0.165411
  2 S  5.02500000E+00 -0.116955
  2 S  1.01300000E+00  0.557368
 
  3 S  3.02300000E-01  1.000000
 
  4 P  1.77000000E+01  0.043018
  4 P  3.85400000E+00  0.228913
  4 P  1.04600000E+00  0.508728
 
  5 P  2.75300000E-01  1.000000
 
  6 D  1.18500000E+00  1.000000
 
  H (Hydrogen)
  ------------
            Exponent  Coefficients 
       -------------- ---------------------------------------------------------
  1 S  1.30100000E+01  0.019685
  1 S  1.96200000E+00  0.137977
  1 S  4.44600000E-01  0.478148
 
  2 S  1.22000000E-01  1.000000
 
  3 P  7.27000000E-01  1.000000
 


 Summary of "ao basis" -> "" (spherical)
 ------------------------------------------------------------------------------
       Tag                 Description            Shells   Functions and Types
 ---------------- ------------------------------  ------  ---------------------
 O                          cc-pvdz                  6       14   3s2p1d
 H                          cc-pvdz                  3        5   2s1p


                              NWChem Property Module
                              ----------------------
 
 
                                     h2o-spher
 
  itol2e modified to match energy
  convergence criterion.
 
                                 NWChem DFT Module
                                 -----------------
 
 
                                     h2o-spher
 
 


 Summary of "ao basis" -> "ao basis" (spherical)
 ------------------------------------------------------------------------------
       Tag                 Description            Shells   Functions and Types
 ---------------- ------------------------------  ------  ---------------------
 O                          cc-pvdz                  6       14   3s2p1d
 H                          cc-pvdz                  3        5   2s1p


  Caching 1-el integrals 
 
            General Information
            -------------------
          SCF calculation type: DFT
          Wavefunction type:  closed shell.
          No. of atoms     :     3
          No. of electrons :    10
           Alpha electrons :     5
            Beta electrons :     5
          Charge           :     0
          Spin multiplicity:     1
          Use of symmetry is: off; symmetry adaption is: off
          Maximum number of iterations: 100
          AO basis - number of functions:    24
                     number of shells:    12
          Convergence on energy requested:  1.00D-07
          Convergence on density requested:  1.00D-05
          Convergence on gradient requested:  5.00D-04
 
              XC Information
              --------------
                         B3LYP Method XC Potential
                     Hartree-Fock (Exact) Exchange  0.200          
                        Slater Exchange Functional  0.800 local    
                    Becke 1988 Exchange Functional  0.720 non-local
              Lee-Yang-Parr Correlation Functional  0.810          
                  VWN I RPA Correlation Functional  0.190 local    
 
             Grid Information
             ----------------
          Grid used for XC integration:  xfine     
          Radial quadrature: Mura-Knowles        
          Angular quadrature: Lebedev. 
          Tag              B.-S. Rad. Rad. Pts. Rad. Cut. Ang. Pts.
          ---              ---------- --------- --------- ---------
          O                   0.60      100           7.0      1454
          H                   0.35      100           9.0      1202
          Grid pruning is: on 
          Number of quadrature shells:   300
          Spatial weights used:  Erf1
 
          Convergence Information
          -----------------------
          Convergence aids based upon iterative change in 
          total energy or number of iterations. 
          Levelshifting, if invoked, occurs when the 
          HOMO/LUMO gap drops below (HL_TOL):  1.00D-02
          DIIS, if invoked, will attempt to extrapolate 
          using up to (NFOCK): 10 stored Fock matrices.

                    Damping( 0%)  Levelshifting(0.5)       DIIS
                  --------------- ------------------- ---------------
          dE  on:    start            ASAP                start   
          dE off:    2 iters        100 iters           100 iters 

 
      Screening Tolerance Information
      -------------------------------
          Density screening/tol_rho:  1.00D-11
          AO Gaussian exp screening on grid/accAOfunc:  16
          CD Gaussian exp screening on grid/accCDfunc:  20
          XC Gaussian exp screening on grid/accXCfunc:  20
          Schwarz screening/accCoul:  1.00D-08

 
      Superposition of Atomic Density Guess
      -------------------------------------
 
 Sum of atomic energies:         -75.76222910
 
      Non-variational initial energy
      ------------------------------

 Total energy =     -75.030345
 1-e energy   =    -113.675675
 2-e energy   =      33.921207
 HOMO         =      -0.370115
 LUMO         =      -0.144526
 
   Time after variat. SCF:      0.1
   Time prior to 1st pass:      0.1

 Integral file          = ./h2o-spher.aoints.0
 Record size in doubles =    65536    No. of integs per rec  =    43688
 Max. records in memory =        3    Max. records in file   = ********
 No. of bits per label  =        8    No. of bits per value  =       64


 #quartets = 3.081D+03 #integrals = 4.525D+04 #direct =  0.0% #cached =100.0%


 Grid_pts file          = ./h2o-spher.gridpts.0
 Record size in doubles =  12289        No. of grid_pts per rec  =   3070
 Max. records in memory =    158        Max. recs in file   = 193596816


           Memory utilization after 1st SCF pass: 
           Heap Space remaining (MW):       10.97            10967138
          Stack Space remaining (MW):       13.11            13106924

   convergence    iter        energy       DeltaE   RMS-Dens  Diis-err    time
 ---------------- ----- ----------------- --------- --------- ---------  ------
 d= 0,ls=0.0,diis     1    -75.8411466865 -8.06D+01  9.34D-02  1.26D+00     1.1
 d= 0,ls=0.0,diis     2    -74.3848721627  1.46D+00  7.13D-02  7.67D+00     1.9
 d= 0,ls=0.0,diis     3    -76.1055060573 -1.72D+00  1.59D-03  1.61D-02     2.6
 d= 0,ls=0.0,diis     4    -76.1039401795  1.57D-03  2.23D-04  2.64D-02     3.4
 d= 0,ls=0.0,diis     5    -76.1041812456 -2.41D-04  2.88D-04  2.53D-02     4.2
 d= 0,ls=0.0,diis     6    -76.1036839387  4.97D-04  1.41D-03  2.89D-02     5.1
  Resetting Diis
 d= 0,ls=0.0,diis     7    -76.1058814544 -2.20D-03  2.00D-03  1.18D-02     5.9
 d= 0,ls=0.0,diis     8    -76.1074552698 -1.57D-03  1.08D-03  9.48D-05     6.7
 d= 0,ls=0.0,diis     9    -76.1071468123  3.08D-04  8.98D-04  2.56D-03     7.6
 d= 0,ls=0.0,diis    10    -76.1074672984 -3.20D-04  5.06D-05  8.81D-07     8.4
 d= 0,ls=0.0,diis    11    -76.1074674940 -1.96D-07  1.54D-05  9.01D-08     9.3
 d= 0,ls=0.0,diis    12    -76.1074675242 -3.02D-08  4.52D-06  3.71D-09    10.1


         Total DFT energy =      -76.107467524249
      One electron energy =     -114.334781598463
           Coulomb energy =       42.429737666506
    Exchange-Corr. energy =       -8.926546343984
 Nuclear repulsion energy =        4.724122751692

 Numeric. integr. density =       10.000000004640

     Total iterative time =     10.0s


 
                       DFT Final Molecular Orbital Analysis
                       ------------------------------------
 
 Vector    1  Occ=2.000000D+00  E=-1.921649D+01
              MO Center= -7.3D-03, -2.3D-01, -7.1D-03, r^2= 1.5D-02
   Bfn.  Coefficient  Atom+Function         Bfn.  Coefficient  Atom+Function  
  ----- ------------  ---------------      ----- ------------  ---------------
     1      1.002589  1 O  s          
 
 Vector    2  Occ=2.000000D+00  E=-8.810441D-01
              MO Center= -5.9D-03, -2.0D-01, -6.1D-03, r^2= 4.8D-01
   Bfn.  Coefficient  Atom+Function         Bfn.  Coefficient  Atom+Function  
  ----- ------------  ---------------      ----- ------------  ---------------
     3      0.566203  1 O  s                  2      0.497817  1 O  s          
    15      0.028403  2 H  s                 20      0.028059  3 H  s          
 
 Vector    3  Occ=2.000000D+00  E=-3.454515D-01
              MO Center=  2.1D-02,  2.4D-01,  7.6D-03, r^2= 1.9D+00
   Bfn.  Coefficient  Atom+Function         Bfn.  Coefficient  Atom+Function  
  ----- ------------  ---------------      ----- ------------  ---------------
     4      0.473096  1 O  px                 7      0.323881  1 O  px         
    15      0.248967  2 H  s                 20     -0.243266  3 H  s          
    16      0.221099  2 H  s                 21     -0.216727  3 H  s          
 
 Vector    4  Occ=2.000000D+00  E=-3.277986D-01
              MO Center= -6.8D-03,  2.3D-01,  7.2D-03, r^2= 1.8D+00
   Bfn.  Coefficient  Atom+Function         Bfn.  Coefficient  Atom+Function  
  ----- ------------  ---------------      ----- ------------  ---------------
     5      0.479474  1 O  py                 8      0.338606  1 O  py         
    20      0.244074  3 H  s                 15      0.238302  2 H  s          
    21      0.215823  3 H  s                 16      0.210251  2 H  s          
     3     -0.132615  1 O  s                  2     -0.078121  1 O  s          
 
 Vector    5  Occ=2.000000D+00  E=-2.878867D-01
              MO Center= -7.1D-03, -2.3D-01, -7.0D-03, r^2= 5.6D-01
   Bfn.  Coefficient  Atom+Function         Bfn.  Coefficient  Atom+Function  
  ----- ------------  ---------------      ----- ------------  ---------------
     6      0.669397  1 O  pz                 9      0.478228  1 O  pz         
 
 Vector    6  Occ=0.000000D+00  E=-1.600361D-01
              MO Center= -1.1D-02,  4.6D-01,  1.4D-02, r^2= 2.6D+00
   Bfn.  Coefficient  Atom+Function         Bfn.  Coefficient  Atom+Function  
  ----- ------------  ---------------      ----- ------------  ---------------
     5      0.460939  1 O  py                 8      0.369883  1 O  py         
    21     -0.352051  3 H  s                 16     -0.342272  2 H  s          
    20     -0.293833  3 H  s                 15     -0.284849  2 H  s          
     3      0.163168  1 O  s                  2      0.073523  1 O  s          
 
 Vector    7  Occ=0.000000D+00  E=-1.345644D-01
              MO Center=  4.2D-02,  4.9D-01,  1.5D-02, r^2= 2.6D+00
   Bfn.  Coefficient  Atom+Function         Bfn.  Coefficient  Atom+Function  
  ----- ------------  ---------------      ----- ------------  ---------------
     4      0.478049  1 O  px                 7      0.393146  1 O  px         
    16     -0.379427  2 H  s                 21      0.368301  3 H  s          
    15     -0.313139  2 H  s                 20      0.304858  3 H  s          
 
 Vector    8  Occ=0.000000D+00  E= 4.186948D-01
              MO Center=  4.2D-02,  1.0D+00,  3.1D-02, r^2= 4.1D+00
   Bfn.  Coefficient  Atom+Function         Bfn.  Coefficient  Atom+Function  
  ----- ------------  ---------------      ----- ------------  ---------------
    16     -0.902900  2 H  s                 21     -0.896147  3 H  s          
    15      0.883059  2 H  s                 20      0.877942  3 H  s          
     3      0.304777  1 O  s                  8      0.185345  1 O  py         
     5     -0.092939  1 O  py         
 
 Vector    9  Occ=0.000000D+00  E= 4.698316D-01
              MO Center=  2.3D-02,  1.0D+00,  3.1D-02, r^2= 4.7D+00
   Bfn.  Coefficient  Atom+Function         Bfn.  Coefficient  Atom+Function  
  ----- ------------  ---------------      ----- ------------  ---------------
    16      1.055994  2 H  s                 21     -1.061119  3 H  s          
    20      0.907952  3 H  s                 15     -0.902225  2 H  s          
     7     -0.246472  1 O  px                 4      0.072189  1 O  px         
    17      0.049898  2 H  px                22      0.048748  3 H  px         
 
 Vector   10  Occ=0.000000D+00  E= 8.898312D-01
              MO Center= -2.1D-03, -1.1D-01, -3.3D-03, r^2= 1.4D+00
   Bfn.  Coefficient  Atom+Function         Bfn.  Coefficient  Atom+Function  
  ----- ------------  ---------------      ----- ------------  ---------------
     9     -0.979366  1 O  pz                 6      0.895031  1 O  pz         
    19     -0.191349  2 H  pz                24     -0.189966  3 H  pz         
     8      0.030209  1 O  py                 5     -0.027607  1 O  py         
 
 Vector   11  Occ=0.000000D+00  E= 8.958377D-01
              MO Center= -3.6D-02,  1.1D-01,  3.2D-03, r^2= 1.7D+00
   Bfn.  Coefficient  Atom+Function         Bfn.  Coefficient  Atom+Function  
  ----- ------------  ---------------      ----- ------------  ---------------
     8     -0.898663  1 O  py                 5      0.840117  1 O  py         
    22     -0.265309  3 H  px                17      0.247864  2 H  px         
     2      0.151243  1 O  s                  3     -0.145047  1 O  s          
    20      0.143121  3 H  s                 15      0.122291  2 H  s          
     1      0.058411  1 O  s                 23      0.051554  3 H  py         
 
 Vector   12  Occ=0.000000D+00  E= 9.059626D-01
              MO Center=  3.9D-02,  8.7D-02,  2.9D-03, r^2= 1.8D+00
   Bfn.  Coefficient  Atom+Function         Bfn.  Coefficient  Atom+Function  
  ----- ------------  ---------------      ----- ------------  ---------------
     7     -0.882118  1 O  px                 4      0.829416  1 O  px         
    23     -0.243819  3 H  py                18      0.236934  2 H  py         
    15      0.170441  2 H  s                 17      0.156358  2 H  px         
    20     -0.148759  3 H  s                 22      0.104718  3 H  px         
     8     -0.035671  1 O  py                 5      0.032947  1 O  py         
 
 Vector   13  Occ=0.000000D+00  E= 1.055061D+00
              MO Center=  3.4D-03, -2.9D-03, -6.8D-05, r^2= 2.1D+00
   Bfn.  Coefficient  Atom+Function         Bfn.  Coefficient  Atom+Function  
  ----- ------------  ---------------      ----- ------------  ---------------
     2      1.137979  1 O  s                  3     -1.094632  1 O  s          
     1      0.449680  1 O  s                 23      0.349672  3 H  py         
     8      0.347880  1 O  py                18      0.337904  2 H  py         
     5     -0.263404  1 O  py                17      0.218686  2 H  px         
    22     -0.195342  3 H  px                16      0.101677  2 H  s          
 
 Vector   14  Occ=0.000000D+00  E= 1.231368D+00
              MO Center=  1.6D-02,  9.2D-01,  2.8D-02, r^2= 2.6D+00
   Bfn.  Coefficient  Atom+Function         Bfn.  Coefficient  Atom+Function  
  ----- ------------  ---------------      ----- ------------  ---------------
    24     -0.709317  3 H  pz                19      0.703012  2 H  pz         
    13     -0.031092  1 O  d  1       
 
 Vector   15  Occ=0.000000D+00  E= 1.235973D+00
              MO Center=  2.2D-02,  9.2D-01,  2.9D-02, r^2= 2.6D+00
   Bfn.  Coefficient  Atom+Function         Bfn.  Coefficient  Atom+Function  
  ----- ------------  ---------------      ----- ------------  ---------------
    22      0.589688  3 H  px                17      0.559876  2 H  px         
    18     -0.426052  2 H  py                23      0.389933  3 H  py         
    16     -0.100247  2 H  s                 21      0.099769  3 H  s          
    15      0.075753  2 H  s                 20     -0.075341  3 H  s          
    10     -0.044853  1 O  d -2               4      0.035006  1 O  px         
 
 Vector   16  Occ=0.000000D+00  E= 1.263179D+00
              MO Center=  2.7D-02,  7.2D-01,  2.2D-02, r^2= 2.8D+00
   Bfn.  Coefficient  Atom+Function         Bfn.  Coefficient  Atom+Function  
  ----- ------------  ---------------      ----- ------------  ---------------
    18      0.559505  2 H  py                23      0.533209  3 H  py         
    22      0.411182  3 H  px                17     -0.378961  2 H  px         
     3      0.369563  1 O  s                  2     -0.346613  1 O  s          
     8     -0.294516  1 O  py                 5      0.231478  1 O  py         
     1     -0.142127  1 O  s                 15      0.071644  2 H  s          
 
 Vector   17  Occ=0.000000D+00  E= 1.286198D+00
              MO Center=  3.7D-02,  7.9D-01,  2.5D-02, r^2= 2.7D+00
   Bfn.  Coefficient  Atom+Function         Bfn.  Coefficient  Atom+Function  
  ----- ------------  ---------------      ----- ------------  ---------------
    19      0.686921  2 H  pz                24      0.680744  3 H  pz         
     9     -0.400007  1 O  pz                 6      0.296454  1 O  pz         
    11      0.025283  1 O  d -1       
 
 Vector   18  Occ=0.000000D+00  E= 1.505435D+00
              MO Center=  9.5D-03,  4.5D-01,  1.4D-02, r^2= 2.7D+00
   Bfn.  Coefficient  Atom+Function         Bfn.  Coefficient  Atom+Function  
  ----- ------------  ---------------      ----- ------------  ---------------
     7      0.873761  1 O  px                23     -0.560394  3 H  py         
    18      0.533642  2 H  py                 4     -0.495623  1 O  px         
    17      0.420512  2 H  px                22      0.388338  3 H  px         
    16     -0.281620  2 H  s                 21      0.281608  3 H  s          
    10     -0.181034  1 O  d -2              20     -0.035772  3 H  s          
 
 Vector   19  Occ=0.000000D+00  E= 1.744443D+00
              MO Center=  2.1D-02,  5.4D-01,  1.7D-02, r^2= 2.0D+00
   Bfn.  Coefficient  Atom+Function         Bfn.  Coefficient  Atom+Function  
  ----- ------------  ---------------      ----- ------------  ---------------
     3      1.343522  1 O  s                  2     -1.130440  1 O  s          
     8      0.570677  1 O  py                17      0.542205  2 H  px         
    22     -0.518101  3 H  px                 1     -0.486591  1 O  s          
    23      0.321280  3 H  py                 5     -0.298233  1 O  py         
    18      0.288174  2 H  py                16     -0.280134  2 H  s          
 
 Vector   20  Occ=0.000000D+00  E= 2.587008D+00
              MO Center= -7.3D-03, -2.3D-01, -7.2D-03, r^2= 4.3D-01
   Bfn.  Coefficient  Atom+Function         Bfn.  Coefficient  Atom+Function  
  ----- ------------  ---------------      ----- ------------  ---------------
    14      0.973853  1 O  d  2              12      0.208530  1 O  d  0       
    10     -0.067502  1 O  d -2              18      0.043740  2 H  py         
    23      0.043097  3 H  py                11     -0.041643  1 O  d -1       
     3      0.036607  1 O  s                  2     -0.026980  1 O  s          
 
 Vector   21  Occ=0.000000D+00  E= 2.605202D+00
              MO Center= -7.3D-03, -2.3D-01, -7.1D-03, r^2= 4.2D-01
   Bfn.  Coefficient  Atom+Function         Bfn.  Coefficient  Atom+Function  
  ----- ------------  ---------------      ----- ------------  ---------------
    13      0.993203  1 O  d  1              11      0.108144  1 O  d -1       
    24     -0.031307  3 H  pz                10      0.029956  1 O  d -2       
    19      0.028402  2 H  pz         
 
 Vector   22  Occ=0.000000D+00  E= 2.605777D+00
              MO Center= -7.1D-03, -2.3D-01, -7.2D-03, r^2= 4.2D-01
   Bfn.  Coefficient  Atom+Function         Bfn.  Coefficient  Atom+Function  
  ----- ------------  ---------------      ----- ------------  ---------------
    11      0.991903  1 O  d -1              13     -0.107694  1 O  d  1       
    12      0.054220  1 O  d  0              14      0.029946  1 O  d  2       
    19     -0.026761  2 H  pz         
 
 Vector   23  Occ=0.000000D+00  E= 2.651001D+00
              MO Center= -1.3D-02, -1.9D-01, -6.1D-03, r^2= 5.1D-01
   Bfn.  Coefficient  Atom+Function         Bfn.  Coefficient  Atom+Function  
  ----- ------------  ---------------      ----- ------------  ---------------
    12      0.966386  1 O  d  0              14     -0.200858  1 O  d  2       
     3     -0.197926  1 O  s                  2      0.156892  1 O  s          
    22      0.115451  3 H  px                 8     -0.109301  1 O  py         
    17     -0.106614  2 H  px                23     -0.095649  3 H  py         
    18     -0.076566  2 H  py                 1      0.069047  1 O  s          
 
 Vector   24  Occ=0.000000D+00  E= 2.669425D+00
              MO Center=  3.8D-03, -1.6D-01, -4.8D-03, r^2= 6.0D-01
   Bfn.  Coefficient  Atom+Function         Bfn.  Coefficient  Atom+Function  
  ----- ------------  ---------------      ----- ------------  ---------------
    10      0.981213  1 O  d -2               7      0.202555  1 O  px         
    17      0.163579  2 H  px                22      0.140000  3 H  px         
    18      0.123716  2 H  py                23     -0.122309  3 H  py         
     4     -0.098546  1 O  px                16     -0.093121  2 H  s          
    21      0.086522  3 H  s                 14      0.078885  1 O  d  2       
 
                                 Final MO vectors
                                 ----------------
 

 global array: alpha evecs[1:24,1:24],  handle: -995 

            1           2           3           4           5           6  
       ----------- ----------- ----------- ----------- ----------- -----------
   1       1.00259    -0.00428    -0.00000    -0.00168     0.00000     0.00063
   2       0.00617     0.49782    -0.00117    -0.07812     0.00000     0.07352
   3      -0.00676     0.56620    -0.00211    -0.13261     0.00000     0.16317
   4       0.00003     0.00086     0.47310     0.01080    -0.00421     0.00863
   5       0.00071     0.02112    -0.01041     0.47947    -0.02065     0.46094
   6       0.00002     0.00066     0.00266     0.01486     0.66940     0.01427
   7      -0.00003     0.00043     0.32388     0.00762    -0.00301     0.00700
   8      -0.00077     0.01052    -0.00712     0.33861    -0.01475     0.36988
   9      -0.00002     0.00033     0.00182     0.01049     0.47823     0.01145
  10       0.00000    -0.00002     0.01035     0.00006    -0.00004     0.00037
  11      -0.00000     0.00033     0.00005     0.00033     0.00515     0.00009
  12       0.00006    -0.00634    -0.00007    -0.00481     0.00028     0.00108
  13       0.00000    -0.00007    -0.00032    -0.00004    -0.00020     0.00003
  14      -0.00002     0.00040     0.00070    -0.00220     0.00016    -0.00472
  15      -0.00004     0.02840     0.24897     0.23830    -0.00000    -0.28485
  16       0.00079     0.02009     0.22110     0.21025    -0.00000    -0.34227
  17      -0.00044    -0.00475    -0.00423    -0.00578    -0.00005    -0.01421
  18      -0.00030    -0.00345    -0.00716     0.00236    -0.00026    -0.00546
  19      -0.00001    -0.00014    -0.00025     0.00004     0.00850    -0.00026
  20      -0.00005     0.02806    -0.24327     0.24407     0.00000    -0.29383
  21       0.00079     0.02002    -0.21673     0.21582     0.00000    -0.35205
  22       0.00041     0.00448    -0.00359     0.00595    -0.00005     0.01406
  23      -0.00032    -0.00373     0.00741     0.00180    -0.00026    -0.00681
  24      -0.00001    -0.00009     0.00021     0.00009     0.00843    -0.00012

            7           8           9          10          11          12  
       ----------- ----------- ----------- ----------- ----------- -----------
   1      -0.00002    -0.01552     0.00018    -0.00000     0.05841     0.00334
   2       0.00131     0.01850     0.00067    -0.00000     0.15124     0.00873
   3       0.00331     0.30478    -0.00052     0.00000    -0.14505    -0.00815
   4       0.47805    -0.00430     0.07219    -0.00563    -0.03109     0.82942
   5      -0.00956    -0.09294    -0.00198    -0.02761     0.84012     0.03295
   6       0.00271    -0.00289     0.00039     0.89503     0.02572     0.00624
   7       0.39315     0.00716    -0.24647     0.00616     0.03273    -0.88212
   8      -0.00780     0.18535     0.00865     0.03021    -0.89866    -0.03567
   9       0.00223     0.00576    -0.00128    -0.97937    -0.02751    -0.00665
  10      -0.00347    -0.00013    -0.01909     0.00002     0.00139    -0.01930
  11      -0.00001     0.00043    -0.00008    -0.00297    -0.00051    -0.00012
  12       0.00001    -0.01101     0.00006    -0.00016     0.01005     0.00068
  13       0.00011    -0.00015     0.00060     0.00018     0.00007     0.00061
  14      -0.00028     0.00506    -0.00131    -0.00009    -0.00053    -0.00136
  15      -0.31314     0.88306    -0.90222    -0.00000     0.12229     0.17044
  16      -0.37943    -0.90290     1.05599    -0.00000     0.02920     0.03072
  17      -0.01233    -0.00660     0.04990     0.00120     0.24786     0.15636
  18      -0.01327    -0.01874     0.01717     0.00590    -0.00092     0.23693
  19      -0.00049    -0.00062     0.00084    -0.19135     0.00153     0.00829
  20       0.30486     0.87794     0.90795     0.00000     0.14312    -0.14876
  21       0.36830    -0.89615    -1.06112     0.00000     0.03453    -0.02800
  22      -0.01100     0.00507     0.04875     0.00120    -0.26531     0.10472
  23       0.01382    -0.01903    -0.02067     0.00586     0.05155    -0.24382
  24       0.00036    -0.00056    -0.00033    -0.18997    -0.00008    -0.00686

           13          14          15          16          17          18  
       ----------- ----------- ----------- ----------- ----------- -----------
   1       0.44968    -0.00000     0.00020    -0.14213     0.00000     0.00018
   2       1.13798    -0.00000     0.00059    -0.34661     0.00000     0.00073
   3      -1.09463     0.00000    -0.00021     0.36956    -0.00000     0.00021
   4      -0.00741     0.00000     0.03501     0.00847    -0.00187    -0.49562
   5      -0.26340     0.00000    -0.00079     0.23148    -0.00914     0.01856
   6      -0.00817    -0.00014     0.00020     0.00719     0.29645    -0.00255
   7       0.01093     0.00000     0.00515    -0.01107     0.00252     0.87376
   8       0.34788     0.00000    -0.00019    -0.29452     0.01234    -0.03116
   9       0.01080    -0.00002     0.00003    -0.00915    -0.40001     0.00454
  10       0.00096    -0.00095    -0.04485     0.00313    -0.00020    -0.18103
  11      -0.00104    -0.00090    -0.00020     0.00114     0.02528    -0.00077
  12       0.03103     0.00029     0.00006     0.00171     0.00137     0.00032
  13       0.00043    -0.03109     0.00140     0.00017    -0.00132     0.00567
  14      -0.02002    -0.00022    -0.00275    -0.03926     0.00077    -0.01259
  15      -0.03952     0.00000     0.07575     0.07164    -0.00000     0.03505
  16       0.10168    -0.00000    -0.10025    -0.07051     0.00000    -0.28162
  17       0.21869    -0.00442     0.55988    -0.37896    -0.00432     0.42051
  18       0.33790    -0.02168    -0.42605     0.55951    -0.02119     0.53364
  19       0.01180     0.70301    -0.00962     0.01487     0.68692     0.01911
  20      -0.04071    -0.00000    -0.07534     0.07193    -0.00000    -0.03577
  21       0.10215     0.00000     0.09977    -0.07153     0.00000     0.28161
  22      -0.19534     0.00446     0.58969     0.41118    -0.00428     0.38834
  23       0.34967     0.02188     0.38993     0.53321    -0.02100    -0.56039
  24       0.00956    -0.70932     0.01574     0.01903     0.68074    -0.01484

           19          20          21          22          23          24  
       ----------- ----------- ----------- ----------- ----------- -----------
   1      -0.48659    -0.01233     0.00000    -0.00000     0.06905    -0.00491
   2      -1.13044    -0.02698     0.00000    -0.00000     0.15689    -0.01104
   3       1.34352     0.03661    -0.00000     0.00000    -0.19793     0.01425
   4      -0.01095     0.00003     0.00000     0.00006    -0.00300    -0.09855
   5      -0.29823     0.00029     0.00002     0.00027     0.05255    -0.00022
   6      -0.00927     0.00001    -0.00056    -0.00877     0.00160    -0.00063
   7       0.02259     0.00039    -0.00000    -0.00004     0.00582     0.20256
   8       0.57068     0.01295    -0.00001    -0.00018    -0.10930     0.00089
   9       0.01774     0.00040     0.00031     0.00579    -0.00333     0.00130
  10       0.00099    -0.06750     0.02996    -0.00958     0.06659     0.98121
  11      -0.00572    -0.04164     0.10814     0.99190    -0.04506     0.00646
  12       0.13647     0.20853    -0.00505     0.05422     0.96639    -0.05068
  13       0.00178    -0.00176     0.99320    -0.10769     0.00975    -0.03132
  14      -0.05079     0.97385     0.00958     0.02995    -0.20086     0.07889
  15       0.01342    -0.00183     0.00000     0.00000     0.01748    -0.01557
  16      -0.28013    -0.00988     0.00000     0.00000     0.04670    -0.09312
  17       0.54220    -0.00127    -0.00018     0.00017    -0.10661     0.16358
  18       0.28817     0.04374    -0.00088     0.00083    -0.07657     0.12372
  19       0.01230     0.00134     0.02840    -0.02676    -0.00303     0.00485
  20       0.01457    -0.00171     0.00000    -0.00000     0.01816     0.01245
  21      -0.27745    -0.01014     0.00000    -0.00000     0.05579     0.08652
  22      -0.51810     0.00338     0.00020     0.00014     0.11545     0.14000
  23       0.32128     0.04310     0.00097     0.00067    -0.09565    -0.12231
  24       0.00665     0.00135    -0.03131    -0.02174    -0.00222    -0.00289

 center of mass
 --------------
 x =  -0.00607012 y =  -0.19152203 z =  -0.00594570

 moments of inertia (a.u.)
 ------------------
           8.489778083222           0.267957938547          -0.088896722541
           0.267957938547          15.446442418338          -0.259916186597
          -0.088896722541          -0.259916186597          23.919067287596
 
     Multipole analysis of the density
     ---------------------------------
 
     L   x y z        total         alpha         beta         nuclear
     -   - - -        -----         -----         ----         -------
     0   0 0 0     -0.000000     -5.000000     -5.000000     10.000000
 
     1   1 0 0      0.023304      0.011652      0.011652      0.000000
     1   0 1 0      0.668329      0.334164      0.334164      0.000000
     1   0 0 1      0.020761      0.010381      0.010381     -0.000000
 
     2   2 0 0     -2.381222     -8.849194     -8.849194     15.317166
     2   1 1 0     -0.065861      0.113206      0.113206     -0.292274
     2   1 0 1      0.021819     -0.032784     -0.032784      0.087387
     2   0 2 0     -4.275890     -5.929197     -5.929197      7.582505
     2   0 1 1      0.058034     -0.087004     -0.087004      0.232043
     2   0 0 2     -6.168884     -3.088296     -3.088296      0.007707
 

 Parallel integral file used       2 records with       0 large values


 Input for gennbo program written to file ./h2o-spher.gen.
 Reading MOs from: 
 ./h2o-spher.movecs                                                             
                                                                                
                                                                                
                   

 Task  times  cpu:       10.1s     wall:       10.9s
 
 
                                NWChem Input Module
                                -------------------
 
 
 Summary of allocated global arrays
-----------------------------------
  No active global arrays



                         GA Statistics for process    0
                         ------------------------------

       create   destroy   get      put      acc     scatter   gather  read&inc
calls:  190      190     9611      718     7081        2        0      461     
number of processes/call 1.00e+00 1.00e+00 1.00e+00 1.00e+00 0.00e+00
bytes total:             6.39e+06 8.93e+05 4.20e+06 3.84e+02 0.00e+00 3.69e+03
bytes remote:            0.00e+00 0.00e+00 0.00e+00 0.00e+00 0.00e+00 0.00e+00
Max memory consumed for GA by this process: 179712 bytes
 
MA_summarize_allocated_blocks: starting scan ...
MA_summarize_allocated_blocks: scan completed: 0 heap blocks, 0 stack blocks
MA usage statistics:

	allocation statistics:
					      heap	     stack
					      ----	     -----
	current number of blocks	         0	         0
	maximum number of blocks	        21	        51
	current total bytes		         0	         0
	maximum total bytes		  17120456	  22510872
	maximum total K-bytes		     17121	     22511
	maximum total M-bytes		        18	        23
 
 
                                     CITATION
                                     --------
                Please cite the following reference when publishing
                           results obtained with NWChem:
 
                 M. Valiev, E.J. Bylaska, N. Govind, K. Kowalski,
              T.P. Straatsma, H.J.J. van Dam, D. Wang, J. Nieplocha,
                        E. Apra, T.L. Windus, W.A. de Jong
                 "NWChem: a comprehensive and scalable open-source
                  solution for large scale molecular simulations"
                      Comput. Phys. Commun. 181, 1477 (2010)
                           doi:10.1016/j.cpc.2010.04.018
 
                                      AUTHORS
                                      -------
          E. Apra, E. J. Bylaska, W. A. de Jong, N. Govind, K. Kowalski,
       T. P. Straatsma, M. Valiev, H. J. J. van Dam, D. Wang, T. L. Windus,
        J. Hammond, J. Autschbach, K. Bhaskaran-Nair, J. Brabec, K. Lopata,
       S. A. Fischer, S. Krishnamoorthy, W. Ma, M. Klemm, O. Villa, Y. Chen,
    V. Anisimov, F. Aquino, S. Hirata, M. T. Hackler, T. Risthaus, M. Malagoli,
       A. Marenich, A. Otero-de-la-Roza, J. Mullin, P. Nichols, R. Peverati,
     J. Pittner, Y. Zhao, P.-D. Fan, A. Fonari, M. Williamson, R. J. Harrison,
       J. R. Rehr, M. Dupuis, D. Silverstein, D. M. A. Smith, J. Nieplocha,
        V. Tipparaju, M. Krishnan, B. E. Van Kuiken, A. Vazquez-Mayagoitia,
        L. Jensen, M. Swart, Q. Wu, T. Van Voorhis, A. A. Auer, M. Nooijen,
      L. D. Crosby, E. Brown, G. Cisneros, G. I. Fann, H. Fruchtl, J. Garza,
        K. Hirao, R. A. Kendall, J. A. Nichols, K. Tsemekhman, K. Wolinski,
     J. Anchell, D. E. Bernholdt, P. Borowski, T. Clark, D. Clerc, H. Dachsel,
   M. J. O. Deegan, K. Dyall, D. Elwood, E. Glendening, M. Gutowski, A. C. Hess,
         J. Jaffe, B. G. Johnson, J. Ju, R. Kobayashi, R. Kutteh, Z. Lin,
   R. Littlefield, X. Long, B. Meng, T. Nakajima, S. Niu, L. Pollack, M. Rosing,
   K. Glaesemann, G. Sandrone, M. Stave, H. Taylor, G. Thomas, J. H. van Lenthe,
                               A. T. Wong, Z. Zhang.

 Total times  cpu:       10.1s     wall:       11.7s
