Gaussian tag file: using scratch dir = /scratch/6216980
declare -x SLURMD_NODENAME="cpn-k08-40-01"
declare -x SLURMTMPDIR="/scratch/6216980"
declare -x SLURM_CHECKPOINT_IMAGE_DIR="/var/slurm/checkpoint"
declare -x SLURM_CLUSTER_NAME="ub-hpc"
declare -x SLURM_CPUS_ON_NODE="1"
declare -x SLURM_GTIDS="0"
declare -x SLURM_JOBID="6216980"
declare -x SLURM_JOB_ACCOUNT="pinvest"
declare -x SLURM_JOB_CPUS_PER_NODE="1"
declare -x SLURM_JOB_ID="6216980"
declare -x SLURM_JOB_NAME="ch3nh2"
declare -x SLURM_JOB_NODELIST="cpn-k08-40-01"
declare -x SLURM_JOB_NUM_NODES="1"
declare -x SLURM_JOB_PARTITION="debug"
declare -x SLURM_JOB_QOS="debug"
declare -x SLURM_JOB_UID="375950"
declare -x SLURM_JOB_USER="gradstud"
declare -x SLURM_LOCALID="0"
declare -x SLURM_MEM_PER_NODE="2875"
declare -x SLURM_NNODES="1"
declare -x SLURM_NODEID="0"
declare -x SLURM_NODELIST="cpn-k08-40-01"
declare -x SLURM_NODE_ALIASES="(null)"
declare -x SLURM_NPROCS="1"
declare -x SLURM_NTASKS="1"
declare -x SLURM_NTASKS_PER_NODE="1"
declare -x SLURM_PRIO_PROCESS="0"
declare -x SLURM_PROCID="0"
declare -x SLURM_SUBMIT_DIR="/path/to/dir"
declare -x SLURM_SUBMIT_HOST="srv-k07-14.cbls.ccr.buffalo.edu"
declare -x SLURM_TASKS_PER_NODE="1"
declare -x SLURM_TASK_PID="14442"
declare -x SLURM_TOPOLOGY_ADDR="IB1.cpn-k08-40-01"
declare -x SLURM_TOPOLOGY_ADDR_PATTERN="switch.node"
 Entering Gaussian System, Link 0=g09
 Initial command:
 /software/gaussian/g09.D01/em64t/g09/l1.exe "/scratch/6216980/Gau-14487.inp" -scrdir="/scratch/6216980/"
 Entering Link 1 = /software/gaussian/g09.D01/em64t/g09/l1.exe PID=     14488.

 Copyright (c) 1988,1990,1992,1993,1995,1998,2003,2009,2013,
            Gaussian, Inc.  All Rights Reserved.

 This is part of the Gaussian(R) 09 program.  It is based on
 the Gaussian(R) 03 system (copyright 2003, Gaussian, Inc.),
 the Gaussian(R) 98 system (copyright 1998, Gaussian, Inc.),
 the Gaussian(R) 94 system (copyright 1995, Gaussian, Inc.),
 the Gaussian 92(TM) system (copyright 1992, Gaussian, Inc.),
 the Gaussian 90(TM) system (copyright 1990, Gaussian, Inc.),
 the Gaussian 88(TM) system (copyright 1988, Gaussian, Inc.),
 the Gaussian 86(TM) system (copyright 1986, Carnegie Mellon
 University), and the Gaussian 82(TM) system (copyright 1983,
 Carnegie Mellon University). Gaussian is a federally registered
 trademark of Gaussian, Inc.

 This software contains proprietary and confidential information,
 including trade secrets, belonging to Gaussian, Inc.

 This software is provided under written license and may be
 used, copied, transmitted, or stored only in accord with that
 written license.

 The following legend is applicable only to US Government
 contracts under FAR:

                    RESTRICTED RIGHTS LEGEND

 Use, reproduction and disclosure by the US Government is
 subject to restrictions as set forth in subparagraphs (a)
 and (c) of the Commercial Computer Software - Restricted
 Rights clause in FAR 52.227-19.

 Gaussian, Inc.
 340 Quinnipiac St., Bldg. 40, Wallingford CT 06492


 ---------------------------------------------------------------
 Warning -- This program may not be used in any manner that
 competes with the business of Gaussian, Inc. or will provide
 assistance to any competitor of Gaussian, Inc.  The licensee
 of this program is prohibited from giving any competitor of
 Gaussian, Inc. access to this program.  By using this program,
 the user acknowledges that Gaussian, Inc. is engaged in the
 business of creating and licensing software in the field of
 computational chemistry and represents and warrants to the
 licensee that it is not a competitor of Gaussian, Inc. and that
 it will not use this program in any manner prohibited above.
 ---------------------------------------------------------------


 Cite this work as:
 Gaussian 09, Revision D.01,
 M. J. Frisch, G. W. Trucks, H. B. Schlegel, G. E. Scuseria,
 M. A. Robb, J. R. Cheeseman, G. Scalmani, V. Barone, B. Mennucci,
 G. A. Petersson, H. Nakatsuji, M. Caricato, X. Li, H. P. Hratchian,
 A. F. Izmaylov, J. Bloino, G. Zheng, J. L. Sonnenberg, M. Hada,
 M. Ehara, K. Toyota, R. Fukuda, J. Hasegawa, M. Ishida, T. Nakajima,
 Y. Honda, O. Kitao, H. Nakai, T. Vreven, J. A. Montgomery, Jr.,
 J. E. Peralta, F. Ogliaro, M. Bearpark, J. J. Heyd, E. Brothers,
 K. N. Kudin, V. N. Staroverov, T. Keith, R. Kobayashi, J. Normand,
 K. Raghavachari, A. Rendell, J. C. Burant, S. S. Iyengar, J. Tomasi,
 M. Cossi, N. Rega, J. M. Millam, M. Klene, J. E. Knox, J. B. Cross,
 V. Bakken, C. Adamo, J. Jaramillo, R. Gomperts, R. E. Stratmann,
 O. Yazyev, A. J. Austin, R. Cammi, C. Pomelli, J. W. Ochterski,
 R. L. Martin, K. Morokuma, V. G. Zakrzewski, G. A. Voth,
 P. Salvador, J. J. Dannenberg, S. Dapprich, A. D. Daniels,
 O. Farkas, J. B. Foresman, J. V. Ortiz, J. Cioslowski,
 and D. J. Fox, Gaussian, Inc., Wallingford CT, 2013.

 ******************************************
 Gaussian 09:  EM64L-G09RevD.01 24-Apr-2013
                20-Jan-2017
 ******************************************
 %chk=ch3nh2.chk
 ----------------------------
 # HF/6-31G gfinput pop(full)
 ----------------------------
 1/38=1/1;
 2/12=2,17=6,18=5,40=1/2;
 3/5=1,6=6,11=9,16=1,24=10,25=1,30=1/1,2,3;
 4//1;
 5/5=2,38=5/2;
 6/7=3,28=1/1;
 99/5=1,9=1/99;
 ------
 ch3nh2
 ------
 Symbolic Z-matrix:
 Charge =  0 Multiplicity = 1
 C                     0.74591   0.01111   0.
 N                    -0.72174  -0.07185   0.
 H                     1.04206   1.06011   0.
 H                     1.1293   -0.48336   0.89254
 H                     1.1293   -0.48336  -0.89254
 H                    -1.07699   0.38632  -0.82703
 H                    -1.07699   0.38632   0.82703

                          Input orientation:
 ---------------------------------------------------------------------
 Center     Atomic      Atomic             Coordinates (Angstroms)
 Number     Number       Type             X           Y           Z
 ---------------------------------------------------------------------
      1          6           0        0.745914    0.011106    0.000000
      2          7           0       -0.721743   -0.071848    0.000000
      3          1           0        1.042059    1.060105    0.000000
      4          1           0        1.129298   -0.483355    0.892539
      5          1           0        1.129298   -0.483355   -0.892539
      6          1           0       -1.076988    0.386322   -0.827032
      7          1           0       -1.076988    0.386322    0.827032
 ---------------------------------------------------------------------
                    Distance matrix (angstroms):
                    1          2          3          4          5
     1  C    0.000000
     2  N    1.469999   0.000000
     3  H    1.090000   2.095785   0.000000
     4  H    1.090000   2.095785   1.785079   0.000000
     5  H    1.090000   2.095785   1.785079   1.785078   0.000000
     6  H    2.036600   1.010000   2.372409   2.929328   2.372410
     7  H    2.036600   1.010000   2.372409   2.372410   2.929328
                    6          7
     6  H    0.000000
     7  H    1.654064   0.000000
 Stoichiometry    CH5N
 Framework group  CS[SG(CHN),X(H4)]
 Deg. of freedom     9
 Full point group                 CS      NOp   2
 Largest Abelian subgroup         CS      NOp   2
 Largest concise Abelian subgroup CS      NOp   2
                         Standard orientation:
 ---------------------------------------------------------------------
 Center     Atomic      Atomic             Coordinates (Angstroms)
 Number     Number       Type             X           Y           Z
 ---------------------------------------------------------------------
      1          6           0        0.053054    0.712391    0.000000
      2          7           0        0.053054   -0.757609    0.000000
      3          1           0       -0.977561    1.067260    0.000000
      4          1           0        0.568362    1.067261    0.892539
      5          1           0        0.568362    1.067261   -0.892539
      6          1           0       -0.424433   -1.086433   -0.827032
      7          1           0       -0.424433   -1.086433    0.827032
 ---------------------------------------------------------------------
 Rotational constants (GHZ):    101.8392862     23.0219056     22.0128608
 Standard basis: 6-31G (6D, 7F)
 AO basis set in the form of general basis input (Overlap normalization):
      1 0
 S   6 1.00       0.000000000000
      0.3047524880D+04  0.1834737132D-02
      0.4573695180D+03  0.1403732281D-01
      0.1039486850D+03  0.6884262226D-01
      0.2921015530D+02  0.2321844432D+00
      0.9286662960D+01  0.4679413484D+00
      0.3163926960D+01  0.3623119853D+00
 SP   3 1.00       0.000000000000
      0.7868272350D+01 -0.1193324198D+00  0.6899906659D-01
      0.1881288540D+01 -0.1608541517D+00  0.3164239610D+00
      0.5442492580D+00  0.1143456438D+01  0.7443082909D+00
 SP   1 1.00       0.000000000000
      0.1687144782D+00  0.1000000000D+01  0.1000000000D+01
 ****
      2 0
 S   6 1.00       0.000000000000
      0.4173511460D+04  0.1834772160D-02
      0.6274579110D+03  0.1399462700D-01
      0.1429020930D+03  0.6858655181D-01
      0.4023432930D+02  0.2322408730D+00
      0.1282021290D+02  0.4690699481D+00
      0.4390437010D+01  0.3604551991D+00
 SP   3 1.00       0.000000000000
      0.1162636186D+02 -0.1149611817D+00  0.6757974388D-01
      0.2716279807D+01 -0.1691174786D+00  0.3239072959D+00
      0.7722183966D+00  0.1145851947D+01  0.7408951398D+00
 SP   1 1.00       0.000000000000
      0.2120314975D+00  0.1000000000D+01  0.1000000000D+01
 ****
      3 0
 S   3 1.00       0.000000000000
      0.1873113696D+02  0.3349460434D-01
      0.2825394365D+01  0.2347269535D+00
      0.6401216923D+00  0.8137573261D+00
 S   1 1.00       0.000000000000
      0.1612777588D+00  0.1000000000D+01
 ****
      4 0
 S   3 1.00       0.000000000000
      0.1873113696D+02  0.3349460434D-01
      0.2825394365D+01  0.2347269535D+00
      0.6401216923D+00  0.8137573261D+00
 S   1 1.00       0.000000000000
      0.1612777588D+00  0.1000000000D+01
 ****
      5 0
 S   3 1.00       0.000000000000
      0.1873113696D+02  0.3349460434D-01
      0.2825394365D+01  0.2347269535D+00
      0.6401216923D+00  0.8137573261D+00
 S   1 1.00       0.000000000000
      0.1612777588D+00  0.1000000000D+01
 ****
      6 0
 S   3 1.00       0.000000000000
      0.1873113696D+02  0.3349460434D-01
      0.2825394365D+01  0.2347269535D+00
      0.6401216923D+00  0.8137573261D+00
 S   1 1.00       0.000000000000
      0.1612777588D+00  0.1000000000D+01
 ****
      7 0
 S   3 1.00       0.000000000000
      0.1873113696D+02  0.3349460434D-01
      0.2825394365D+01  0.2347269535D+00
      0.6401216923D+00  0.8137573261D+00
 S   1 1.00       0.000000000000
      0.1612777588D+00  0.1000000000D+01
 ****

 There are    20 symmetry adapted cartesian basis functions of A'  symmetry.
 There are     8 symmetry adapted cartesian basis functions of A"  symmetry.
 There are    20 symmetry adapted basis functions of A'  symmetry.
 There are     8 symmetry adapted basis functions of A"  symmetry.
    28 basis functions,    64 primitive gaussians,    28 cartesian basis functions
     9 alpha electrons        9 beta electrons
       nuclear repulsion energy        42.0763769281 Hartrees.
 NAtoms=    7 NActive=    7 NUniq=    5 SFac= 1.96D+00 NAtFMM=   60 NAOKFM=F Big=F
 Integral buffers will be    131072 words long.
 Raffenetti 1 integral format.
 Two-electron integral symmetry is turned on.
 One-electron integrals computed using PRISM.
 NBasis=    28 RedAO= T EigKep=  1.71D-02  NBF=    20     8
 NBsUse=    28 1.00D-06 EigRej= -1.00D+00 NBFU=    20     8
 ExpMin= 1.61D-01 ExpMax= 4.17D+03 ExpMxC= 6.27D+02 IAcc=1 IRadAn=         1 AccDes= 0.00D+00
 Harris functional with IExCor=  205 and IRadAn=       1 diagonalized for initial guess.
 HarFok:  IExCor=  205 AccDes= 0.00D+00 IRadAn=         1 IDoV= 1 UseB2=F ITyADJ=14
 ICtDFT=  3500011 ScaDFX=  1.000000  1.000000  1.000000  1.000000
 FoFCou: FMM=F IPFlag=           0 FMFlag=      100000 FMFlg1=           0
         NFxFlg=           0 DoJE=T BraDBF=F KetDBF=T FulRan=T
         wScrn=  0.000000 ICntrl=     500 IOpCl=  0 I1Cent=   200000004 NGrid=           0
         NMat0=    1 NMatS0=      1 NMatT0=    0 NMatD0=    1 NMtDS0=    0 NMtDT0=    0
 Petite list used in FoFCou.
 Initial guess orbital symmetries:
       Occupied  (A') (A') (A') (A') (A") (A') (A') (A") (A')
       Virtual   (A') (A') (A") (A') (A') (A") (A') (A") (A') (A')
                 (A') (A") (A') (A") (A') (A') (A") (A') (A')
 The electronic state of the initial guess is 1-A'.
 Keep R1 ints in memory in symmetry-blocked form, NReq=919361.
 Requested convergence on RMS density matrix=1.00D-08 within 128 cycles.
 Requested convergence on MAX density matrix=1.00D-06.
 Requested convergence on             energy=1.00D-06.
 No special actions if energy rises.
 SCF Done:  E(RHF) =  -95.1666311655     A.U. after   11 cycles
            NFock= 11  Conv=0.35D-08     -V/T= 1.9992

 **********************************************************************

            Population analysis using the SCF density.

 **********************************************************************

 Orbital symmetries:
       Occupied  (A') (A') (A') (A') (A") (A') (A') (A") (A')
       Virtual   (A') (A') (A") (A') (A") (A') (A") (A') (A') (A')
                 (A") (A') (A') (A') (A") (A") (A') (A') (A')
 The electronic state is 1-A'.
 Alpha  occ. eigenvalues --  -15.53524 -11.24378  -1.17430  -0.89774  -0.66724
 Alpha  occ. eigenvalues --   -0.59698  -0.55276  -0.52213  -0.37609
 Alpha virt. eigenvalues --    0.22136   0.28601   0.30383   0.32320   0.33197
 Alpha virt. eigenvalues --    0.40497   0.78830   0.79881   0.80513   1.01441
 Alpha virt. eigenvalues --    1.02690   1.06097   1.17986   1.24010   1.24417
 Alpha virt. eigenvalues --    1.27151   1.27789   1.33864   1.79642
     Molecular Orbital Coefficients:
                           1         2         3         4         5
                           O         O         O         O         O
     Eigenvalues --   -15.53524 -11.24378  -1.17430  -0.89774  -0.66724
   1 1   C  1S          0.00002   0.99621  -0.09763  -0.16979   0.00000
   2        2S         -0.00050   0.02536   0.18978   0.32764   0.00000
   3        2PX        -0.00005  -0.00011  -0.00835   0.00683   0.00000
   4        2PY        -0.00010  -0.00025  -0.09158   0.08104   0.00000
   5        2PZ         0.00000   0.00000   0.00000   0.00000   0.22999
   6        3S          0.00467  -0.01674   0.10070   0.38418   0.00000
   7        3PX        -0.00027   0.00003  -0.00429  -0.01465   0.00000
   8        3PY        -0.00220   0.00033   0.01222   0.01227   0.00000
   9        3PZ         0.00000   0.00000   0.00000   0.00000   0.12237
  10 2   N  1S          0.99606  -0.00010  -0.18352   0.08022   0.00000
  11        2S          0.02365  -0.00012   0.37400  -0.16193   0.00000
  12        2PX        -0.00193  -0.00005  -0.07721   0.07513   0.00000
  13        2PY         0.00079  -0.00012   0.05162   0.14637   0.00000
  14        2PZ         0.00000   0.00000   0.00000   0.00000   0.40237
  15        3S         -0.01290   0.00224   0.42454  -0.25749   0.00000
  16        3PX         0.00199   0.00030  -0.04666   0.03997   0.00000
  17        3PY        -0.00199   0.00145   0.03472   0.03430   0.00000
  18        3PZ         0.00000   0.00000   0.00000   0.00000   0.20446
  19 3   H  1S         -0.00029  -0.00003   0.04538   0.13194   0.00000
  20        2S         -0.00021   0.00325   0.00125   0.02922   0.00000
  21 4   H  1S         -0.00020   0.00001   0.04239   0.13710   0.10629
  22        2S         -0.00022   0.00319   0.00449   0.04068   0.05315
  23 5   H  1S         -0.00020   0.00001   0.04239   0.13710  -0.10629
  24        2S         -0.00022   0.00319   0.00449   0.04068  -0.05315
  25 6   H  1S          0.00013   0.00000   0.11897  -0.10350  -0.21197
  26        2S          0.00224   0.00051  -0.00098  -0.02832  -0.11050
  27 7   H  1S          0.00013   0.00000   0.11897  -0.10350   0.21197
  28        2S          0.00224   0.00051  -0.00098  -0.02832   0.11050
                           6         7         8         9        10
                           O         O         O         O         V
     Eigenvalues --    -0.59698  -0.55276  -0.52213  -0.37609   0.22136
   1 1   C  1S          0.00316  -0.00187   0.00000   0.00793  -0.05895
   2        2S          0.00098   0.01062   0.00000  -0.02436   0.03169
   3        2PX         0.36438  -0.19707   0.00000  -0.16353  -0.03117
   4        2PY        -0.15836  -0.34826   0.00000   0.07143   0.14242
   5        2PZ         0.00000   0.00000   0.38541   0.00000   0.00000
   6        3S         -0.01408  -0.03158   0.00000   0.04739   1.10289
   7        3PX         0.15718  -0.11698   0.00000  -0.07483   0.01528
   8        3PY        -0.05236  -0.13680   0.00000   0.00509   0.54592
   9        3PZ         0.00000   0.00000   0.20474   0.00000   0.00000
  10 2   N  1S         -0.03056  -0.00493   0.00000  -0.05161  -0.09185
  11        2S          0.07264   0.00361   0.00000   0.13126   0.09502
  12        2PX         0.23493   0.03949   0.00000   0.50130  -0.12628
  13        2PY         0.13496   0.38856   0.00000  -0.17768  -0.05507
  14        2PZ         0.00000   0.00000  -0.24597   0.00000   0.00000
  15        3S          0.10205   0.04873   0.00000   0.17038   1.44740
  16        3PX         0.15212   0.02207   0.00000   0.46911  -0.40992
  17        3PY         0.06875   0.24539   0.00000  -0.18669  -0.18707
  18        3PZ         0.00000   0.00000  -0.15774   0.00000   0.00000
  19 3   H  1S         -0.25696   0.04808   0.00000   0.16145  -0.00021
  20        2S         -0.20863   0.02865   0.00000   0.19243  -0.65057
  21 4   H  1S          0.07181  -0.13984   0.22358  -0.06753  -0.00533
  22        2S          0.05423  -0.10835   0.18674  -0.07586  -0.56429
  23 5   H  1S          0.07181  -0.13984  -0.22358  -0.06753  -0.00533
  24        2S          0.05423  -0.10835  -0.18674  -0.07586  -0.56429
  25 6   H  1S         -0.06576  -0.10723   0.15242  -0.05416  -0.03020
  26        2S         -0.03852  -0.07993   0.11068  -0.03615  -0.95027
  27 7   H  1S         -0.06576  -0.10723  -0.15242  -0.05416  -0.03020
  28        2S         -0.03852  -0.07993  -0.11068  -0.03615  -0.95027
                          11        12        13        14        15
                           V         V         V         V         V
     Eigenvalues --     0.28601   0.30383   0.32320   0.33197   0.40497
   1 1   C  1S         -0.13910   0.00000   0.00481   0.00000   0.05919
   2        2S          0.09576   0.00000   0.01482   0.00000  -0.03756
   3        2PX         0.01207   0.00000   0.34768   0.00000  -0.00298
   4        2PY         0.04869   0.00000   0.00658   0.00000   0.21452
   5        2PZ         0.00000   0.24585   0.00000   0.21451   0.00000
   6        3S          2.55553   0.00000  -0.13520   0.00000  -1.12962
   7        3PX         0.01919   0.00000   1.55674   0.00000  -0.15897
   8        3PY         0.02775   0.00000   0.12689   0.00000   1.82330
   9        3PZ         0.00000   0.88620   0.00000   1.33419   0.00000
  10 2   N  1S          0.07302   0.00000  -0.00504   0.00000  -0.04429
  11        2S         -0.05220   0.00000  -0.00996   0.00000   0.03708
  12        2PX         0.08610   0.00000  -0.03783   0.00000   0.09596
  13        2PY        -0.02340   0.00000   0.03715   0.00000   0.33710
  14        2PZ         0.00000   0.23546   0.00000  -0.23080   0.00000
  15        3S         -1.31090   0.00000   0.16786   0.00000   0.89000
  16        3PX         0.25144   0.00000  -0.29550   0.00000   0.31758
  17        3PY        -0.23826   0.00000   0.08307   0.00000   1.41444
  18        3PZ         0.00000   0.72220   0.00000  -0.97380   0.00000
  19 3   H  1S          0.00351   0.00000   0.04385   0.00000  -0.07389
  20        2S         -1.01333   0.00000   1.94144   0.00000  -0.33643
  21 4   H  1S         -0.00081  -0.03457  -0.02348  -0.04904  -0.07341
  22        2S         -1.09338  -1.07863  -0.96474  -1.30176  -0.13603
  23 5   H  1S         -0.00081   0.03457  -0.02348   0.04904  -0.07341
  24        2S         -1.09338   1.07863  -0.96474   1.30176  -0.13603
  25 6   H  1S          0.03025   0.04009   0.00227  -0.00414   0.02330
  26        2S          0.63236   1.14283  -0.03083  -1.02329   0.65434
  27 7   H  1S          0.03025  -0.04009   0.00227   0.00414   0.02330
  28        2S          0.63236  -1.14283  -0.03083   1.02329   0.65434
                          16        17        18        19        20
                           V         V         V         V         V
     Eigenvalues --     0.78830   0.79881   0.80513   1.01441   1.02690
   1 1   C  1S          0.00000  -0.02878   0.01788   0.01193   0.00000
   2        2S          0.00000   0.28401  -0.13896  -0.14516   0.00000
   3        2PX         0.00000  -0.40635  -0.64905   0.22051   0.00000
   4        2PY         0.00000  -0.91538   0.50465   0.07167   0.00000
   5        2PZ        -0.75324   0.00000   0.00000   0.00000   0.54544
   6        3S          0.00000   0.03749  -0.04876   0.75330   0.00000
   7        3PX         0.00000   0.97814   1.51033  -0.67668   0.00000
   8        3PY         0.00000   1.06937  -0.56710  -0.26320   0.00000
   9        3PZ         1.65699   0.00000   0.00000   0.00000  -1.41029
  10 2   N  1S          0.00000   0.03336   0.00130   0.00562   0.00000
  11        2S          0.00000  -0.19471   0.00374  -0.01346   0.00000
  12        2PX         0.00000  -0.03719  -0.16710  -0.84582   0.00000
  13        2PY         0.00000   0.03022   0.10408   0.52332   0.00000
  14        2PZ         0.02624   0.00000   0.00000   0.00000  -0.44811
  15        3S          0.00000   0.49534  -0.31899  -0.33588   0.00000
  16        3PX         0.00000  -0.24451  -0.07371   0.96494   0.00000
  17        3PY         0.00000  -0.32528   0.15367  -0.84135   0.00000
  18        3PZ        -0.03137   0.00000   0.00000   0.00000   1.57626
  19 3   H  1S          0.00000   0.12294   0.51780  -0.04241   0.00000
  20        2S          0.00000   0.20071   0.41784  -0.31583   0.00000
  21 4   H  1S         -0.46126  -0.22560  -0.17437  -0.01521  -0.23936
  22        2S         -0.29852  -0.21434  -0.13651   0.07425   0.78742
  23 5   H  1S          0.46126  -0.22560  -0.17437  -0.01521   0.23936
  24        2S          0.29852  -0.21434  -0.13651   0.07425  -0.78742
  25 6   H  1S          0.20534  -0.11250   0.14563  -0.15486   0.64457
  26        2S          0.11790   0.08815   0.00826   0.09194   0.05872
  27 7   H  1S         -0.20534  -0.11250   0.14563  -0.15486  -0.64457
  28        2S         -0.11790   0.08815   0.00826   0.09194  -0.05872
                          21        22        23        24        25
                           V         V         V         V         V
     Eigenvalues --     1.06097   1.17986   1.24010   1.24417   1.27151
   1 1   C  1S         -0.04587  -0.06555   0.02965   0.00000   0.00000
   2        2S          0.08332   0.35931  -0.96483   0.00000   0.00000
   3        2PX         0.33584  -0.47834  -0.60286   0.00000   0.00000
   4        2PY        -0.23520   0.30759  -0.30444   0.00000   0.00000
   5        2PZ         0.00000   0.00000   0.00000  -0.49959   0.55434
   6        3S         -0.46671  -0.68162   1.67632   0.00000   0.00000
   7        3PX        -0.77489   0.64082   0.52527   0.00000   0.00000
   8        3PY         0.65455   0.00963   0.46651   0.00000   0.00000
   9        3PZ         0.00000   0.00000   0.00000   0.46351  -0.27083
  10 2   N  1S          0.05350  -0.02238   0.02000   0.00000   0.00000
  11        2S         -0.25313  -0.03686  -0.11480   0.00000   0.00000
  12        2PX        -0.39913  -0.22969  -0.15036   0.00000   0.00000
  13        2PY        -0.63019  -0.39988  -0.11052   0.00000   0.00000
  14        2PZ         0.00000   0.00000   0.00000  -0.94890  -0.35537
  15        3S          0.11851   0.20020  -0.13488   0.00000   0.00000
  16        3PX         0.96398   0.04807   0.40525   0.00000   0.00000
  17        3PY         1.20831   0.45605   0.30721   0.00000   0.00000
  18        3PZ         0.00000   0.00000   0.00000   1.39373  -0.14590
  19 3   H  1S          0.10815  -0.97041  -0.39658   0.00000   0.00000
  20        2S         -0.60660   1.14254   0.34020   0.00000   0.00000
  21 4   H  1S         -0.23628  -0.24595   0.70576   0.39536  -0.71674
  22        2S          0.22586  -0.07246  -1.17688  -0.66052   0.82174
  23 5   H  1S         -0.23628  -0.24595   0.70576  -0.39536   0.71674
  24        2S          0.22586  -0.07246  -1.17688   0.66052  -0.82174
  25 6   H  1S          0.49277  -0.40046   0.22606  -0.33630  -0.64662
  26        2S          0.16366   0.27412   0.08301   1.05913   0.51496
  27 7   H  1S          0.49277  -0.40046   0.22606   0.33630   0.64662
  28        2S          0.16366   0.27412   0.08301  -1.05913  -0.51496
                          26        27        28
                           V         V         V
     Eigenvalues --     1.27789   1.33864   1.79642
   1 1   C  1S          0.00605  -0.07040   0.09619
   2        2S         -1.13788  -1.69928   0.90621
   3        2PX         0.19314   0.13789   0.05730
   4        2PY        -0.17610   0.11911   0.17529
   5        2PZ         0.00000   0.00000   0.00000
   6        3S          2.19740   4.07221  -4.24895
   7        3PX        -0.00821  -0.07286   0.08383
   8        3PY         0.44909  -0.23407   1.20732
   9        3PZ         0.00000   0.00000   0.00000
  10 2   N  1S         -0.05639   0.03686  -0.03920
  11        2S          0.58808  -0.93590  -1.74260
  12        2PX        -0.20624   0.25232  -0.02482
  13        2PY        -0.48075   0.15348  -0.24722
  14        2PZ         0.00000   0.00000   0.00000
  15        3S         -0.95594   0.86321   4.48436
  16        3PX         0.02940  -0.59567  -0.42195
  17        3PY         0.46641  -0.90919   1.52010
  18        3PZ         0.00000   0.00000   0.00000
  19 3   H  1S          0.51586  -0.24148   0.50537
  20        2S         -1.08197  -0.82211   0.27093
  21 4   H  1S         -0.02145  -0.42868   0.38308
  22        2S         -0.56111  -0.54420   0.35667
  23 5   H  1S         -0.02145  -0.42868   0.38308
  24        2S         -0.56111  -0.54420   0.35667
  25 6   H  1S         -0.59207   0.04463  -0.52653
  26        2S          0.69007  -0.78967  -0.20295
  27 7   H  1S         -0.59207   0.04463  -0.52653
  28        2S          0.69007  -0.78967  -0.20295
     Density Matrix:
                           1         2         3         4         5
   1 1   C  1S          2.06173
   2        2S         -0.09822   0.28942
   3        2PX        -0.00047   0.00580   0.39694
   4        2PY        -0.00870   0.00715   0.00113   0.33284
   5        2PZ         0.00000   0.00000   0.00000   0.00000   0.40288
   6        3S         -0.18270   0.28610  -0.00974   0.07706   0.00000
   7        3PX         0.00612  -0.00976   0.18500   0.01941   0.00000
   8        3PY        -0.00563   0.00944   0.01406   0.11234   0.00000
   9        3PZ         0.00000   0.00000   0.00000   0.00000   0.21411
  10 2   N  1S          0.00743  -0.01574   0.00061   0.05214   0.00000
  11        2S         -0.01576   0.02965   0.00013  -0.10152   0.00000
  12        2PX        -0.00126  -0.00320  -0.00600  -0.00397   0.00000
  13        2PY        -0.06345   0.13267   0.00446  -0.32450   0.00000
  14        2PZ         0.00000   0.00000   0.00000   0.00000  -0.00451
  15        3S          0.01216  -0.01453  -0.01117  -0.16141   0.00000
  16        3PX         0.00446  -0.01360  -0.04995   0.01849   0.00000
  17        3PY        -0.01898   0.05017   0.01434  -0.22016   0.00000
  18        3PZ         0.00000   0.00000   0.00000   0.00000  -0.02754
  19 3   H  1S         -0.05296   0.09633  -0.25797   0.08403   0.00000
  20        2S         -0.00206   0.01061  -0.22590   0.07812   0.00000
  21 4   H  1S         -0.05491   0.10639   0.13070   0.07947   0.22123
  22        2S         -0.00880   0.03003   0.10752   0.05323   0.16839
  23 5   H  1S         -0.05491   0.10639   0.13070   0.07947  -0.22123
  24        2S         -0.00880   0.03003   0.10752   0.05323  -0.16839
  25 6   H  1S          0.01105  -0.02243   0.00865   0.04922   0.01998
  26        2S          0.01031  -0.01892   0.01488   0.05829   0.03449
  27 7   H  1S          0.01105  -0.02243   0.00865   0.04922  -0.01998
  28        2S          0.01031  -0.01892   0.01488   0.05829  -0.03449
                           6         7         8         9        10
   6        3S          0.32295
   7        3PX        -0.01626   0.08845
   8        3PY         0.02245   0.01432   0.04357
   9        3PZ         0.00000   0.00000   0.00000   0.11378
  10 2   N  1S          0.03026  -0.00204  -0.00287   0.00000   2.07173
  11        2S         -0.03870   0.00387  -0.00219   0.00000  -0.13416
  12        2PX         0.08057  -0.01195  -0.03034   0.00000  -0.02995
  13        2PY         0.07769  -0.02662  -0.11740   0.00000   0.01237
  14        2PZ         0.00000   0.00000   0.00000  -0.00224   0.00000
  15        3S         -0.10234  -0.00091  -0.01816   0.00000  -0.24714
  16        3PX         0.06011  -0.02832  -0.01736   0.00000  -0.03043
  17        3PY        -0.00185  -0.00916  -0.07454   0.00000   0.00145
  18        3PZ         0.00000   0.00000   0.00000  -0.01455   0.00000
  19 3   H  1S          0.13002  -0.12045   0.01974   0.00000   0.00250
  20        2S          0.04490  -0.10196   0.01672   0.00000  -0.00358
  21 4   H  1S          0.11429   0.06102   0.03445   0.11756   0.00999
  22        2S          0.03018   0.05252   0.02430   0.08947   0.01003
  23 5   H  1S          0.11429   0.06102   0.03445  -0.11756   0.00999
  24        2S          0.03018   0.05252   0.02430  -0.08947   0.01003
  25 6   H  1S         -0.05207   0.01453   0.03604   0.01053  -0.04935
  26        2S         -0.01925   0.01284   0.02481   0.01828   0.00714
  27 7   H  1S         -0.05207   0.01453   0.03604  -0.01053  -0.04935
  28        2S         -0.01925   0.01284   0.02481  -0.01828   0.00714
                          11        12        13        14        15
  11        2S          0.37835
  12        2PX         0.08383   0.63932
  13        2PY        -0.03299  -0.07002   0.44970
  14        2PZ         0.00000   0.00000   0.00000   0.44481
  15        3S          0.46024   0.11841  -0.02670   0.00000   0.57704
  16        3PX         0.09765   0.55675  -0.10161   0.00000   0.13279
  17        3PY        -0.02249  -0.13569   0.28922   0.00000  -0.01380
  18        3PZ         0.00000   0.00000   0.00000   0.24213   0.00000
  19 3   H  1S         -0.00340   0.05775  -0.04606   0.00000  -0.02215
  20        2S          0.01187   0.10137  -0.09375   0.00000   0.01182
  21 4   H  1S         -0.02100  -0.03095  -0.02078  -0.02445  -0.05659
  22        2S         -0.02264  -0.05372  -0.03023  -0.04909  -0.04246
  23 5   H  1S         -0.02100  -0.03095  -0.02078   0.02445  -0.05659
  24        2S         -0.02264  -0.05372  -0.03023   0.04909  -0.04246
  25 6   H  1S          0.09797  -0.12759  -0.09985  -0.24556   0.11198
  26        2S         -0.00711  -0.06477  -0.06805  -0.14337  -0.01427
  27 7   H  1S          0.09797  -0.12759  -0.09985   0.24556   0.11198
  28        2S         -0.00711  -0.06477  -0.06805   0.14337  -0.01427
                          16        17        18        19        20
  16        3PX         0.49494
  17        3PY        -0.14392   0.20437
  18        3PZ         0.00000   0.00000   0.13337
  19 3   H  1S          0.08173  -0.05981   0.00000   0.22775
  20        2S          0.12056  -0.08438   0.00000   0.17994   0.16449
  21 4   H  1S         -0.04067  -0.02119  -0.02707  -0.03213  -0.05585
  22        2S         -0.05663  -0.01428  -0.03718  -0.05164  -0.05562
  23 5   H  1S         -0.04067  -0.02119   0.02707  -0.03213  -0.05585
  24        2S         -0.05663  -0.01428   0.03718  -0.05164  -0.05562
  25 6   H  1S         -0.09493  -0.04029  -0.13476  -0.01051  -0.00530
  26        2S         -0.05133  -0.03304  -0.08010  -0.00713  -0.00408
  27 7   H  1S         -0.09493  -0.04029   0.13476  -0.01051  -0.00530
  28        2S         -0.05133  -0.03304   0.08010  -0.00713  -0.00408
                          21        22        23        24        25
  21 4   H  1S          0.22230
  22        2S          0.15467   0.11964
  23 5   H  1S         -0.02284  -0.03493   0.22230
  24        2S         -0.03493  -0.03115   0.15467   0.11964
  25 6   H  1S          0.03266   0.05136  -0.01353  -0.01742   0.22357
  26        2S          0.03985   0.04591  -0.01215  -0.01327   0.11234
  27 7   H  1S         -0.01353  -0.01742   0.03266   0.05136  -0.04908
  28        2S         -0.01215  -0.01327   0.03985   0.04591  -0.04883
                          26        27        28
  26        2S          0.06889
  27 7   H  1S         -0.04883   0.22357
  28        2S         -0.02894   0.11234   0.06889
    Full Mulliken population analysis:
                           1         2         3         4         5
   1 1   C  1S          2.06173
   2        2S         -0.02151   0.28942
   3        2PX         0.00000   0.00000   0.39694
   4        2PY         0.00000   0.00000   0.00000   0.33284
   5        2PZ         0.00000   0.00000   0.00000   0.00000   0.40288
   6        3S         -0.03366   0.23239   0.00000   0.00000   0.00000
   7        3PX         0.00000   0.00000   0.10541   0.00000   0.00000
   8        3PY         0.00000   0.00000   0.00000   0.06401   0.00000
   9        3PZ         0.00000   0.00000   0.00000   0.00000   0.12199
  10 2   N  1S          0.00000  -0.00012   0.00000  -0.00099   0.00000
  11        2S         -0.00005   0.00302   0.00000   0.01736   0.00000
  12        2PX         0.00000   0.00000  -0.00031   0.00000   0.00000
  13        2PY        -0.00058   0.01958   0.00000   0.07143   0.00000
  14        2PZ         0.00000   0.00000   0.00000   0.00000  -0.00023
  15        3S          0.00055  -0.00404   0.00000   0.04063   0.00000
  16        3PX         0.00000   0.00000  -0.00983   0.00000   0.00000
  17        3PY        -0.00210   0.02516   0.00000   0.06150   0.00000
  18        3PZ         0.00000   0.00000   0.00000   0.00000  -0.00542
  19 3   H  1S         -0.00173   0.02637   0.09009   0.01010   0.00000
  20        2S         -0.00019   0.00505   0.05676   0.00676   0.00000
  21 4   H  1S         -0.00180   0.02912   0.02282   0.00956   0.06691
  22        2S         -0.00081   0.01430   0.01351   0.00461   0.03664
  23 5   H  1S         -0.00180   0.02912   0.02282   0.00956   0.06691
  24        2S         -0.00081   0.01430   0.01351   0.00461   0.03664
  25 6   H  1S          0.00000  -0.00027  -0.00005  -0.00108  -0.00020
  26        2S          0.00018  -0.00247  -0.00045  -0.00668  -0.00182
  27 7   H  1S          0.00000  -0.00027  -0.00005  -0.00108  -0.00020
  28        2S          0.00018  -0.00247  -0.00045  -0.00668  -0.00182
                           6         7         8         9        10
   6        3S          0.32295
   7        3PX         0.00000   0.08845
   8        3PY         0.00000   0.00000   0.04357
   9        3PZ         0.00000   0.00000   0.00000   0.11378
  10 2   N  1S          0.00125   0.00000   0.00026   0.00000   2.07173
  11        2S         -0.00948   0.00000   0.00099   0.00000  -0.02981
  12        2PX         0.00000  -0.00175   0.00000   0.00000   0.00000
  13        2PY         0.01295   0.00000   0.02006   0.00000   0.00000
  14        2PZ         0.00000   0.00000   0.00000  -0.00033   0.00000
  15        3S         -0.04908   0.00000   0.01107   0.00000  -0.04248
  16        3PX         0.00000  -0.01350   0.00000   0.00000   0.00000
  17        3PY        -0.00101   0.00000   0.01598   0.00000   0.00000
  18        3PZ         0.00000   0.00000   0.00000  -0.00693   0.00000
  19 3   H  1S          0.04902   0.05865   0.00331   0.00000   0.00000
  20        2S          0.03163   0.05617   0.00317   0.00000  -0.00004
  21 4   H  1S          0.04309   0.01486   0.00578   0.04958   0.00000
  22        2S          0.02126   0.01447   0.00461   0.04269   0.00012
  23 5   H  1S          0.04309   0.01486   0.00578   0.04958   0.00000
  24        2S          0.02126   0.01447   0.00461   0.04269   0.00012
  25 6   H  1S         -0.00467  -0.00078  -0.00725  -0.00097  -0.00174
  26        2S         -0.00567  -0.00137  -0.00998  -0.00338   0.00057
  27 7   H  1S         -0.00467  -0.00078  -0.00725  -0.00097  -0.00174
  28        2S         -0.00567  -0.00137  -0.00998  -0.00338   0.00057
                          11        12        13        14        15
  11        2S          0.37835
  12        2PX         0.00000   0.63932
  13        2PY         0.00000   0.00000   0.44970
  14        2PZ         0.00000   0.00000   0.00000   0.44481
  15        3S          0.35692   0.00000   0.00000   0.00000   0.57704
  16        3PX         0.00000   0.28912   0.00000   0.00000   0.00000
  17        3PY         0.00000   0.00000   0.15019   0.00000   0.00000
  18        3PZ         0.00000   0.00000   0.00000   0.12574   0.00000
  19 3   H  1S         -0.00001  -0.00023  -0.00032   0.00000  -0.00128
  20        2S          0.00103  -0.00395  -0.00647   0.00000   0.00277
  21 4   H  1S         -0.00008  -0.00006  -0.00014  -0.00008  -0.00327
  22        2S         -0.00197  -0.00105  -0.00209  -0.00166  -0.00995
  23 5   H  1S         -0.00008  -0.00006  -0.00014  -0.00008  -0.00327
  24        2S         -0.00197  -0.00105  -0.00209  -0.00166  -0.00995
  25 6   H  1S          0.02583   0.01987   0.01071   0.06623   0.04584
  26        2S         -0.00303   0.00597   0.00432   0.02287  -0.01008
  27 7   H  1S          0.02583   0.01987   0.01071   0.06623   0.04584
  28        2S         -0.00303   0.00597   0.00432   0.02287  -0.01008
                          16        17        18        19        20
  16        3PX         0.49494
  17        3PY         0.00000   0.20437
  18        3PZ         0.00000   0.00000   0.13337
  19 3   H  1S         -0.00647  -0.00838   0.00000   0.22775
  20        2S         -0.02190  -0.02713   0.00000   0.11845   0.16449
  21 4   H  1S         -0.00161  -0.00297  -0.00186  -0.00058  -0.00826
  22        2S         -0.00514  -0.00459  -0.00585  -0.00764  -0.02222
  23 5   H  1S         -0.00161  -0.00297  -0.00186  -0.00058  -0.00826
  24        2S         -0.00514  -0.00459  -0.00585  -0.00764  -0.02222
  25 6   H  1S          0.02487   0.00727   0.06116  -0.00001  -0.00025
  26        2S          0.01302   0.00577   0.03518  -0.00034  -0.00081
  27 7   H  1S          0.02487   0.00727   0.06116  -0.00001  -0.00025
  28        2S          0.01302   0.00577   0.03518  -0.00034  -0.00081
                          21        22        23        24        25
  21 4   H  1S          0.22230
  22        2S          0.10182   0.11964
  23 5   H  1S         -0.00041  -0.00517   0.22230
  24        2S         -0.00517  -0.01244   0.10182   0.11964
  25 6   H  1S          0.00000   0.00061  -0.00001  -0.00082   0.22357
  26        2S          0.00048   0.00388  -0.00057  -0.00262   0.07395
  27 7   H  1S         -0.00001  -0.00082   0.00000   0.00061  -0.00150
  28        2S         -0.00057  -0.00262   0.00048   0.00388  -0.00892
                          26        27        28
  26        2S          0.06889
  27 7   H  1S         -0.00892   0.22357
  28        2S         -0.01316   0.07395   0.06889
     Gross orbital populations:
                           1
   1 1   C  1S          1.99760
   2        2S          0.65667
   3        2PX         0.71071
   4        2PY         0.61643
   5        2PZ         0.72228
   6        3S          0.66499
   7        3PX         0.34778
   8        3PY         0.14874
   9        3PZ         0.40433
  10 2   N  1S          1.99771
  11        2S          0.75981
  12        2PX         0.97165
  13        2PY         0.74212
  14        2PZ         0.74471
  15        3S          0.93718
  16        3PX         0.79464
  17        3PY         0.42953
  18        3PZ         0.42404
  19 3   H  1S          0.54818
  20        2S          0.32353
  21 4   H  1S          0.53943
  22        2S          0.29413
  23 5   H  1S          0.53943
  24        2S          0.29413
  25 6   H  1S          0.53139
  26        2S          0.16372
  27 7   H  1S          0.53139
  28        2S          0.16372
          Condensed to atoms (all electrons):
               1          2          3          4          5          6
     1  C    4.989794   0.196043   0.395168   0.391181   0.391181  -0.046913
     2  N    0.196043   7.092989  -0.072387  -0.042249  -0.042249   0.334630
     3  H    0.395168  -0.072387   0.629139  -0.038697  -0.038697  -0.001405
     4  H    0.391181  -0.042249  -0.038697   0.545581  -0.023188   0.004972
     5  H    0.391181  -0.042249  -0.038697  -0.023188   0.545581  -0.004038
     6  H   -0.046913   0.334630  -0.001405   0.004972  -0.004038   0.440362
     7  H   -0.046913   0.334630  -0.001405  -0.004038   0.004972  -0.032499
               7
     1  C   -0.046913
     2  N    0.334630
     3  H   -0.001405
     4  H   -0.004038
     5  H    0.004972
     6  H   -0.032499
     7  H    0.440362
 Mulliken charges:
               1
     1  C   -0.269541
     2  N   -0.801405
     3  H    0.128284
     4  H    0.166439
     5  H    0.166439
     6  H    0.304892
     7  H    0.304892
 Sum of Mulliken charges =   0.00000
 Mulliken charges with hydrogens summed into heavy atoms:
               1
     1  C    0.191622
     2  N   -0.191622
 Electronic spatial extent (au):  <R**2>=             94.8713
 Charge=              0.0000 electrons
 Dipole moment (field-independent basis, Debye):
    X=             -1.7584    Y=              0.6795    Z=              0.0000  Tot=              1.8851
 Quadrupole moment (field-independent basis, Debye-Ang):
   XX=            -15.0510   YY=            -14.6447   ZZ=            -12.4104
   XY=              2.5722   XZ=              0.0000   YZ=              0.0000
 Traceless Quadrupole moment (field-independent basis, Debye-Ang):
   XX=             -1.0156   YY=             -0.6094   ZZ=              1.6250
   XY=              2.5722   XZ=              0.0000   YZ=              0.0000
 Octapole moment (field-independent basis, Debye-Ang**2):
  XXX=             -1.7728  YYY=             -1.6698  ZZZ=              0.0000  XYY=             -2.5963
  XXY=              0.2648  XXZ=              0.0000  XZZ=             -0.5990  YZZ=             -1.8931
  YYZ=              0.0000  XYZ=              0.0000
 Hexadecapole moment (field-independent basis, Debye-Ang**3):
 XXXX=            -23.5098 YYYY=            -74.8461 ZZZZ=            -22.6175 XXXY=             -0.6234
 XXXZ=              0.0000 YYYX=              2.0910 YYYZ=              0.0000 ZZZX=              0.0000
 ZZZY=              0.0000 XXYY=            -16.7463 XXZZ=             -7.4076 YYZZ=            -14.2426
 XXYZ=              0.0000 YYXZ=              0.0000 ZZXY=              1.2975
 N-N= 4.207637692810D+01 E-N=-3.065981412793D+02  KE= 9.524464984597D+01
 Symmetry A'   KE= 9.066698763666D+01
 Symmetry A"   KE= 4.577662209311D+00
 Orbital energies and kinetic energies (alpha):
                                 1                 2
   1         O               -15.535242         22.119122
   2         O               -11.243783         16.019889
   3         O                -1.174305          1.742767
   4         O                -0.897738          1.424425
   5         O                -0.667243          1.149474
   6         O                -0.596976          1.084284
   7         O                -0.552758          1.343518
   8         O                -0.522130          1.139357
   9         O                -0.376088          1.599488
  10         V                 0.221362          0.834402
  11         V                 0.286010          1.016693
  12         V                 0.303831          0.818385
  13         V                 0.323202          0.792835
  14         V                 0.331971          0.807434
  15         V                 0.404966          1.321215
  16         V                 0.788300          1.692000
  17         V                 0.798807          2.183207
  18         V                 0.805132          1.848814
  19         V                 1.014406          2.915790
  20         V                 1.026901          2.068285
  21         V                 1.060973          2.778735
  22         V                 1.179856          2.905998
  23         V                 1.240097          2.808552
  24         V                 1.244170          3.366947
  25         V                 1.271508          2.810559
  26         V                 1.277887          3.083864
  27         V                 1.338640          2.498827
  28         V                 1.796423          2.907446
 Total kinetic energy from orbitals= 9.524464984597D+01
 1\1\GINC-CPN-K08-40-01\SP\RHF\6-31G\C1H5N1\TJDUIGNA\20-Jan-2017\0\\# H
 F/6-31G gfinput pop(full)\\ch3nh2\\0,1\C,0,0.745914,0.011106,0.\N,0,-0
 .721743,-0.071848,0.\H,0,1.042059,1.060105,0.\H,0,1.129298,-0.483355,0
 .892539\H,0,1.129298,-0.483355,-0.892539\H,0,-1.076988,0.386322,-0.827
 032\H,0,-1.076988,0.386322,0.827032\\Version=EM64L-G09RevD.01\State=1-
 A'\HF=-95.1666312\RMSD=3.512e-09\Dipole=0.2278905,0.7057805,0.\Quadrup
 ole=-0.2385172,-0.9696285,1.2081457,-1.8831745,0.,0.\PG=CS [SG(C1H1N1)
 ,X(H4)]\\@


 ... THIS SEEMS PLAINLY ABSURD; BUT WHOEVER WISHES TO BECOME A
 PHILOSOPHER MUST LEARN NOT TO BE FRIGHTENED BY ABSURDITIES.

                          -- BERTRAND RUSSELL
 Job cpu time:       0 days  0 hours  0 minutes  0.7 seconds.
 File lengths (MBytes):  RWF=      5 Int=      0 D2E=      0 Chk=      1 Scr=      1
 Normal termination of Gaussian 09 at Fri Jan 20 22:04:48 2017.