ch3nh2                                                                  
SP        RHF                                                         6-31G               
Number of atoms                            I                7
Info1-9                                    I   N=           9
          14          14           0           0           0         110
           1           1           2
Charge                                     I                0
Multiplicity                               I                1
Number of electrons                        I               18
Number of alpha electrons                  I                9
Number of beta electrons                   I                9
Number of basis functions                  I               28
Number of independent functions            I               28
Number of point charges in /Mol/           I                0
Number of translation vectors              I                0
Atomic numbers                             I   N=           7
           6           7           1           1           1           1
           1
Nuclear charges                            R   N=           7
  6.00000000E+00  7.00000000E+00  1.00000000E+00  1.00000000E+00  1.00000000E+00
  1.00000000E+00  1.00000000E+00
Current cartesian coordinates              R   N=          21
  1.00257674E-01  1.34622340E+00 -3.23494072E-19  1.00257674E-01 -1.43167301E+00
  3.63187388E-19 -1.84732347E+00  2.01682953E+00 -6.69638557E-19  1.07404854E+00
  2.01683049E+00  1.68665427E+00  1.07404854E+00  2.01683049E+00 -1.68665427E+00
 -8.02061686E-01 -2.05305990E+00 -1.56286398E+00 -8.02061686E-01 -2.05305990E+00
  1.56286398E+00
Force Field                                I                0
Int Atom Types                             I   N=           7
           0           0           0           0           0           0
           0
MM charges                                 R   N=           7
  0.00000000E+00  0.00000000E+00  0.00000000E+00  0.00000000E+00  0.00000000E+00
  0.00000000E+00  0.00000000E+00
Integer atomic weights                     I   N=           7
          12          14           1           1           1           1
           1
Real atomic weights                        R   N=           7
  1.20000000E+01  1.40030740E+01  1.00782504E+00  1.00782504E+00  1.00782504E+00
  1.00782504E+00  1.00782504E+00
Atom fragment info                         I   N=           7
           0           0           0           0           0           0
           0
Atom residue num                           I   N=           7
           0           0           0           0           0           0
           0
Nuclear spins                              I   N=           7
           0           2           1           1           1           1
           1
Nuclear ZEff                               R   N=           7
 -3.60000000E+00 -4.55000000E+00 -1.00000000E+00 -1.00000000E+00 -1.00000000E+00
 -1.00000000E+00 -1.00000000E+00
Nuclear ZNuc                               R   N=           7
  6.00000000E+00  7.00000000E+00  1.00000000E+00  1.00000000E+00  1.00000000E+00
  1.00000000E+00  1.00000000E+00
Nuclear QMom                               R   N=           7
  0.00000000E+00  2.04400000E+00  0.00000000E+00  0.00000000E+00  0.00000000E+00
  0.00000000E+00  0.00000000E+00
Nuclear GFac                               R   N=           7
  0.00000000E+00  4.03761000E-01  2.79284600E+00  2.79284600E+00  2.79284600E+00
  2.79284600E+00  2.79284600E+00
MicOpt                                     I   N=           7
          -1          -1          -1          -1          -1          -1
          -1
Number of contracted shells                I               16
Number of primitive shells                 I               40
Pure/Cartesian d shells                    I                1
Pure/Cartesian f shells                    I                0
Highest angular momentum                   I                1
Largest degree of contraction              I                6
Shell types                                I   N=          16
           0          -1          -1           0          -1          -1
           0           0           0           0           0           0
           0           0           0           0
Number of primitives per shell             I   N=          16
           6           3           1           6           3           1
           3           1           3           1           3           1
           3           1           3           1
Shell to atom map                          I   N=          16
           1           1           1           2           2           2
           3           3           4           4           5           5
           6           6           7           7
Primitive exponents                        R   N=          40
  3.04752488E+03  4.57369518E+02  1.03948685E+02  2.92101553E+01  9.28666296E+00
  3.16392696E+00  7.86827235E+00  1.88128854E+00  5.44249258E-01  1.68714478E-01
  4.17351146E+03  6.27457911E+02  1.42902093E+02  4.02343293E+01  1.28202129E+01
  4.39043701E+00  1.16263619E+01  2.71627981E+00  7.72218397E-01  2.12031498E-01
  1.87311370E+01  2.82539436E+00  6.40121692E-01  1.61277759E-01  1.87311370E+01
  2.82539436E+00  6.40121692E-01  1.61277759E-01  1.87311370E+01  2.82539436E+00
  6.40121692E-01  1.61277759E-01  1.87311370E+01  2.82539436E+00  6.40121692E-01
  1.61277759E-01  1.87311370E+01  2.82539436E+00  6.40121692E-01  1.61277759E-01
Contraction coefficients                   R   N=          40
  1.83473713E-03  1.40373228E-02  6.88426223E-02  2.32184443E-01  4.67941348E-01
  3.62311985E-01 -1.19332420E-01 -1.60854152E-01  1.14345644E+00  1.00000000E+00
  1.83477216E-03  1.39946270E-02  6.85865518E-02  2.32240873E-01  4.69069948E-01
  3.60455199E-01 -1.14961182E-01 -1.69117479E-01  1.14585195E+00  1.00000000E+00
  3.34946043E-02  2.34726953E-01  8.13757326E-01  1.00000000E+00  3.34946043E-02
  2.34726953E-01  8.13757326E-01  1.00000000E+00  3.34946043E-02  2.34726953E-01
  8.13757326E-01  1.00000000E+00  3.34946043E-02  2.34726953E-01  8.13757326E-01
  1.00000000E+00  3.34946043E-02  2.34726953E-01  8.13757326E-01  1.00000000E+00
P(S=P) Contraction coefficients            R   N=          40
  0.00000000E+00  0.00000000E+00  0.00000000E+00  0.00000000E+00  0.00000000E+00
  0.00000000E+00  6.89990666E-02  3.16423961E-01  7.44308291E-01  1.00000000E+00
  0.00000000E+00  0.00000000E+00  0.00000000E+00  0.00000000E+00  0.00000000E+00
  0.00000000E+00  6.75797439E-02  3.23907296E-01  7.40895140E-01  1.00000000E+00
  0.00000000E+00  0.00000000E+00  0.00000000E+00  0.00000000E+00  0.00000000E+00
  0.00000000E+00  0.00000000E+00  0.00000000E+00  0.00000000E+00  0.00000000E+00
  0.00000000E+00  0.00000000E+00  0.00000000E+00  0.00000000E+00  0.00000000E+00
  0.00000000E+00  0.00000000E+00  0.00000000E+00  0.00000000E+00  0.00000000E+00
Coordinates of each shell                  R   N=          48
  1.00257674E-01  1.34622340E+00 -1.61747036E-19  1.00257674E-01  1.34622340E+00
 -1.61747036E-19  1.00257674E-01  1.34622340E+00 -1.61747036E-19  1.00257674E-01
 -1.43167301E+00  1.81593694E-19  1.00257674E-01 -1.43167301E+00  1.81593694E-19
  1.00257674E-01 -1.43167301E+00  1.81593694E-19 -1.84732347E+00  2.01682953E+00
 -3.34819278E-19 -1.84732347E+00  2.01682953E+00 -3.34819278E-19  1.07404854E+00
  2.01683049E+00  1.68665427E+00  1.07404854E+00  2.01683049E+00  1.68665427E+00
  1.07404854E+00  2.01683049E+00 -1.68665427E+00  1.07404854E+00  2.01683049E+00
 -1.68665427E+00 -8.02061686E-01 -2.05305990E+00 -1.56286398E+00 -8.02061686E-01
 -2.05305990E+00 -1.56286398E+00 -8.02061686E-01 -2.05305990E+00  1.56286398E+00
 -8.02061686E-01 -2.05305990E+00  1.56286398E+00
Constraint Structure                       R   N=          21
  1.00257674E-01  1.34622340E+00 -1.61747036E-19  1.00257674E-01 -1.43167301E+00
  1.81593694E-19 -1.84732347E+00  2.01682953E+00 -3.34819278E-19  1.07404854E+00
  2.01683049E+00  1.68665427E+00  1.07404854E+00  2.01683049E+00 -1.68665427E+00
 -8.02061686E-01 -2.05305990E+00 -1.56286398E+00 -8.02061686E-01 -2.05305990E+00
  1.56286398E+00
Num ILSW                                   I              100
ILSW                                       I   N=         100
           0           1           0           0           2           0
           0           0           0           0           0          -1
           0           0           0           0           0           0
           0           0           1           0           0           0
           1           0           0           0           0           0
           0           0      100000           0          -1           0
           0           0           0           0           0           0
           0           0           0           1           0           0
           0           0           1           0           0           0
           0           0           4          41           0           0
           0           0           0           0           0           0
           0           0           0           0           0           0
           0           0           0           0           0           0
           0           0           0           0           0           0
           0           0           0           0           0           0
           0           0           0           0           0           0
           0           0           0           0
Num RLSW                                   I               41
RLSW                                       R   N=          41
  1.00000000E+00  1.00000000E+00  1.00000000E+00  1.00000000E+00  1.00000000E+00
  0.00000000E+00  0.00000000E+00  1.00000000E+00  0.00000000E+00  0.00000000E+00
  0.00000000E+00  0.00000000E+00  1.00000000E+00  0.00000000E+00  0.00000000E+00
  0.00000000E+00  0.00000000E+00  1.00000000E+00  0.00000000E+00  0.00000000E+00
  0.00000000E+00  0.00000000E+00  1.00000000E+00  0.00000000E+00  0.00000000E+00
  0.00000000E+00  0.00000000E+00  1.00000000E+00  0.00000000E+00  0.00000000E+00
  0.00000000E+00  0.00000000E+00  1.00000000E+00  0.00000000E+00  0.00000000E+00
  0.00000000E+00  0.00000000E+00  0.00000000E+00  1.00000000E+00  1.00000000E+00
  0.00000000E+00
MxBond                                     I                4
NBond                                      I   N=           7
           4           3           1           1           1           1
           1
IBond                                      I   N=          28
           2           3           4           5           1           6
           7           0           1           0           0           0
           1           0           0           0           1           0
           0           0           2           0           0           0
           2           0           0           0
RBond                                      R   N=          28
  1.00000000E+00  1.00000000E+00  1.00000000E+00  1.00000000E+00  1.00000000E+00
  1.00000000E+00  1.00000000E+00  0.00000000E+00  1.00000000E+00  0.00000000E+00
  0.00000000E+00  0.00000000E+00  1.00000000E+00  0.00000000E+00  0.00000000E+00
  0.00000000E+00  1.00000000E+00  0.00000000E+00  0.00000000E+00  0.00000000E+00
  1.00000000E+00  0.00000000E+00  0.00000000E+00  0.00000000E+00  1.00000000E+00
  0.00000000E+00  0.00000000E+00  0.00000000E+00
Virial Ratio                               R      1.999180860230855E+00
SCF Energy                                 R     -9.516663116547920E+01
Total Energy                               R     -9.516663116547920E+01
RMS Density                                R      3.512231376431275E-09
External E-field                           R   N=          35
  0.00000000E+00  0.00000000E+00  0.00000000E+00  0.00000000E+00  0.00000000E+00
  0.00000000E+00  0.00000000E+00  0.00000000E+00  0.00000000E+00  0.00000000E+00
  0.00000000E+00  0.00000000E+00  0.00000000E+00  0.00000000E+00  0.00000000E+00
  0.00000000E+00  0.00000000E+00  0.00000000E+00  0.00000000E+00  0.00000000E+00
  0.00000000E+00  0.00000000E+00  0.00000000E+00  0.00000000E+00  0.00000000E+00
  0.00000000E+00  0.00000000E+00  0.00000000E+00  0.00000000E+00  0.00000000E+00
  0.00000000E+00  0.00000000E+00  0.00000000E+00  0.00000000E+00  0.00000000E+00
IOpCl                                      I                0
IROHF                                      I                0
Alpha Orbital Energies                     R   N=          28
 -1.55352420E+01 -1.12437835E+01 -1.17430471E+00 -8.97738336E-01 -6.67242717E-01
 -5.96975879E-01 -5.52757701E-01 -5.22129745E-01 -3.76087833E-01  2.21361876E-01
  2.86009604E-01  3.03830666E-01  3.23202418E-01  3.31971394E-01  4.04965515E-01
  7.88299883E-01  7.98806865E-01  8.05131584E-01  1.01440596E+00  1.02690106E+00
  1.06097284E+00  1.17985551E+00  1.24009656E+00  1.24417003E+00  1.27150779E+00
  1.27788693E+00  1.33863965E+00  1.79642262E+00
Alpha MO coefficients                      R   N=         784
  1.74951623E-05 -4.98877671E-04 -5.02601808E-05 -1.03878668E-04  0.00000000E+00
  4.67177258E-03 -2.70826050E-04 -2.19582712E-03  0.00000000E+00  9.96057428E-01
  2.36502902E-02 -1.93260271E-03  7.89893991E-04  0.00000000E+00 -1.29040400E-02
  1.99373434E-03 -1.98702649E-03  0.00000000E+00 -2.91599130E-04 -2.09313693E-04
 -2.03302360E-04 -2.16184472E-04 -2.03302360E-04 -2.16184472E-04  1.26202758E-04
  2.23508859E-03  1.26202758E-04  2.23508859E-03  9.96208344E-01  2.53554681E-02
 -1.13648629E-04 -2.50891552E-04  0.00000000E+00 -1.67446167E-02  3.35163358E-05
  3.29087580E-04  0.00000000E+00 -1.04628757E-04 -1.23680007E-04 -5.43489094E-05
 -1.21340545E-04  0.00000000E+00  2.23531360E-03  3.02262496E-04  1.45036480E-03
  0.00000000E+00 -2.71092298E-05  3.25061277E-03  1.10766082E-05  3.18602831E-03
  1.10766082E-05  3.18602831E-03  2.40829343E-06  5.10310528E-04  2.40829343E-06
  5.10310528E-04 -9.76284088E-02  1.89779925E-01 -8.34617693E-03 -9.15768937E-02
  0.00000000E+00  1.00697610E-01 -4.29425598E-03  1.22229809E-02  0.00000000E+00
 -1.83517953E-01  3.74003622E-01 -7.72138146E-02  5.16186034E-02  0.00000000E+00
  4.24538105E-01 -4.66641068E-02  3.47165459E-02  0.00000000E+00  4.53833947E-02
  1.25089735E-03  4.23926822E-02  4.49488687E-03  4.23926822E-02  4.49488687E-03
  1.18970409E-01 -9.75872534E-04  1.18970409E-01 -9.75872534E-04 -1.69789521E-01
  3.27636190E-01  6.82896200E-03  8.10401571E-02  0.00000000E+00  3.84177328E-01
 -1.46528033E-02  1.22652663E-02  0.00000000E+00  8.02152670E-02 -1.61925584E-01
  7.51327216E-02  1.46365774E-01  0.00000000E+00 -2.57487065E-01  3.99714867E-02
  3.43016781E-02  0.00000000E+00  1.31942698E-01  2.92229884E-02  1.37101309E-01
  4.06821116E-02  1.37101309E-01  4.06821116E-02 -1.03495828E-01 -2.83227026E-02
 -1.03495828E-01 -2.83227026E-02  0.00000000E+00  0.00000000E+00  0.00000000E+00
  0.00000000E+00  2.29994375E-01  0.00000000E+00  0.00000000E+00  0.00000000E+00
  1.22369857E-01  0.00000000E+00  0.00000000E+00  0.00000000E+00  0.00000000E+00
  4.02374783E-01  0.00000000E+00  0.00000000E+00  0.00000000E+00  2.04459716E-01
  0.00000000E+00  0.00000000E+00  1.06292632E-01  5.31498860E-02 -1.06292632E-01
 -5.31498860E-02 -2.11970204E-01 -1.10496000E-01  2.11970204E-01  1.10496000E-01
  3.15562519E-03  9.81384273E-04  3.64381597E-01 -1.58356653E-01  0.00000000E+00
 -1.40776399E-02  1.57184656E-01 -5.23576261E-02  0.00000000E+00 -3.05613509E-02
  7.26379217E-02  2.34926491E-01  1.34956974E-01  0.00000000E+00  1.02047414E-01
  1.52116636E-01  6.87511164E-02  0.00000000E+00 -2.56958798E-01 -2.08634600E-01
  7.18140230E-02  5.42273096E-02  7.18140230E-02  5.42273096E-02 -6.57621910E-02
 -3.85195273E-02 -6.57621910E-02 -3.85195273E-02 -1.87310799E-03  1.06151272E-02
 -1.97068154E-01 -3.48262003E-01  0.00000000E+00 -3.15806224E-02 -1.16975405E-01
 -1.36798276E-01  0.00000000E+00 -4.92505206E-03  3.60700241E-03  3.94906394E-02
  3.88561487E-01  0.00000000E+00  4.87340104E-02  2.20691432E-02  2.45387696E-01
  0.00000000E+00  4.80807390E-02  2.86485222E-02 -1.39836760E-01 -1.08350716E-01
 -1.39836760E-01 -1.08350716E-01 -1.07232465E-01 -7.99288997E-02 -1.07232465E-01
 -7.99288997E-02  0.00000000E+00  0.00000000E+00  0.00000000E+00  0.00000000E+00
  3.85410026E-01  0.00000000E+00  0.00000000E+00  0.00000000E+00  2.04738865E-01
  0.00000000E+00  0.00000000E+00  0.00000000E+00  0.00000000E+00 -2.45966973E-01
  0.00000000E+00  0.00000000E+00  0.00000000E+00 -1.57736433E-01  0.00000000E+00
  0.00000000E+00  2.23579739E-01  1.86740399E-01 -2.23579739E-01 -1.86740399E-01
  1.52417851E-01  1.10676884E-01 -1.52417851E-01 -1.10676884E-01  7.92932535E-03
 -2.43615027E-02 -1.63533540E-01  7.14315632E-02  0.00000000E+00  4.73909850E-02
 -7.48329487E-02  5.09245487E-03  0.00000000E+00 -5.16131323E-02  1.31256734E-01
  5.01297640E-01 -1.77681995E-01  0.00000000E+00  1.70377920E-01  4.69110518E-01
 -1.86693850E-01  0.00000000E+00  1.61447762E-01  1.92432073E-01 -6.75255815E-02
 -7.58630885E-02 -6.75255815E-02 -7.58630885E-02 -5.41569920E-02 -3.61505066E-02
 -5.41569920E-02 -3.61505066E-02 -5.89528713E-02  3.16875812E-02 -3.11694228E-02
  1.42419484E-01  0.00000000E+00  1.10289280E+00  1.52789879E-02  5.45922590E-01
  0.00000000E+00 -9.18505480E-02  9.50217102E-02 -1.26281210E-01 -5.50722134E-02
  0.00000000E+00  1.44739572E+00 -4.09916227E-01 -1.87065040E-01  0.00000000E+00
 -2.07232903E-04 -6.50574561E-01 -5.32821117E-03 -5.64292025E-01 -5.32821117E-03
 -5.64292025E-01 -3.02041586E-02 -9.50272883E-01 -3.02041586E-02 -9.50272883E-01
 -1.39102807E-01  9.57646067E-02  1.20703731E-02  4.86896560E-02  0.00000000E+00
  2.55552795E+00  1.91939721E-02  2.77503695E-02  0.00000000E+00  7.30230074E-02
 -5.22016256E-02  8.60969259E-02 -2.34015063E-02  0.00000000E+00 -1.31089536E+00
  2.51436048E-01 -2.38262108E-01  0.00000000E+00  3.51269939E-03 -1.01332721E+00
 -8.10426786E-04 -1.09337800E+00 -8.10426786E-04 -1.09337800E+00  3.02466429E-02
  6.32357671E-01  3.02466429E-02  6.32357671E-01  0.00000000E+00  0.00000000E+00
  0.00000000E+00  0.00000000E+00  2.45852544E-01  0.00000000E+00  0.00000000E+00
  0.00000000E+00  8.86201012E-01  0.00000000E+00  0.00000000E+00  0.00000000E+00
  0.00000000E+00  2.35462599E-01  0.00000000E+00  0.00000000E+00  0.00000000E+00
  7.22203329E-01  0.00000000E+00  0.00000000E+00 -3.45718504E-02 -1.07863146E+00
  3.45718504E-02  1.07863146E+00  4.00924994E-02  1.14282628E+00 -4.00924994E-02
 -1.14282628E+00  4.81145721E-03  1.48203165E-02  3.47681627E-01  6.58005138E-03
  0.00000000E+00 -1.35196855E-01  1.55673522E+00  1.26887941E-01  0.00000000E+00
 -5.03917197E-03 -9.96378016E-03 -3.78314685E-02  3.71515436E-02  0.00000000E+00
  1.67864744E-01 -2.95495649E-01  8.30707823E-02  0.00000000E+00  4.38455312E-02
  1.94143873E+00 -2.34770310E-02 -9.64739238E-01 -2.34770310E-02 -9.64739238E-01
  2.27305203E-03 -3.08293090E-02  2.27305203E-03 -3.08293090E-02  0.00000000E+00
  0.00000000E+00  0.00000000E+00  0.00000000E+00  2.14512143E-01  0.00000000E+00
  0.00000000E+00  0.00000000E+00  1.33418943E+00  0.00000000E+00  0.00000000E+00
  0.00000000E+00  0.00000000E+00 -2.30796448E-01  0.00000000E+00  0.00000000E+00
  0.00000000E+00 -9.73801674E-01  0.00000000E+00  0.00000000E+00 -4.90400870E-02
 -1.30176010E+00  4.90400870E-02  1.30176010E+00 -4.13946649E-03 -1.02328850E+00
  4.13946649E-03  1.02328850E+00  5.91927674E-02 -3.75636413E-02 -2.97805755E-03
  2.14521403E-01  0.00000000E+00 -1.12962434E+00 -1.58969340E-01  1.82330046E+00
  0.00000000E+00 -4.42909444E-02  3.70766862E-02  9.59594136E-02  3.37097678E-01
  0.00000000E+00  8.89995460E-01  3.17578306E-01  1.41443506E+00  0.00000000E+00
 -7.38896399E-02 -3.36430702E-01 -7.34148793E-02 -1.36034251E-01 -7.34148793E-02
 -1.36034251E-01  2.32980047E-02  6.54339664E-01  2.32980047E-02  6.54339664E-01
  0.00000000E+00  0.00000000E+00  0.00000000E+00  0.00000000E+00 -7.53242888E-01
  0.00000000E+00  0.00000000E+00  0.00000000E+00  1.65699408E+00  0.00000000E+00
  0.00000000E+00  0.00000000E+00  0.00000000E+00  2.62410589E-02  0.00000000E+00
  0.00000000E+00  0.00000000E+00 -3.13715902E-02  0.00000000E+00  0.00000000E+00
 -4.61256887E-01 -2.98521474E-01  4.61256887E-01  2.98521474E-01  2.05340922E-01
  1.17898080E-01 -2.05340922E-01 -1.17898080E-01 -2.87795965E-02  2.84010799E-01
 -4.06346914E-01 -9.15383177E-01  0.00000000E+00  3.74887821E-02  9.78136793E-01
  1.06937294E+00  0.00000000E+00  3.33570685E-02 -1.94712696E-01 -3.71934801E-02
  3.02230716E-02  0.00000000E+00  4.95344268E-01 -2.44511920E-01 -3.25278287E-01
  0.00000000E+00  1.22937724E-01  2.00708176E-01 -2.25595026E-01 -2.14341115E-01
 -2.25595026E-01 -2.14341115E-01 -1.12496252E-01  8.81525282E-02 -1.12496252E-01
  8.81525282E-02  1.78833416E-02 -1.38957952E-01 -6.49045322E-01  5.04650956E-01
  0.00000000E+00 -4.87606684E-02  1.51033180E+00 -5.67097010E-01  0.00000000E+00
  1.29775012E-03  3.74109981E-03 -1.67098618E-01  1.04081528E-01  0.00000000E+00
 -3.18990097E-01 -7.37080486E-02  1.53667331E-01  0.00000000E+00  5.17800696E-01
  4.17835626E-01 -1.74371628E-01 -1.36514301E-01 -1.74371628E-01 -1.36514301E-01
  1.45625603E-01  8.25553523E-03  1.45625603E-01  8.25553523E-03  1.19264703E-02
 -1.45156126E-01  2.20506936E-01  7.16702595E-02  0.00000000E+00  7.53302225E-01
 -6.76681770E-01 -2.63202215E-01  0.00000000E+00  5.61558823E-03 -1.34642356E-02
 -8.45819543E-01  5.23316919E-01  0.00000000E+00 -3.35884163E-01  9.64937279E-01
 -8.41351613E-01  0.00000000E+00 -4.24083891E-02 -3.15829023E-01 -1.52059211E-02
  7.42515062E-02 -1.52059211E-02  7.42515062E-02 -1.54863973E-01  9.19402839E-02
 -1.54863973E-01  9.19402839E-02  0.00000000E+00  0.00000000E+00  0.00000000E+00
  0.00000000E+00  5.45444700E-01  0.00000000E+00  0.00000000E+00  0.00000000E+00
 -1.41028761E+00  0.00000000E+00  0.00000000E+00  0.00000000E+00  0.00000000E+00
 -4.48107801E-01  0.00000000E+00  0.00000000E+00  0.00000000E+00  1.57626123E+00
  0.00000000E+00  0.00000000E+00 -2.39360540E-01  7.87419995E-01  2.39360540E-01
 -7.87419995E-01  6.44570782E-01  5.87195098E-02 -6.44570782E-01 -5.87195098E-02
 -4.58740744E-02  8.33189466E-02  3.35839968E-01 -2.35201393E-01  0.00000000E+00
 -4.66706971E-01 -7.74892904E-01  6.54552533E-01  0.00000000E+00  5.34964810E-02
 -2.53132322E-01 -3.99129654E-01 -6.30191068E-01  0.00000000E+00  1.18512967E-01
  9.63984320E-01  1.20831103E+00  0.00000000E+00  1.08148935E-01 -6.06604239E-01
 -2.36277463E-01  2.25858584E-01 -2.36277463E-01  2.25858584E-01  4.92773397E-01
  1.63664690E-01  4.92773397E-01  1.63664690E-01 -6.55536346E-02  3.59306851E-01
 -4.78343800E-01  3.07594083E-01  0.00000000E+00 -6.81616466E-01  6.40816894E-01
  9.62598489E-03  0.00000000E+00 -2.23791095E-02 -3.68556924E-02 -2.29686460E-01
 -3.99882763E-01  0.00000000E+00  2.00200584E-01  4.80723569E-02  4.56054520E-01
  0.00000000E+00 -9.70410474E-01  1.14253806E+00 -2.45948205E-01 -7.24565844E-02
 -2.45948205E-01 -7.24565844E-02 -4.00461136E-01  2.74118234E-01 -4.00461136E-01
  2.74118234E-01  2.96514885E-02 -9.64827404E-01 -6.02857687E-01 -3.04435317E-01
  0.00000000E+00  1.67632200E+00  5.25272593E-01  4.66513189E-01  0.00000000E+00
  1.99963042E-02 -1.14796519E-01 -1.50361653E-01 -1.10523875E-01  0.00000000E+00
 -1.34880389E-01  4.05246932E-01  3.07213654E-01  0.00000000E+00 -3.96580375E-01
  3.40202409E-01  7.05764375E-01 -1.17687760E+00  7.05764375E-01 -1.17687760E+00
  2.26064993E-01  8.30056202E-02  2.26064993E-01  8.30056202E-02  0.00000000E+00
  0.00000000E+00  0.00000000E+00  0.00000000E+00 -4.99589539E-01  0.00000000E+00
  0.00000000E+00  0.00000000E+00  4.63506574E-01  0.00000000E+00  0.00000000E+00
  0.00000000E+00  0.00000000E+00 -9.48897882E-01  0.00000000E+00  0.00000000E+00
  0.00000000E+00  1.39372702E+00  0.00000000E+00  0.00000000E+00  3.95363983E-01
 -6.60521354E-01 -3.95363983E-01  6.60521354E-01 -3.36295904E-01  1.05913133E+00
  3.36295904E-01 -1.05913133E+00  0.00000000E+00  0.00000000E+00  0.00000000E+00
  0.00000000E+00  5.54337572E-01  0.00000000E+00  0.00000000E+00  0.00000000E+00
 -2.70826023E-01  0.00000000E+00  0.00000000E+00  0.00000000E+00  0.00000000E+00
 -3.55367662E-01  0.00000000E+00  0.00000000E+00  0.00000000E+00 -1.45900306E-01
  0.00000000E+00  0.00000000E+00 -7.16740757E-01  8.21735466E-01  7.16740757E-01
 -8.21735466E-01 -6.46618372E-01  5.14960519E-01  6.46618372E-01 -5.14960519E-01
  6.04609894E-03 -1.13788469E+00  1.93142355E-01 -1.76104000E-01  0.00000000E+00
  2.19739602E+00 -8.20933352E-03  4.49088224E-01  0.00000000E+00 -5.63937942E-02
  5.88081377E-01 -2.06239751E-01 -4.80753028E-01  0.00000000E+00 -9.55935010E-01
  2.94000655E-02  4.66405897E-01  0.00000000E+00  5.15860121E-01 -1.08196869E+00
 -2.14548741E-02 -5.61111618E-01 -2.14548741E-02 -5.61111618E-01 -5.92066798E-01
  6.90066027E-01 -5.92066798E-01  6.90066027E-01 -7.04043948E-02 -1.69927799E+00
  1.37885176E-01  1.19113843E-01  0.00000000E+00  4.07221446E+00 -7.28640051E-02
 -2.34069977E-01  0.00000000E+00  3.68607648E-02 -9.35903290E-01  2.52321711E-01
  1.53481356E-01  0.00000000E+00  8.63207784E-01 -5.95672653E-01 -9.09185618E-01
  0.00000000E+00 -2.41475840E-01 -8.22109576E-01 -4.28680447E-01 -5.44197517E-01
 -4.28680447E-01 -5.44197517E-01  4.46279745E-02 -7.89670293E-01  4.46279745E-02
 -7.89670293E-01  9.61874472E-02  9.06211787E-01  5.73045421E-02  1.75292769E-01
  0.00000000E+00 -4.24894664E+00  8.38270809E-02  1.20731845E+00  0.00000000E+00
 -3.92041127E-02 -1.74259579E+00 -2.48242701E-02 -2.47218974E-01  0.00000000E+00
  4.48436489E+00 -4.21952831E-01  1.52009905E+00  0.00000000E+00  5.05370511E-01
  2.70929392E-01  3.83082515E-01  3.56670163E-01  3.83082515E-01  3.56670163E-01
 -5.26534256E-01 -2.02945765E-01 -5.26534256E-01 -2.02945765E-01
Total SCF Density                          R   N=         406
  2.06173439E+00 -9.82154807E-02  2.89424337E-01 -4.71219550E-04  5.80047872E-03
  3.96938666E-01 -8.70036581E-03  7.14697638E-03  1.13082871E-03  3.32839257E-01
  1.05352159E-21 -6.14743509E-22  3.68974586E-20 -9.08801902E-20  4.02876602E-01
 -1.82701536E-01  2.86100638E-01 -9.74270603E-03  7.70575266E-02 -9.97526641E-21
  3.22951713E-01  6.12453394E-03 -9.75834888E-03  1.85001614E-01  1.94144539E-02
  1.60819712E-20 -1.62571253E-02  8.84469028E-02 -5.63325171E-03  9.44017446E-03
  1.40589160E-02  1.12342728E-01 -3.96971276E-20  2.24513526E-02  1.43190628E-02
  4.35715809E-02  9.79865351E-22 -1.61866293E-21  1.67439016E-20 -3.94491275E-20
  2.14105580E-01 -3.52775082E-21  7.59498897E-21 -1.87857572E-20  1.13784769E-01
  7.42715152E-03 -1.57421233E-02  6.08931042E-04  5.21424281E-02 -6.41646981E-21
  3.02638884E-02 -2.04473973E-03 -2.87091659E-03  2.60151557E-22  2.07173181E+00
 -1.57593385E-02  2.96454530E-02  1.27518824E-04 -1.01515993E-01  1.25530163E-20
 -3.87008074E-02  3.86698980E-03 -2.18951161E-03  4.49687477E-22 -1.34160943E-01
  3.78351128E-01 -1.26068360E-03 -3.20091946E-03 -6.00162688E-03 -3.97360925E-03
  4.43747019E-24  8.05671248E-02 -1.19499637E-02 -3.03352871E-02  3.09222223E-21
 -2.99515418E-02  8.38317000E-02  6.39319855E-01 -6.34450514E-02  1.32666206E-01
  4.45678183E-03 -3.24500513E-01  4.08710224E-20  7.76851795E-02 -2.66181086E-02
 -1.17402064E-01  1.35549476E-20  1.23743860E-02 -3.29870894E-02 -7.00247702E-02
  4.49704727E-01  7.78326363E-21 -1.65454217E-20 -1.03753682E-21  4.04806344E-20
 -4.50840114E-03 -5.87084496E-21  2.63278869E-21  1.33828154E-20 -2.24090808E-03
 -2.91641454E-21  7.95913140E-21  5.88579444E-20 -1.13802387E-19  4.44810436E-01
  1.21599188E-02 -1.45267058E-02 -1.11669426E-02 -1.61411246E-01  1.94328977E-20
 -1.02339388E-01 -9.13746713E-04 -1.81640054E-02  2.20271048E-21 -2.47141238E-01
  4.60237233E-01  1.18414267E-01 -2.66972250E-02  8.78314337E-21  5.77042032E-01
  4.45713867E-03 -1.35956425E-02 -4.99472610E-02  1.84942778E-02 -5.87393645E-21
  6.01092739E-02 -2.83238114E-02 -1.73579091E-02  1.60018233E-22 -3.04279555E-02
  9.76502363E-02  5.56748317E-01 -1.01609626E-01  4.95527435E-20  1.32793635E-01
  4.94941043E-01 -1.89831941E-02  5.01703523E-02  1.43373541E-02 -2.20163636E-01
  3.12791030E-20 -1.84944716E-03 -9.15592765E-03 -7.45381793E-02  1.05870981E-20
  1.45448959E-03 -2.24863027E-02 -1.35693736E-01  2.89219304E-01 -7.19575745E-20
 -1.37975375E-02 -1.43917629E-01  2.04368653E-01  2.55267086E-21 -6.83050079E-21
 -5.36015156E-21  3.14715986E-20 -2.75372363E-02  3.01208054E-21 -8.53725216E-22
  1.02072871E-20 -1.45501440E-02 -1.58880531E-21  7.30115971E-21  5.37654503E-20
 -7.03792339E-20  2.42134773E-01  7.85464438E-21  4.68831427E-20 -4.84079308E-20
  1.33369115E-01 -5.29619236E-02  9.63332316E-02 -2.57972184E-01  8.40310607E-02
 -2.23319954E-20  1.30017212E-01 -1.20447993E-01  1.97444399E-02 -8.01797351E-21
  2.49617506E-03 -3.39731430E-03  5.77504930E-02 -4.60562466E-02  8.36669672E-21
 -2.21490701E-02  8.17316336E-02 -5.98142718E-02  1.11776527E-20  2.27747149E-01
 -2.06354854E-03  1.06117030E-02 -2.25897309E-01  7.81201948E-02 -2.01161294E-20
  4.48985078E-02 -1.01957989E-01  1.67194847E-02 -6.78787617E-21 -3.58244635E-03
  1.18741908E-02  1.01365084E-01 -9.37508827E-02  1.62812997E-20  1.18163832E-02
  1.20555288E-01 -8.43775929E-02  1.60114307E-20  1.79936337E-01  1.64490790E-01
 -5.49058988E-02  1.06392259E-01  1.30700459E-01  7.94653673E-02  2.21233161E-01
  1.14287954E-01  6.10155087E-02  3.44514880E-02  1.17564952E-01  9.98894881E-03
 -2.10023198E-02 -3.09475104E-02 -2.07805355E-02 -2.44475140E-02 -5.65861908E-02
 -4.06748118E-02 -2.11907255E-02 -2.70682185E-02 -3.21301089E-02 -5.58469534E-02
  2.22302501E-01 -8.79950026E-03  3.00281249E-02  1.07516038E-01  5.32252863E-02
  1.68391594E-01  3.01811490E-02  5.25197692E-02  2.43041793E-02  8.94739225E-02
  1.00293464E-02 -2.26425622E-02 -5.37193194E-02 -3.02342512E-02 -4.90915936E-02
 -4.24579175E-02 -5.66271955E-02 -1.42800206E-02 -3.71775076E-02 -5.16400304E-02
 -5.56227900E-02  1.54674810E-01  1.19636019E-01 -5.49058988E-02  1.06392259E-01