Gaussian root directory: /software/gaussian/g09.D01/em64t
Gaussian tag file: using scratch dir = /scratch/6216981
declare -x SLURMD_NODENAME="cpn-k08-40-01"
declare -x SLURMTMPDIR="/scratch/6216981"
declare -x SLURM_CHECKPOINT_IMAGE_DIR="/var/slurm/checkpoint"
declare -x SLURM_CLUSTER_NAME="ub-hpc"
declare -x SLURM_CPUS_ON_NODE="1"
declare -x SLURM_GTIDS="0"
declare -x SLURM_JOBID="6216981"
declare -x SLURM_JOB_ACCOUNT="pinvest"
declare -x SLURM_JOB_CPUS_PER_NODE="1"
declare -x SLURM_JOB_ID="6216981"
declare -x SLURM_JOB_NAME="ch3nh2"
declare -x SLURM_JOB_NODELIST="cpn-k08-40-01"
declare -x SLURM_JOB_NUM_NODES="1"
declare -x SLURM_JOB_PARTITION="debug"
declare -x SLURM_JOB_QOS="debug"
declare -x SLURM_JOB_UID="375950"
declare -x SLURM_JOB_USER="gradstud"
declare -x SLURM_LOCALID="0"
declare -x SLURM_MEM_PER_NODE="2875"
declare -x SLURM_NNODES="1"
declare -x SLURM_NODEID="0"
declare -x SLURM_NODELIST="cpn-k08-40-01"
declare -x SLURM_NODE_ALIASES="(null)"
declare -x SLURM_NPROCS="1"
declare -x SLURM_NTASKS="1"
declare -x SLURM_NTASKS_PER_NODE="1"
declare -x SLURM_PRIO_PROCESS="0"
declare -x SLURM_PROCID="0"
declare -x SLURM_SUBMIT_DIR="/gaussian/ch3nh2"
declare -x SLURM_SUBMIT_HOST="srv-k07-14.cbls.ccr.buffalo.edu"
declare -x SLURM_TASKS_PER_NODE="1"
declare -x SLURM_TASK_PID="15078"
declare -x SLURM_TOPOLOGY_ADDR="IB1.cpn-k08-40-01"
declare -x SLURM_TOPOLOGY_ADDR_PATTERN="switch.node"
 Entering Gaussian System, Link 0=g09
 Initial command:
/software/gaussian/g09.D01/em64t/g09/l1.exe "/scratch/6216981/Gau-15100.inp" -scrdir="/scratch/6216981/"
 Entering Link 1 = /software/gaussian/g09.D01/em64t/g09/l1.exe PID=     15101.

 Copyright (c) 1988,1990,1992,1993,1995,1998,2003,2009,2013,
            Gaussian, Inc.  All Rights Reserved.

 This is part of the Gaussian(R) 09 program.  It is based on
 the Gaussian(R) 03 system (copyright 2003, Gaussian, Inc.),
 the Gaussian(R) 98 system (copyright 1998, Gaussian, Inc.),
 the Gaussian(R) 94 system (copyright 1995, Gaussian, Inc.),
 the Gaussian 92(TM) system (copyright 1992, Gaussian, Inc.),
 the Gaussian 90(TM) system (copyright 1990, Gaussian, Inc.),
 the Gaussian 88(TM) system (copyright 1988, Gaussian, Inc.),
 the Gaussian 86(TM) system (copyright 1986, Carnegie Mellon
 University), and the Gaussian 82(TM) system (copyright 1983,
 Carnegie Mellon University). Gaussian is a federally registered
 trademark of Gaussian, Inc.

 This software contains proprietary and confidential information,
 including trade secrets, belonging to Gaussian, Inc.

 This software is provided under written license and may be
 used, copied, transmitted, or stored only in accord with that
 written license.

 The following legend is applicable only to US Government
 contracts under FAR:

                    RESTRICTED RIGHTS LEGEND

 Use, reproduction and disclosure by the US Government is
 subject to restrictions as set forth in subparagraphs (a)
 and (c) of the Commercial Computer Software - Restricted
 Rights clause in FAR 52.227-19.

 Gaussian, Inc.
 340 Quinnipiac St., Bldg. 40, Wallingford CT 06492


 ---------------------------------------------------------------
 Warning -- This program may not be used in any manner that
 competes with the business of Gaussian, Inc. or will provide
 assistance to any competitor of Gaussian, Inc.  The licensee
 of this program is prohibited from giving any competitor of
 Gaussian, Inc. access to this program.  By using this program,
 the user acknowledges that Gaussian, Inc. is engaged in the
 business of creating and licensing software in the field of
 computational chemistry and represents and warrants to the
 licensee that it is not a competitor of Gaussian, Inc. and that
 it will not use this program in any manner prohibited above.
 ---------------------------------------------------------------


 Cite this work as:
 Gaussian 09, Revision D.01,
 M. J. Frisch, G. W. Trucks, H. B. Schlegel, G. E. Scuseria,
 M. A. Robb, J. R. Cheeseman, G. Scalmani, V. Barone, B. Mennucci,
 G. A. Petersson, H. Nakatsuji, M. Caricato, X. Li, H. P. Hratchian,
 A. F. Izmaylov, J. Bloino, G. Zheng, J. L. Sonnenberg, M. Hada,
 M. Ehara, K. Toyota, R. Fukuda, J. Hasegawa, M. Ishida, T. Nakajima,
 Y. Honda, O. Kitao, H. Nakai, T. Vreven, J. A. Montgomery, Jr.,
 J. E. Peralta, F. Ogliaro, M. Bearpark, J. J. Heyd, E. Brothers,
 K. N. Kudin, V. N. Staroverov, T. Keith, R. Kobayashi, J. Normand,
 K. Raghavachari, A. Rendell, J. C. Burant, S. S. Iyengar, J. Tomasi,
 M. Cossi, N. Rega, J. M. Millam, M. Klene, J. E. Knox, J. B. Cross,
 V. Bakken, C. Adamo, J. Jaramillo, R. Gomperts, R. E. Stratmann,
 O. Yazyev, A. J. Austin, R. Cammi, C. Pomelli, J. W. Ochterski,
 R. L. Martin, K. Morokuma, V. G. Zakrzewski, G. A. Voth,
 P. Salvador, J. J. Dannenberg, S. Dapprich, A. D. Daniels,
 O. Farkas, J. B. Foresman, J. V. Ortiz, J. Cioslowski,
 and D. J. Fox, Gaussian, Inc., Wallingford CT, 2013.

 ******************************************
 Gaussian 09:  EM64L-G09RevD.01 24-Apr-2013
                20-Jan-2017
 ******************************************
 %chk=ch3nh2.chk
 ----------------------------------
 # HF/aug-cc-pVDZ gfinput pop(full)
 ----------------------------------
 1/38=1/1;
 2/12=2,17=6,18=5,40=1/2;
 3/5=16,7=10,11=9,16=1,24=10,25=1,30=1/1,2,3;
 4//1;
 5/5=2,38=5/2;
 6/7=3,28=1/1;
 99/5=1,9=1/99;
 ------
 ch3nh2
 ------
 Symbolic Z-matrix:
 Charge =  0 Multiplicity = 1
 C                     0.74591   0.01111   0.
 N                    -0.72174  -0.07185   0.
 H                     1.04206   1.06011   0.
 H                     1.1293   -0.48336   0.89254
 H                     1.1293   -0.48336  -0.89254
 H                    -1.07699   0.38632  -0.82703
 H                    -1.07699   0.38632   0.82703

                          Input orientation:
 ---------------------------------------------------------------------
 Center     Atomic      Atomic             Coordinates (Angstroms)
 Number     Number       Type             X           Y           Z
 ---------------------------------------------------------------------
      1          6           0        0.745914    0.011106    0.000000
      2          7           0       -0.721743   -0.071848    0.000000
      3          1           0        1.042059    1.060105    0.000000
      4          1           0        1.129298   -0.483355    0.892539
      5          1           0        1.129298   -0.483355   -0.892539
      6          1           0       -1.076988    0.386322   -0.827032
      7          1           0       -1.076988    0.386322    0.827032
 ---------------------------------------------------------------------
                    Distance matrix (angstroms):
                    1          2          3          4          5
     1  C    0.000000
     2  N    1.469999   0.000000
     3  H    1.090000   2.095785   0.000000
     4  H    1.090000   2.095785   1.785079   0.000000
     5  H    1.090000   2.095785   1.785079   1.785078   0.000000
     6  H    2.036600   1.010000   2.372409   2.929328   2.372410
     7  H    2.036600   1.010000   2.372409   2.372410   2.929328
                    6          7
     6  H    0.000000
     7  H    1.654064   0.000000
 Stoichiometry    CH5N
 Framework group  CS[SG(CHN),X(H4)]
 Deg. of freedom     9
 Full point group                 CS      NOp   2
 Largest Abelian subgroup         CS      NOp   2
 Largest concise Abelian subgroup CS      NOp   2
                         Standard orientation:
 ---------------------------------------------------------------------
 Center     Atomic      Atomic             Coordinates (Angstroms)
 Number     Number       Type             X           Y           Z
 ---------------------------------------------------------------------
      1          6           0        0.053054    0.712391    0.000000
      2          7           0        0.053054   -0.757609    0.000000
      3          1           0       -0.977561    1.067260    0.000000
      4          1           0        0.568362    1.067261    0.892539
      5          1           0        0.568362    1.067261   -0.892539
      6          1           0       -0.424433   -1.086433   -0.827032
      7          1           0       -0.424433   -1.086433    0.827032
 ---------------------------------------------------------------------
 Rotational constants (GHZ):    101.8392862     23.0219056     22.0128608
 Standard basis: Aug-CC-pVDZ (5D, 7F)
 AO basis set in the form of general basis input (Overlap normalization):
      1 0
 S   7 1.00       0.000000000000
      0.6665000000D+04  0.6935163173D-03
      0.1000000000D+04  0.5341502433D-02
      0.2280000000D+03  0.2713667141D-01
      0.6471000000D+02  0.1019923853D+00
      0.2106000000D+02  0.2755086365D+00
      0.7495000000D+01  0.4510864331D+00
      0.2797000000D+01  0.2875657448D+00
 S   7 1.00       0.000000000000
      0.6665000000D+04  0.7733547404D-05
      0.2280000000D+03  0.2780721367D-03
      0.6471000000D+02 -0.2578756542D-02
      0.2106000000D+02 -0.8950876838D-02
      0.7495000000D+01 -0.1060588547D+00
      0.2797000000D+01 -0.1315176856D+00
      0.5215000000D+00  0.1099486598D+01
 S   1 1.00       0.000000000000
      0.1596000000D+00  0.1000000000D+01
 S   1 1.00       0.000000000000
      0.4690000000D-01  0.1000000000D+01
 P   3 1.00       0.000000000000
      0.9439000000D+01  0.5697925159D-01
      0.2002000000D+01  0.3132072115D+00
      0.5456000000D+00  0.7603767417D+00
 P   1 1.00       0.000000000000
      0.1517000000D+00  0.1000000000D+01
 P   1 1.00       0.000000000000
      0.4041000000D-01  0.1000000000D+01
 D   1 1.00       0.000000000000
      0.5500000000D+00  0.1000000000D+01
 D   1 1.00       0.000000000000
      0.1510000000D+00  0.1000000000D+01
 ****
      2 0
 S   7 1.00       0.000000000000
      0.9046000000D+04  0.7017087426D-03
      0.1357000000D+04  0.5402998803D-02
      0.3093000000D+03  0.2747295103D-01
      0.8773000000D+02  0.1035145797D+00
      0.2856000000D+02  0.2795865786D+00
      0.1021000000D+02  0.4513172405D+00
      0.3838000000D+01  0.2806268749D+00
 S   7 1.00       0.000000000000
      0.9046000000D+04  0.7774467966D-05
      0.3093000000D+03  0.3007420716D-03
      0.8773000000D+02 -0.2800165487D-02
      0.2856000000D+02 -0.9897085049D-02
      0.1021000000D+02 -0.1143311135D+00
      0.3838000000D+01 -0.1181623826D+00
      0.7466000000D+00  0.1097868854D+01
 S   1 1.00       0.000000000000
      0.2248000000D+00  0.1000000000D+01
 S   1 1.00       0.000000000000
      0.6124000000D-01  0.1000000000D+01
 P   3 1.00       0.000000000000
      0.1355000000D+02  0.5890567677D-01
      0.2917000000D+01  0.3204611067D+00
      0.7973000000D+00  0.7530420618D+00
 P   1 1.00       0.000000000000
      0.2185000000D+00  0.1000000000D+01
 P   1 1.00       0.000000000000
      0.5611000000D-01  0.1000000000D+01
 D   1 1.00       0.000000000000
      0.8170000000D+00  0.1000000000D+01
 D   1 1.00       0.000000000000
      0.2300000000D+00  0.1000000000D+01
 ****
      3 0
 S   3 1.00       0.000000000000
      0.1301000000D+02  0.3349872639D-01
      0.1962000000D+01  0.2348008012D+00
      0.4446000000D+00  0.8136829579D+00
 S   1 1.00       0.000000000000
      0.1220000000D+00  0.1000000000D+01
 S   1 1.00       0.000000000000
      0.2974000000D-01  0.1000000000D+01
 P   1 1.00       0.000000000000
      0.7270000000D+00  0.1000000000D+01
 P   1 1.00       0.000000000000
      0.1410000000D+00  0.1000000000D+01
 ****
      4 0
 S   3 1.00       0.000000000000
      0.1301000000D+02  0.3349872639D-01
      0.1962000000D+01  0.2348008012D+00
      0.4446000000D+00  0.8136829579D+00
 S   1 1.00       0.000000000000
      0.1220000000D+00  0.1000000000D+01
 S   1 1.00       0.000000000000
      0.2974000000D-01  0.1000000000D+01
 P   1 1.00       0.000000000000
      0.7270000000D+00  0.1000000000D+01
 P   1 1.00       0.000000000000
      0.1410000000D+00  0.1000000000D+01
 ****
      5 0
 S   3 1.00       0.000000000000
      0.1301000000D+02  0.3349872639D-01
      0.1962000000D+01  0.2348008012D+00
      0.4446000000D+00  0.8136829579D+00
 S   1 1.00       0.000000000000
      0.1220000000D+00  0.1000000000D+01
 S   1 1.00       0.000000000000
      0.2974000000D-01  0.1000000000D+01
 P   1 1.00       0.000000000000
      0.7270000000D+00  0.1000000000D+01
 P   1 1.00       0.000000000000
      0.1410000000D+00  0.1000000000D+01
 ****
      6 0
 S   3 1.00       0.000000000000
      0.1301000000D+02  0.3349872639D-01
      0.1962000000D+01  0.2348008012D+00
      0.4446000000D+00  0.8136829579D+00
 S   1 1.00       0.000000000000
      0.1220000000D+00  0.1000000000D+01
 S   1 1.00       0.000000000000
      0.2974000000D-01  0.1000000000D+01
 P   1 1.00       0.000000000000
      0.7270000000D+00  0.1000000000D+01
 P   1 1.00       0.000000000000
      0.1410000000D+00  0.1000000000D+01
 ****
      7 0
 S   3 1.00       0.000000000000
      0.1301000000D+02  0.3349872639D-01
      0.1962000000D+01  0.2348008012D+00
      0.4446000000D+00  0.8136829579D+00
 S   1 1.00       0.000000000000
      0.1220000000D+00  0.1000000000D+01
 S   1 1.00       0.000000000000
      0.2974000000D-01  0.1000000000D+01
 P   1 1.00       0.000000000000
      0.7270000000D+00  0.1000000000D+01
 P   1 1.00       0.000000000000
      0.1410000000D+00  0.1000000000D+01
 ****

 There are    61 symmetry adapted cartesian basis functions of A'  symmetry.
 There are    34 symmetry adapted cartesian basis functions of A"  symmetry.
 There are    57 symmetry adapted basis functions of A'  symmetry.
 There are    34 symmetry adapted basis functions of A"  symmetry.
    91 basis functions,   141 primitive gaussians,    95 cartesian basis functions
     9 alpha electrons        9 beta electrons
       nuclear repulsion energy        42.0763769281 Hartrees.
 NAtoms=    7 NActive=    7 NUniq=    5 SFac= 1.96D+00 NAtFMM=   60 NAOKFM=F Big=F
 Integral buffers will be    131072 words long.
 Raffenetti 1 integral format.
 Two-electron integral symmetry is turned on.
 One-electron integrals computed using PRISM.
 NBasis=    91 RedAO= T EigKep=  4.85D-04  NBF=    57    34
 NBsUse=    91 1.00D-06 EigRej= -1.00D+00 NBFU=    57    34
 ExpMin= 2.97D-02 ExpMax= 9.05D+03 ExpMxC= 3.09D+02 IAcc=3 IRadAn=         5 AccDes= 0.00D+00
 Harris functional with IExCor=  205 and IRadAn=       5 diagonalized for initial guess.
 HarFok:  IExCor=  205 AccDes= 0.00D+00 IRadAn=         5 IDoV= 1 UseB2=F ITyADJ=14
 ICtDFT=  3500011 ScaDFX=  1.000000  1.000000  1.000000  1.000000
 FoFCou: FMM=F IPFlag=           0 FMFlag=      100000 FMFlg1=           0
         NFxFlg=           0 DoJE=T BraDBF=F KetDBF=T FulRan=T
         wScrn=  0.000000 ICntrl=     500 IOpCl=  0 I1Cent=   200000004 NGrid=           0
         NMat0=    1 NMatS0=      1 NMatT0=    0 NMatD0=    1 NMtDS0=    0 NMtDT0=    0
 Petite list used in FoFCou.
 Initial guess orbital symmetries:
       Occupied  (A') (A') (A') (A') (A") (A') (A') (A") (A')
       Virtual   (A') (A') (A") (A') (A") (A') (A') (A") (A') (A')
                 (A") (A') (A') (A') (A") (A") (A') (A') (A') (A")
                 (A') (A') (A") (A') (A") (A') (A") (A') (A") (A')
                 (A") (A') (A') (A") (A') (A") (A') (A") (A') (A')
                 (A") (A') (A") (A') (A') (A') (A") (A') (A') (A")
                 (A') (A') (A") (A') (A") (A") (A') (A") (A') (A")
                 (A') (A') (A') (A") (A") (A') (A') (A") (A") (A')
                 (A') (A") (A') (A') (A') (A") (A') (A') (A') (A")
                 (A') (A")
 The electronic state of the initial guess is 1-A'.
 Keep R1 ints in memory in symmetry-blocked form, NReq=13226639.
 Requested convergence on RMS density matrix=1.00D-08 within 128 cycles.
 Requested convergence on MAX density matrix=1.00D-06.
 Requested convergence on             energy=1.00D-06.
 No special actions if energy rises.
 SCF Done:  E(RHF) =  -95.2292518305     A.U. after   11 cycles
            NFock= 11  Conv=0.92D-08     -V/T= 2.0015

 **********************************************************************

            Population analysis using the SCF density.

 **********************************************************************

 Orbital symmetries:
       Occupied  (A') (A') (A') (A') (A") (A') (A') (A") (A')
       Virtual   (A') (A') (A") (A') (A") (A') (A') (A") (A') (A')
                 (A') (A") (A') (A') (A") (A") (A') (A') (A") (A')
                 (A') (A") (A') (A') (A") (A') (A") (A") (A') (A')
                 (A") (A') (A") (A') (A") (A') (A") (A') (A') (A')
                 (A") (A') (A') (A") (A') (A") (A') (A') (A') (A")
                 (A') (A") (A') (A') (A") (A") (A') (A") (A') (A")
                 (A') (A') (A') (A") (A") (A') (A') (A") (A') (A")
                 (A') (A") (A') (A') (A') (A") (A') (A') (A') (A")
                 (A') (A")
 The electronic state is 1-A'.
 Alpha  occ. eigenvalues --  -15.54466 -11.24832  -1.17026  -0.89362  -0.66844
 Alpha  occ. eigenvalues --   -0.59778  -0.55549  -0.52287  -0.38559
 Alpha virt. eigenvalues --    0.03589   0.05186   0.05316   0.06142   0.08270
 Alpha virt. eigenvalues --    0.11561   0.15235   0.15246   0.17129   0.17556
 Alpha virt. eigenvalues --    0.19733   0.20987   0.27130   0.29327   0.29710
 Alpha virt. eigenvalues --    0.32006   0.34661   0.36911   0.40237   0.40427
 Alpha virt. eigenvalues --    0.43778   0.44934   0.45030   0.48063   0.49184
 Alpha virt. eigenvalues --    0.53187   0.54190   0.57778   0.57833   0.62015
 Alpha virt. eigenvalues --    0.62981   0.63372   0.66314   0.67011   0.68204
 Alpha virt. eigenvalues --    0.68535   0.71170   0.73315   0.74112   0.85592
 Alpha virt. eigenvalues --    0.87510   0.90252   1.01332   1.03353   1.09564
 Alpha virt. eigenvalues --    1.10318   1.11639   1.26395   1.31383   1.36885
 Alpha virt. eigenvalues --    1.41391   1.57714   1.60956   1.73136   1.75443
 Alpha virt. eigenvalues --    1.88666   1.90578   1.92771   1.95402   2.06069
 Alpha virt. eigenvalues --    2.09561   2.11385   2.16588   2.18149   2.27151
 Alpha virt. eigenvalues --    2.32786   2.33357   2.39977   2.46722   2.47282
 Alpha virt. eigenvalues --    2.53990   2.62218   2.65719   2.72659   2.88267
 Alpha virt. eigenvalues --    2.88378   2.91350   3.03450   3.05955   3.07484
 Alpha virt. eigenvalues --    3.38076   3.63405
     Molecular Orbital Coefficients:
                           1         2         3         4         5
                           O         O         O         O         O
     Eigenvalues --   -15.54466 -11.24832  -1.17026  -0.89362  -0.66844
   1 1   C  1S         -0.00001   0.99758  -0.09247  -0.15996   0.00000
   2        2S          0.00000   0.02038   0.18020   0.33465   0.00000
   3        3S          0.00705  -0.02588  -0.02856   0.11273   0.00000
   4        4S          0.00212  -0.00813   0.01176   0.02615   0.00000
   5        5PX         0.00000  -0.00001  -0.00594   0.00870   0.00000
   6        5PY        -0.00045  -0.00049  -0.09345   0.07828   0.00000
   7        5PZ         0.00000   0.00000   0.00000   0.00000   0.21713
   8        6PX        -0.00059  -0.00013  -0.01378   0.01206   0.00000
   9        6PY        -0.00791  -0.00398   0.04847   0.04232   0.00000
  10        6PZ         0.00000   0.00000   0.00000   0.00000   0.05846
  11        7PX        -0.00005   0.00000  -0.00059  -0.00439   0.00000
  12        7PY        -0.00143  -0.00052   0.00196  -0.00837   0.00000
  13        7PZ         0.00000   0.00000   0.00000   0.00000   0.01460
  14        8D 0       -0.00001   0.00002  -0.01033   0.00523   0.00000
  15        8D+1        0.00000   0.00000   0.00000   0.00000   0.00951
  16        8D-1        0.00000   0.00000   0.00000   0.00000  -0.01020
  17        8D+2        0.00000  -0.00001  -0.01974   0.00763   0.00000
  18        8D-2       -0.00001   0.00004   0.00318  -0.00257   0.00000
  19        9D 0       -0.00122  -0.00061   0.01463   0.00321   0.00000
  20        9D+1        0.00000   0.00000   0.00000   0.00000  -0.04945
  21        9D-1        0.00000   0.00000   0.00000   0.00000   0.01004
  22        9D+2       -0.00181  -0.00084   0.01465   0.00317   0.00000
  23        9D-2        0.00053   0.00015   0.00314  -0.00547   0.00000
  24 2   N  1S          0.99740  -0.00009  -0.18122   0.07525   0.00000
  25        2S          0.01842   0.00045   0.36611  -0.16974   0.00000
  26        3S         -0.01575  -0.00021   0.32582  -0.10293   0.00000
  27        4S         -0.00562   0.00081  -0.00778  -0.04401   0.00000
  28        5PX        -0.00159   0.00002  -0.05377   0.06077   0.00000
  29        5PY         0.00065   0.00038   0.04419   0.14723   0.00000
  30        5PZ         0.00000   0.00000   0.00000   0.00000   0.39353
  31        6PX         0.00136  -0.00014   0.01982   0.00649   0.00000
  32        6PY        -0.00519  -0.00158   0.11336   0.09412   0.00000
  33        6PZ         0.00000   0.00000   0.00000   0.00000   0.16090
  34        7PX         0.00001  -0.00009   0.00038   0.00856   0.00000
  35        7PY        -0.00088  -0.00050   0.00543   0.00081   0.00000
  36        7PZ         0.00000   0.00000   0.00000   0.00000  -0.00222
  37        8D 0        0.00023   0.00005  -0.00150  -0.00929   0.00000
  38        8D+1        0.00000   0.00000   0.00000   0.00000  -0.02462
  39        8D-1        0.00000   0.00000   0.00000   0.00000  -0.00279
  40        8D+2        0.00010   0.00013  -0.00703  -0.01211   0.00000
  41        8D-2        0.00009   0.00000   0.00012  -0.00412   0.00000
  42        9D 0        0.00041   0.00041  -0.02939   0.00541   0.00000
  43        9D+1        0.00000   0.00000   0.00000   0.00000   0.02490
  44        9D-1        0.00000   0.00000   0.00000   0.00000   0.04051
  45        9D+2        0.00113   0.00059  -0.02032  -0.01041   0.00000
  46        9D-2        0.00015   0.00021  -0.01034  -0.00291   0.00000
  47 3   H  1S         -0.00028   0.00045   0.06653   0.18270   0.00000
  48        2S          0.00091   0.00919  -0.01249   0.05481   0.00000
  49        3S          0.00019   0.00116  -0.00421  -0.00122   0.00000
  50        4PX        -0.00007  -0.00020   0.01070   0.02191   0.00000
  51        4PY         0.00016   0.00013  -0.00436  -0.00591   0.00000
  52        4PZ         0.00000   0.00000   0.00000   0.00000   0.00438
  53        5PX         0.00028   0.00263  -0.00109   0.01445   0.00000
  54        5PY         0.00070  -0.00115   0.00264  -0.01061   0.00000
  55        5PZ         0.00000   0.00000   0.00000   0.00000  -0.02658
  56 4   H  1S         -0.00016   0.00046   0.06216   0.18981   0.14170
  57        2S          0.00117   0.00910   0.00838   0.04180   0.07163
  58        3S          0.00019   0.00105  -0.00106   0.00162  -0.01612
  59        4PX         0.00003   0.00011  -0.00473  -0.01152  -0.00554
  60        4PY         0.00012   0.00011  -0.00526  -0.00537  -0.00265
  61        4PZ         0.00006   0.00020  -0.00874  -0.01998  -0.00483
  62        5PX        -0.00008  -0.00129  -0.00138  -0.00619   0.00912
  63        5PY         0.00024  -0.00118  -0.00566  -0.00245  -0.00679
  64        5PZ        -0.00009  -0.00213  -0.00773  -0.01072  -0.00500
  65 5   H  1S         -0.00016   0.00046   0.06216   0.18981  -0.14170
  66        2S          0.00117   0.00910   0.00838   0.04180  -0.07163
  67        3S          0.00019   0.00105  -0.00106   0.00162   0.01612
  68        4PX         0.00003   0.00011  -0.00473  -0.01152   0.00554
  69        4PY         0.00012   0.00011  -0.00526  -0.00537   0.00265
  70        4PZ        -0.00006  -0.00020   0.00874   0.01998  -0.00483
  71        5PX        -0.00008  -0.00129  -0.00138  -0.00619  -0.00912
  72        5PY         0.00024  -0.00118  -0.00566  -0.00245   0.00679
  73        5PZ         0.00009   0.00213   0.00773   0.01072  -0.00500
  74 6   H  1S          0.00004  -0.00018   0.17773  -0.14186  -0.28537
  75        2S          0.00166  -0.00074   0.04808  -0.00630  -0.11761
  76        3S         -0.00010  -0.00029   0.00315  -0.00073  -0.00471
  77        4PX        -0.00025   0.00002   0.01201  -0.00826  -0.01576
  78        4PY        -0.00009   0.00016   0.00982  -0.00408  -0.00982
  79        4PZ        -0.00048   0.00000   0.02572  -0.01732  -0.01406
  80        5PX         0.00042  -0.00015   0.00709   0.00081  -0.00478
  81        5PY         0.00017  -0.00017   0.00461  -0.00223   0.00651
  82        5PZ         0.00066  -0.00027   0.01233   0.00208  -0.01693
  83 7   H  1S          0.00004  -0.00018   0.17773  -0.14186   0.28537
  84        2S          0.00166  -0.00074   0.04808  -0.00630   0.11761
  85        3S         -0.00010  -0.00029   0.00315  -0.00073   0.00471
  86        4PX        -0.00025   0.00002   0.01201  -0.00826   0.01576
  87        4PY        -0.00009   0.00016   0.00982  -0.00408   0.00982
  88        4PZ         0.00048   0.00000  -0.02572   0.01732  -0.01406
  89        5PX         0.00042  -0.00015   0.00709   0.00081   0.00478
  90        5PY         0.00017  -0.00017   0.00461  -0.00223  -0.00651
  91        5PZ        -0.00066   0.00027  -0.01233  -0.00208  -0.01693
                           6         7         8         9        10
                           O         O         O         O         V
     Eigenvalues --    -0.59778  -0.55549  -0.52287  -0.38559   0.03589
   1 1   C  1S          0.00514  -0.00182   0.00000   0.00846  -0.02457
   2        2S         -0.00822   0.00483   0.00000  -0.01830   0.01451
   3        3S          0.02295   0.04110   0.00000  -0.02278   0.77465
   4        4S          0.02064  -0.05115   0.00000  -0.05021   4.54083
   5        5PX         0.33812  -0.21743   0.00000  -0.16506  -0.01173
   6        5PY        -0.17297  -0.32904   0.00000   0.08447   0.04580
   7        5PZ         0.00000   0.00000   0.37970   0.00000   0.00000
   8        6PX         0.07297  -0.02332   0.00000  -0.05638  -0.06819
   9        6PY        -0.04106  -0.16722   0.00000   0.02958   0.13692
  10        6PZ         0.00000   0.00000   0.06580   0.00000   0.00000
  11        7PX        -0.00565  -0.00397   0.00000  -0.02389  -0.22439
  12        7PY        -0.00286   0.01122   0.00000   0.02455  -0.52009
  13        7PZ         0.00000   0.00000   0.00070   0.00000   0.00000
  14        8D 0        0.00643  -0.02891   0.00000  -0.00895   0.00031
  15        8D+1        0.00000   0.00000   0.02422   0.00000   0.00000
  16        8D-1        0.00000   0.00000   0.02672   0.00000   0.00000
  17        8D+2       -0.02545  -0.02406   0.00000   0.01384   0.00171
  18        8D-2        0.00055  -0.00956   0.00000  -0.03552   0.00178
  19        9D 0       -0.02910   0.02368   0.00000   0.00180   0.00383
  20        9D+1        0.00000   0.00000  -0.03958   0.00000   0.00000
  21        9D-1        0.00000   0.00000  -0.00422   0.00000   0.00000
  22        9D+2        0.02925  -0.01398   0.00000  -0.00698   0.01389
  23        9D-2        0.01379  -0.00459   0.00000  -0.00224  -0.00389
  24 2   N  1S         -0.02934  -0.00274   0.00000  -0.04837  -0.01592
  25        2S          0.06579   0.00637   0.00000   0.10914   0.02858
  26        3S          0.13178   0.03326   0.00000   0.23815   0.14717
  27        4S         -0.00688   0.06817   0.00000   0.16464  -0.86790
  28        5PX         0.23961   0.01924   0.00000   0.48628  -0.02459
  29        5PY         0.15130   0.36971   0.00000  -0.17388  -0.03899
  30        5PZ         0.00000   0.00000  -0.23051   0.00000   0.00000
  31        6PX         0.16321  -0.02396   0.00000   0.36289  -0.04467
  32        6PY         0.08444   0.21264   0.00000  -0.14733  -0.07269
  33        6PZ         0.00000   0.00000  -0.07447   0.00000   0.00000
  34        7PX         0.01897   0.00636   0.00000   0.08893  -0.12306
  35        7PY        -0.01102   0.05266   0.00000  -0.00590  -0.81928
  36        7PZ         0.00000   0.00000  -0.01330   0.00000   0.00000
  37        8D 0       -0.00379  -0.01247   0.00000   0.00539  -0.00084
  38        8D+1        0.00000   0.00000   0.01657   0.00000   0.00000
  39        8D-1        0.00000   0.00000   0.01557   0.00000   0.00000
  40        8D+2       -0.01251  -0.01395   0.00000  -0.00841  -0.00212
  41        8D-2        0.00548  -0.01540   0.00000   0.00222  -0.00002
  42        9D 0        0.01186   0.00300   0.00000   0.01361   0.01429
  43        9D+1        0.00000   0.00000  -0.01096   0.00000   0.00000
  44        9D-1        0.00000   0.00000   0.00495   0.00000   0.00000
  45        9D+2       -0.01492   0.00067   0.00000  -0.00273   0.02203
  46        9D-2        0.01528  -0.01791   0.00000   0.00732   0.00890
  47 3   H  1S         -0.33294   0.09014   0.00000   0.21064   0.01078
  48        2S         -0.24080   0.14406   0.00000   0.21212  -0.60928
  49        3S         -0.00755  -0.00783   0.00000   0.00988  -1.27704
  50        4PX        -0.01851  -0.00038   0.00000   0.00752   0.00063
  51        4PY         0.00522  -0.00999   0.00000  -0.00427   0.00093
  52        4PZ         0.00000   0.00000   0.01133   0.00000   0.00000
  53        5PX        -0.03432   0.03137   0.00000   0.02826  -0.11357
  54        5PY         0.02554  -0.01100   0.00000  -0.00461   0.03054
  55        5PZ         0.00000   0.00000  -0.01449   0.00000   0.00000
  56 4   H  1S          0.08102  -0.19121   0.29869  -0.08137   0.00810
  57        2S          0.05825  -0.14330   0.29633  -0.08202  -0.45886
  58        3S          0.00155  -0.00415   0.00622  -0.00544  -0.46732
  59        4PX         0.00621   0.00164  -0.01169  -0.00299   0.00009
  60        4PY        -0.00670  -0.00148  -0.00954   0.00442   0.00215
  61        4PZ        -0.00545   0.01340  -0.00757   0.00414   0.00086
  62        5PX        -0.01706   0.01950  -0.02149   0.00777   0.04909
  63        5PY        -0.00470   0.01983  -0.02287   0.00090   0.00456
  64        5PZ         0.00417   0.01251  -0.04809   0.00780   0.05902
  65 5   H  1S          0.08102  -0.19121  -0.29869  -0.08137   0.00810
  66        2S          0.05825  -0.14330  -0.29633  -0.08202  -0.45886
  67        3S          0.00155  -0.00415  -0.00622  -0.00544  -0.46732
  68        4PX         0.00621   0.00164   0.01169  -0.00299   0.00009
  69        4PY        -0.00670  -0.00148   0.00954   0.00442   0.00215
  70        4PZ         0.00545  -0.01340  -0.00757  -0.00414  -0.00086
  71        5PX        -0.01706   0.01950   0.02149   0.00777   0.04909
  72        5PY        -0.00470   0.01983   0.02287   0.00090   0.00456
  73        5PZ        -0.00417  -0.01251  -0.04809  -0.00780  -0.05902
  74 6   H  1S         -0.10529  -0.12737   0.19537  -0.09679   0.00019
  75        2S         -0.01837  -0.07263   0.13691  -0.07792  -0.15303
  76        3S         -0.00355   0.00878  -0.00518  -0.00181  -0.83274
  77        4PX         0.00060  -0.00581   0.00935   0.01388   0.00252
  78        4PY         0.00062   0.00721   0.00806  -0.01156  -0.00099
  79        4PZ        -0.01058  -0.01161   0.00778  -0.01130   0.00389
  80        5PX         0.00090  -0.00395   0.00479   0.01352  -0.00653
  81        5PY         0.00801  -0.01650   0.01756  -0.01478   0.00213
  82        5PZ         0.00189  -0.00636   0.01904  -0.00636  -0.01922
  83 7   H  1S         -0.10529  -0.12737  -0.19537  -0.09679   0.00019
  84        2S         -0.01837  -0.07263  -0.13691  -0.07792  -0.15303
  85        3S         -0.00355   0.00878   0.00518  -0.00181  -0.83274
  86        4PX         0.00060  -0.00581  -0.00935   0.01388   0.00252
  87        4PY         0.00062   0.00721  -0.00806  -0.01156  -0.00099
  88        4PZ         0.01058   0.01161   0.00778   0.01130  -0.00389
  89        5PX         0.00090  -0.00395  -0.00479   0.01352  -0.00653
  90        5PY         0.00801  -0.01650  -0.01756  -0.01478   0.00213
  91        5PZ        -0.00189   0.00636   0.01904   0.00636   0.01922
                          11        12        13        14        15
                           V         V         V         V         V
     Eigenvalues --     0.05186   0.05316   0.06142   0.08270   0.11561
   1 1   C  1S         -0.02088   0.00000   0.00291   0.00000  -0.00366
   2        2S          0.01919   0.00000  -0.00492   0.00000   0.02734
   3        3S          0.56115   0.00000  -0.01813   0.00000  -0.11079
   4        4S          2.33435   0.00000  -0.14818   0.00000  -6.05972
   5        5PX         0.01815   0.00000   0.06068   0.00000  -0.01174
   6        5PY         0.00294   0.00000   0.00728   0.00000   0.00900
   7        5PZ         0.00000  -0.04703   0.00000  -0.04311   0.00000
   8        6PX         0.21660   0.00000   0.21830   0.00000   0.07941
   9        6PY         0.33820   0.00000   0.02108   0.00000   0.65833
  10        6PZ         0.00000  -0.39696   0.00000   0.04988   0.00000
  11        7PX         0.62572   0.00000   2.01232   0.00000   0.22314
  12        7PY         0.61111   0.00000  -0.21857   0.00000   4.53817
  13        7PZ         0.00000  -1.33001   0.00000  -1.82739   0.00000
  14        8D 0        0.00628   0.00000   0.00387   0.00000  -0.00424
  15        8D+1        0.00000  -0.00776   0.00000  -0.00176   0.00000
  16        8D-1        0.00000  -0.00369   0.00000  -0.00123   0.00000
  17        8D+2        0.00751   0.00000  -0.00437   0.00000  -0.00438
  18        8D-2       -0.00112   0.00000   0.00012   0.00000  -0.00199
  19        9D 0        0.06358   0.00000  -0.07375   0.00000   0.09042
  20        9D+1        0.00000   0.00921   0.00000   0.13993   0.00000
  21        9D-1        0.00000   0.00012   0.00000  -0.11015   0.00000
  22        9D+2        0.06958   0.00000   0.04716   0.00000   0.12387
  23        9D-2       -0.00685   0.00000   0.07971   0.00000   0.08443
  24 2   N  1S          0.01732   0.00000  -0.01077   0.00000  -0.02774
  25        2S         -0.03217   0.00000   0.01716   0.00000   0.02170
  26        3S         -0.16480   0.00000   0.11663   0.00000   0.54561
  27        4S         -1.56265   0.00000   0.66717   0.00000   7.08604
  28        5PX         0.02533   0.00000   0.00806   0.00000  -0.00090
  29        5PY         0.00016   0.00000  -0.00777   0.00000   0.01657
  30        5PZ         0.00000  -0.04279   0.00000   0.04404   0.00000
  31        6PX         0.08956   0.00000  -0.00503   0.00000  -0.06696
  32        6PY         0.15196   0.00000  -0.03271   0.00000   0.23489
  33        6PZ         0.00000  -0.14722   0.00000   0.12454   0.00000
  34        7PX         0.27834   0.00000  -0.45906   0.00000  -0.06039
  35        7PY         0.43807   0.00000  -0.28663   0.00000   1.97448
  36        7PZ         0.00000  -0.74917   0.00000   1.22195   0.00000
  37        8D 0       -0.00247   0.00000   0.00175   0.00000  -0.00207
  38        8D+1        0.00000   0.00312   0.00000   0.00058   0.00000
  39        8D-1        0.00000   0.00065   0.00000   0.00194   0.00000
  40        8D+2       -0.00288   0.00000   0.00094   0.00000  -0.00014
  41        8D-2        0.00234   0.00000   0.00032   0.00000  -0.00217
  42        9D 0       -0.01684   0.00000  -0.00680   0.00000  -0.01509
  43        9D+1        0.00000   0.01756   0.00000  -0.02235   0.00000
  44        9D-1        0.00000  -0.00237   0.00000  -0.05344   0.00000
  45        9D+2       -0.02111   0.00000  -0.00625   0.00000  -0.07427
  46        9D-2       -0.02764   0.00000   0.03517   0.00000   0.02965
  47 3   H  1S          0.00367   0.00000  -0.01902   0.00000  -0.01953
  48        2S         -0.13570   0.00000   0.26130   0.00000   0.05694
  49        3S          0.00637   0.00000   5.50811   0.00000  -1.40956
  50        4PX        -0.00019   0.00000  -0.00311   0.00000   0.00892
  51        4PY        -0.00199   0.00000   0.00421   0.00000   0.00327
  52        4PZ         0.00000  -0.00135   0.00000  -0.00503   0.00000
  53        5PX        -0.03682   0.00000   0.09710   0.00000  -0.01494
  54        5PY        -0.06003   0.00000   0.02684   0.00000  -0.00611
  55        5PZ         0.00000   0.10300   0.00000   0.15913   0.00000
  56 4   H  1S          0.00293  -0.00794   0.00842  -0.01394  -0.02587
  57        2S         -0.64583   0.52874  -0.11010  -0.18755  -0.37138
  58        3S         -1.99011   2.58105  -2.23742   4.65891  -0.66894
  59        4PX         0.00057  -0.00026   0.00245   0.00434  -0.00398
  60        4PY        -0.00273   0.00161  -0.00189   0.00370   0.00355
  61        4PZ        -0.00059  -0.00158  -0.00300   0.00084  -0.00576
  62        5PX         0.04565  -0.09984  -0.09431  -0.07437   0.05181
  63        5PY         0.02580  -0.09554   0.00834   0.09747  -0.03262
  64        5PZ         0.13726  -0.07495   0.10789   0.05576   0.11351
  65 5   H  1S          0.00293   0.00794   0.00842   0.01394  -0.02587
  66        2S         -0.64583  -0.52874  -0.11010   0.18755  -0.37138
  67        3S         -1.99011  -2.58105  -2.23742  -4.65891  -0.66894
  68        4PX         0.00057   0.00026   0.00245  -0.00434  -0.00398
  69        4PY        -0.00273  -0.00161  -0.00189  -0.00370   0.00355
  70        4PZ         0.00059  -0.00158   0.00300   0.00084   0.00576
  71        5PX         0.04565   0.09984  -0.09431   0.07437   0.05181
  72        5PY         0.02580   0.09554   0.00834  -0.09747  -0.03262
  73        5PZ        -0.13726  -0.07495  -0.10789   0.05576  -0.11351
  74 6   H  1S          0.00335   0.00229  -0.00205  -0.00385  -0.01397
  75        2S          0.48224  -0.46671  -0.17851   0.51859  -0.56418
  76        3S          1.56759  -2.26105  -0.74646   3.37910   1.82992
  77        4PX        -0.00092   0.00003  -0.00233  -0.00493  -0.00062
  78        4PY        -0.00195   0.00043   0.00037  -0.00342  -0.00129
  79        4PZ         0.00126  -0.00288   0.00132  -0.00098  -0.00143
  80        5PX         0.05147  -0.06147   0.01681   0.11702  -0.05245
  81        5PY         0.01260  -0.08955   0.04038   0.03337  -0.05336
  82        5PZ         0.10640  -0.05045  -0.05330   0.12940  -0.05797
  83 7   H  1S          0.00335  -0.00229  -0.00205   0.00385  -0.01397
  84        2S          0.48224   0.46671  -0.17851  -0.51859  -0.56418
  85        3S          1.56759   2.26105  -0.74646  -3.37910   1.82992
  86        4PX        -0.00092  -0.00003  -0.00233   0.00493  -0.00062
  87        4PY        -0.00195  -0.00043   0.00037   0.00342  -0.00129
  88        4PZ        -0.00126  -0.00288  -0.00132  -0.00098   0.00143
  89        5PX         0.05147   0.06147   0.01681  -0.11702  -0.05245
  90        5PY         0.01260   0.08955   0.04038  -0.03337  -0.05336
  91        5PZ        -0.10640  -0.05045   0.05330   0.12940   0.05797
                          16        17        18        19        20
                           V         V         V         V         V
     Eigenvalues --     0.15235   0.15246   0.17129   0.17556   0.19733
   1 1   C  1S         -0.00763   0.00000   0.01269   0.03235   0.02885
   2        2S          0.05893   0.00000  -0.13092  -0.17207  -0.12925
   3        3S         -0.55867   0.00000   1.61449   1.36551   0.72606
   4        4S         -0.48397   0.00000   1.96687  12.14008   0.48017
   5        5PX        -0.09249   0.00000  -0.02137  -0.00164  -0.04116
   6        5PY         0.00515   0.00000  -0.05819  -0.09060   0.06306
   7        5PZ         0.00000  -0.10235   0.00000   0.00000   0.00000
   8        6PX         1.35071   0.00000   0.18251   0.11052   0.55535
   9        6PY        -0.13734   0.00000  -0.09364   0.88578   0.73006
  10        6PZ         0.00000   1.27862   0.00000   0.00000   0.00000
  11        7PX         4.64697   0.00000   2.44426  -0.42345   0.74996
  12        7PY        -0.52725   0.00000   0.53559  -0.32082   1.14980
  13        7PZ         0.00000   5.26771   0.00000   0.00000   0.00000
  14        8D 0       -0.00365   0.00000  -0.00731   0.01264  -0.00095
  15        8D+1        0.00000  -0.00683   0.00000   0.00000   0.00000
  16        8D-1        0.00000   0.00396   0.00000   0.00000   0.00000
  17        8D+2       -0.00169   0.00000   0.00311   0.00817   0.00860
  18        8D-2        0.01327   0.00000  -0.01227   0.01184  -0.00692
  19        9D 0        0.15587   0.00000   0.08298   0.06056   0.24008
  20        9D+1        0.00000   0.21521   0.00000   0.00000   0.00000
  21        9D-1        0.00000   0.23652   0.00000   0.00000   0.00000
  22        9D+2       -0.16158   0.00000   0.01514   0.17528   0.11759
  23        9D-2        0.14334   0.00000   0.10101  -0.04486   0.01859
  24 2   N  1S         -0.00010   0.00000   0.01152   0.00950  -0.03732
  25        2S          0.00662   0.00000  -0.06151  -0.04583   0.12983
  26        3S         -0.10583   0.00000   0.31863   0.11598  -0.19996
  27        4S         -1.58050   0.00000   5.03237  -6.81544  -1.30329
  28        5PX        -0.07255   0.00000   0.12981  -0.06209  -0.03388
  29        5PY         0.00126   0.00000   0.02567   0.06929  -0.05282
  30        5PZ         0.00000  -0.02027   0.00000   0.00000   0.00000
  31        6PX        -0.03357   0.00000  -0.15524   0.09326   0.11513
  32        6PY        -0.02943   0.00000  -0.25732   0.30759   0.38636
  33        6PZ         0.00000  -0.20037   0.00000   0.00000   0.00000
  34        7PX        -0.60587   0.00000  -2.72565   1.26874   0.68514
  35        7PY        -0.97016   0.00000   0.64304  -2.66591   3.06609
  36        7PZ         0.00000  -1.57292   0.00000   0.00000   0.00000
  37        8D 0       -0.00538   0.00000   0.00983  -0.00566   0.00495
  38        8D+1        0.00000  -0.00147   0.00000   0.00000   0.00000
  39        8D-1        0.00000  -0.00342   0.00000   0.00000   0.00000
  40        8D+2        0.00161   0.00000  -0.00049  -0.00098   0.00984
  41        8D-2       -0.00588   0.00000   0.00717  -0.00988   0.00723
  42        9D 0       -0.02547   0.00000   0.04798  -0.01158  -0.06438
  43        9D+1        0.00000   0.02677   0.00000   0.00000   0.00000
  44        9D-1        0.00000   0.02240   0.00000   0.00000   0.00000
  45        9D+2       -0.00497   0.00000   0.09541  -0.02333  -0.05362
  46        9D-2       -0.01240   0.00000   0.02689   0.00873  -0.10968
  47 3   H  1S          0.08281   0.00000   0.03859  -0.03120   0.03209
  48        2S          3.46111   0.00000  -0.78595  -1.24303   0.04220
  49        3S          6.28120   0.00000   1.07022  -1.11665  -0.45877
  50        4PX         0.02962   0.00000  -0.01394  -0.01622  -0.00902
  51        4PY        -0.01020   0.00000  -0.00833   0.01077   0.00088
  52        4PZ         0.00000   0.00601   0.00000   0.00000   0.00000
  53        5PX         0.61923   0.00000  -0.19937  -0.30173   0.03536
  54        5PY        -0.33932   0.00000   0.37602  -0.28363   0.00846
  55        5PZ         0.00000  -0.16850   0.00000   0.00000   0.00000
  56 4   H  1S         -0.03818  -0.07603  -0.02579  -0.01297  -0.00963
  57        2S         -0.81877  -2.47955  -1.51359  -1.42119  -1.67632
  58        3S         -2.55214  -4.75958  -1.35975  -1.63339  -1.46883
  59        4PX         0.00713   0.00665   0.01177   0.01084   0.00588
  60        4PY         0.00377   0.01003   0.00475   0.00801  -0.00047
  61        4PZ         0.00158   0.01808   0.01326   0.02124   0.00839
  62        5PX        -0.04604   0.29828   0.13128   0.12873   0.18907
  63        5PY         0.03817   0.13873   0.20622  -0.14988   0.26527
  64        5PZ         0.19853   0.33579   0.24762   0.31509   0.31091
  65 5   H  1S         -0.03818   0.07603  -0.02579  -0.01297  -0.00963
  66        2S         -0.81877   2.47955  -1.51359  -1.42119  -1.67632
  67        3S         -2.55214   4.75958  -1.35975  -1.63339  -1.46883
  68        4PX         0.00713  -0.00665   0.01177   0.01084   0.00588
  69        4PY         0.00377  -0.01003   0.00475   0.00801  -0.00047
  70        4PZ        -0.00158   0.01808  -0.01326  -0.02124  -0.00839
  71        5PX        -0.04604  -0.29828   0.13128   0.12873   0.18907
  72        5PY         0.03817  -0.13873   0.20622  -0.14988   0.26527
  73        5PZ        -0.19853   0.33579  -0.24762  -0.31509  -0.31091
  74 6   H  1S         -0.00816  -0.02222  -0.01606  -0.00221   0.02589
  75        2S          0.30425  -0.68843  -1.88491   1.10094   1.15120
  76        3S         -0.19902   0.79305  -0.45282  -0.17815   2.03143
  77        4PX         0.00336  -0.00037  -0.01903   0.00728   0.00695
  78        4PY        -0.00644  -0.01020  -0.00774   0.00161   0.01499
  79        4PZ         0.00770  -0.00526  -0.03195   0.00925   0.02064
  80        5PX         0.00348  -0.08035   0.06110  -0.04966   0.22053
  81        5PY         0.15565  -0.01000  -0.21404   0.25376  -0.07041
  82        5PZ         0.04012  -0.11799  -0.24953   0.09812   0.33652
  83 7   H  1S         -0.00816   0.02222  -0.01606  -0.00221   0.02589
  84        2S          0.30425   0.68843  -1.88491   1.10094   1.15120
  85        3S         -0.19902  -0.79305  -0.45282  -0.17815   2.03143
  86        4PX         0.00336   0.00037  -0.01903   0.00728   0.00695
  87        4PY        -0.00644   0.01020  -0.00774   0.00161   0.01499
  88        4PZ        -0.00770  -0.00526   0.03195  -0.00925  -0.02064
  89        5PX         0.00348   0.08035   0.06110  -0.04966   0.22053
  90        5PY         0.15565   0.01000  -0.21404   0.25376  -0.07041
  91        5PZ        -0.04012  -0.11799   0.24953  -0.09812  -0.33652
                          21        22        23        24        25
                           V         V         V         V         V
     Eigenvalues --     0.20987   0.27130   0.29327   0.29710   0.32006
   1 1   C  1S          0.00000  -0.00289   0.00018   0.00000   0.00000
   2        2S          0.00000   0.01794   0.00786   0.00000   0.00000
   3        3S          0.00000  -0.35767  -0.26202   0.00000   0.00000
   4        4S          0.00000  -5.58803  -8.97937   0.00000   0.00000
   5        5PX         0.00000  -0.18049   0.14852   0.00000   0.00000
   6        5PY         0.00000   0.00658   0.02315   0.00000   0.00000
   7        5PZ        -0.10017   0.00000   0.00000   0.20579  -0.10561
   8        6PX         0.00000  -0.33225   0.92984   0.00000   0.00000
   9        6PY         0.00000   0.70528   0.66594   0.00000   0.00000
  10        6PZ         0.67856   0.00000   0.00000   0.81027  -0.76435
  11        7PX         0.00000   1.43131  -0.78818   0.00000   0.00000
  12        7PY         0.00000   2.07999   3.67939   0.00000   0.00000
  13        7PZ        -0.09926   0.00000   0.00000  -1.92180  -0.93332
  14        8D 0        0.00000   0.04872  -0.01921   0.00000   0.00000
  15        8D+1        0.01950   0.00000   0.00000  -0.05771   0.01221
  16        8D-1        0.02022   0.00000   0.00000  -0.00618   0.05458
  17        8D+2        0.00000   0.00765   0.05053   0.00000   0.00000
  18        8D-2        0.00000  -0.01175  -0.01946   0.00000   0.00000
  19        9D 0        0.00000  -0.32327   0.52655   0.00000   0.00000
  20        9D+1        0.03437   0.00000   0.00000   0.68196  -0.26389
  21        9D-1       -0.09202   0.00000   0.00000  -0.42849  -0.56618
  22        9D+2        0.00000   0.40148  -0.13916   0.00000   0.00000
  23        9D-2        0.00000   0.54277   0.20372   0.00000   0.00000
  24 2   N  1S          0.00000   0.03326   0.03218   0.00000   0.00000
  25        2S          0.00000  -0.14195  -0.15864   0.00000   0.00000
  26        3S          0.00000   0.38962   0.60226   0.00000   0.00000
  27        4S          0.00000   6.33504  11.13807   0.00000   0.00000
  28        5PX         0.00000   0.03481  -0.01711   0.00000   0.00000
  29        5PY         0.00000  -0.00618  -0.00600   0.00000   0.00000
  30        5PZ        -0.14297   0.00000   0.00000  -0.14633  -0.15943
  31        6PX         0.00000   0.05427  -0.22653   0.00000   0.00000
  32        6PY         0.00000   0.22957   0.18783   0.00000   0.00000
  33        6PZ         0.43227   0.00000   0.00000  -0.10981  -0.15484
  34        7PX         0.00000  -0.07420   1.13887   0.00000   0.00000
  35        7PY         0.00000   2.02444   4.05329   0.00000   0.00000
  36        7PZ         3.84736   0.00000   0.00000   1.53673  -0.74977
  37        8D 0        0.00000   0.02141  -0.00470   0.00000   0.00000
  38        8D+1        0.00479   0.00000   0.00000  -0.00257  -0.02643
  39        8D-1       -0.01227   0.00000   0.00000   0.02478  -0.02477
  40        8D+2        0.00000   0.00261   0.02399   0.00000   0.00000
  41        8D-2        0.00000  -0.01979   0.00602   0.00000   0.00000
  42        9D 0        0.00000  -0.08181   0.03942   0.00000   0.00000
  43        9D+1       -0.11831   0.00000   0.00000  -0.04597   0.12610
  44        9D-1       -0.08828   0.00000   0.00000  -0.23267  -0.00187
  45        9D+2        0.00000  -0.12937  -0.12766   0.00000   0.00000
  46        9D-2        0.00000   0.18205   0.00985   0.00000   0.00000
  47 3   H  1S          0.00000  -0.05124   0.07373   0.00000   0.00000
  48        2S          0.00000  -0.66310   2.02490   0.00000   0.00000
  49        3S          0.00000   2.29378  -1.94853   0.00000   0.00000
  50        4PX         0.00000   0.00703  -0.01015   0.00000   0.00000
  51        4PY         0.00000   0.00431  -0.00514   0.00000   0.00000
  52        4PZ        -0.00168   0.00000   0.00000   0.00553  -0.00606
  53        5PX         0.00000   0.34687   0.20068   0.00000   0.00000
  54        5PY         0.00000   0.33943  -0.08786   0.00000   0.00000
  55        5PZ        -0.14510   0.00000   0.00000   0.91163  -0.00202
  56 4   H  1S         -0.00906   0.02227  -0.03670  -0.08406   0.10856
  57        2S         -1.14916   0.02966  -1.75355  -1.52892   2.06644
  58        3S         -0.32403  -1.25394   0.30804   2.95350   0.75993
  59        4PX         0.00878  -0.00359   0.00079  -0.00812   0.00374
  60        4PY        -0.00336  -0.01443  -0.01009   0.00754   0.00467
  61        4PZ         0.01028   0.00455  -0.00347  -0.00832   0.00057
  62        5PX         0.19786  -0.37576   0.47476  -0.45310  -0.13455
  63        5PY         0.30043  -0.19442   0.13360   0.33412   0.39184
  64        5PZ         0.25615   0.51570  -0.02031   0.09586  -0.25081
  65 5   H  1S          0.00906   0.02227  -0.03670   0.08406  -0.10856
  66        2S          1.14916   0.02966  -1.75355   1.52892  -2.06644
  67        3S          0.32403  -1.25394   0.30804  -2.95350  -0.75993
  68        4PX        -0.00878  -0.00359   0.00079   0.00812  -0.00374
  69        4PY         0.00336  -0.01443  -0.01009  -0.00754  -0.00467
  70        4PZ         0.01028  -0.00455   0.00347  -0.00832   0.00057
  71        5PX        -0.19786  -0.37576   0.47476   0.45310   0.13455
  72        5PY        -0.30043  -0.19442   0.13360  -0.33412  -0.39184
  73        5PZ         0.25615  -0.51570   0.02031   0.09586  -0.25081
  74 6   H  1S          0.05576   0.05038   0.03974   0.02324  -0.14049
  75        2S          2.49018  -0.28851  -1.17470   0.91685  -0.21802
  76        3S          3.09024   0.47180   1.31303   1.64213  -0.17686
  77        4PX         0.01233  -0.00045  -0.00450   0.00047   0.00955
  78        4PY         0.01446   0.01137  -0.00100  -0.01571  -0.00051
  79        4PZ         0.03433  -0.01210  -0.01392   0.00189  -0.00269
  80        5PX         0.33377   0.03816  -0.50357   0.48997   0.46400
  81        5PY         0.30149  -0.04614  -0.34394  -0.02474   0.50334
  82        5PZ         0.42068  -0.44270  -0.29496   0.44990   0.49056
  83 7   H  1S         -0.05576   0.05038   0.03974  -0.02324   0.14049
  84        2S         -2.49018  -0.28851  -1.17470  -0.91685   0.21802
  85        3S         -3.09024   0.47180   1.31303  -1.64213   0.17686
  86        4PX        -0.01233  -0.00045  -0.00450  -0.00047  -0.00955
  87        4PY        -0.01446   0.01137  -0.00100   0.01571   0.00051
  88        4PZ         0.03433   0.01210   0.01392   0.00189  -0.00269
  89        5PX        -0.33377   0.03816  -0.50357  -0.48997  -0.46400
  90        5PY        -0.30149  -0.04614  -0.34394   0.02474  -0.50334
  91        5PZ         0.42068   0.44270   0.29496   0.44990   0.49056
                          26        27        28        29        30
                           V         V         V         V         V
     Eigenvalues --     0.34661   0.36911   0.40237   0.40427   0.43778
   1 1   C  1S          0.02198  -0.01274   0.00000  -0.01207  -0.10569
   2        2S         -0.03079  -0.00595   0.00000  -0.00314   0.16348
   3        3S          0.38786   0.38158   0.00000   0.66166   1.98532
   4        4S         -4.92020  -1.45306   0.00000  -2.71498   9.96614
   5        5PX        -0.06753  -0.12142   0.00000   0.05127  -0.06901
   6        5PY        -0.13021   0.15701   0.00000  -0.05019  -0.11257
   7        5PZ         0.00000   0.00000  -0.01883   0.00000   0.00000
   8        6PX        -0.36891  -0.27424   0.00000   1.29778  -1.81283
   9        6PY         1.38955  -0.20921   0.00000  -0.97654   1.36063
  10        6PZ         0.00000   0.00000  -1.38829   0.00000   0.00000
  11        7PX        -0.81436  -1.07196   0.00000   1.19976  -1.93573
  12        7PY         2.13405   0.28349   0.00000   0.77151  -0.17039
  13        7PZ         0.00000   0.00000  -1.00024   0.00000   0.00000
  14        8D 0        0.03372  -0.02393   0.00000   0.02692  -0.00284
  15        8D+1        0.00000   0.00000  -0.04137   0.00000   0.00000
  16        8D-1        0.00000   0.00000   0.05715   0.00000   0.00000
  17        8D+2        0.05836  -0.02694   0.00000  -0.03360   0.06100
  18        8D-2        0.02141   0.01378   0.00000  -0.05257  -0.00859
  19        9D 0        0.06710  -0.11362   0.00000  -0.68827   0.19973
  20        9D+1        0.00000   0.00000   0.62119   0.00000   0.00000
  21        9D-1        0.00000   0.00000  -0.86085   0.00000   0.00000
  22        9D+2        0.40285  -0.01354   0.00000   0.14128   0.68587
  23        9D-2       -0.26672  -0.24288   0.00000   1.00643  -0.33899
  24 2   N  1S          0.00181  -0.02859   0.00000   0.00281   0.02708
  25        2S         -0.04639   0.04237   0.00000   0.00695  -0.09568
  26        3S          0.17150   0.39072   0.00000  -0.05615   0.16485
  27        4S          5.78585   6.32526   0.00000   5.15555  -6.00144
  28        5PX        -0.04933   0.00458   0.00000  -0.05676  -0.03028
  29        5PY        -0.18512   0.08538   0.00000   0.01059  -0.18284
  30        5PZ         0.00000   0.00000   0.09265   0.00000   0.00000
  31        6PX        -0.03505  -0.13658   0.00000   0.10526   0.10498
  32        6PY         0.30669  -0.22423   0.00000  -0.30990   0.52071
  33        6PZ         0.00000   0.00000  -0.04021   0.00000   0.00000
  34        7PX         0.24569   0.22380   0.00000  -0.44108   0.85441
  35        7PY         1.15270   1.27127   0.00000   1.98870  -0.24824
  36        7PZ         0.00000   0.00000   1.23902   0.00000   0.00000
  37        8D 0       -0.02471  -0.02249   0.00000  -0.03880  -0.02215
  38        8D+1        0.00000   0.00000   0.02183   0.00000   0.00000
  39        8D-1        0.00000   0.00000  -0.02792   0.00000   0.00000
  40        8D+2        0.00881   0.03177   0.00000   0.00205  -0.03026
  41        8D-2       -0.00650  -0.00980   0.00000   0.01725   0.01406
  42        9D 0        0.03526   0.23144   0.00000   0.36778  -0.07979
  43        9D+1        0.00000   0.00000  -0.21629   0.00000   0.00000
  44        9D-1        0.00000   0.00000   0.06519   0.00000   0.00000
  45        9D+2       -0.18455  -0.08963   0.00000   0.05611  -0.04681
  46        9D-2       -0.01111  -0.04175   0.00000   0.03213  -0.08013
  47 3   H  1S         -0.00516  -0.10512   0.00000   0.00187  -0.01328
  48        2S         -1.30799  -1.77274   0.00000   1.67511  -5.55636
  49        3S         -1.03551  -0.76367   0.00000   0.69481  -2.79068
  50        4PX        -0.00048  -0.01294   0.00000   0.00185  -0.03125
  51        4PY        -0.01471   0.00768   0.00000   0.00278   0.00053
  52        4PZ         0.00000   0.00000   0.01287   0.00000   0.00000
  53        5PX        -0.59827   0.35817   0.00000   1.02044  -0.60394
  54        5PY        -0.47425  -0.11378   0.00000   1.31890  -0.13480
  55        5PZ         0.00000   0.00000   1.08576   0.00000   0.00000
  56 4   H  1S          0.07582  -0.00862  -0.00777   0.00233  -0.05276
  57        2S          0.29808  -0.54452   1.53871  -1.22260  -1.13167
  58        3S          0.21948   0.38036   0.52558  -0.55240  -0.20669
  59        4PX        -0.00234  -0.00124  -0.00653  -0.00610   0.00710
  60        4PY        -0.01650  -0.00017  -0.00145   0.00322  -0.00530
  61        4PZ         0.00184   0.00571   0.00236   0.01025   0.00276
  62        5PX         0.21648  -0.06985  -0.94046  -0.62312   0.21791
  63        5PY        -0.00076   0.70744   0.82606  -0.33185  -0.37095
  64        5PZ         0.41085  -0.09507  -0.53002   0.92930  -0.46924
  65 5   H  1S          0.07582  -0.00862   0.00777   0.00233  -0.05276
  66        2S          0.29808  -0.54452  -1.53871  -1.22260  -1.13167
  67        3S          0.21948   0.38036  -0.52558  -0.55240  -0.20669
  68        4PX        -0.00234  -0.00124   0.00653  -0.00610   0.00710
  69        4PY        -0.01650  -0.00017   0.00145   0.00322  -0.00530
  70        4PZ        -0.00184  -0.00571   0.00236  -0.01025  -0.00276
  71        5PX         0.21648  -0.06985   0.94046  -0.62312   0.21791
  72        5PY        -0.00076   0.70744  -0.82606  -0.33185  -0.37095
  73        5PZ        -0.41085   0.09507  -0.53002  -0.92930   0.46924
  74 6   H  1S         -0.06291  -0.08298   0.01083  -0.03552  -0.00152
  75        2S         -0.55676  -2.02955   0.45596  -1.75429   1.27202
  76        3S          0.65237  -0.22478   0.22121   0.33140   0.33353
  77        4PX        -0.00744  -0.01770  -0.00616  -0.01777   0.00305
  78        4PY        -0.01326  -0.00250   0.00382  -0.00099  -0.00882
  79        4PZ         0.00649  -0.00286   0.00824   0.01306   0.01424
  80        5PX        -0.01976  -0.52283  -0.51612  -0.48018   0.22141
  81        5PY         0.28767  -0.04587   0.54607  -0.75867  -0.33646
  82        5PZ         0.44912   0.05319  -0.40571   0.19905   0.37722
  83 7   H  1S         -0.06291  -0.08298  -0.01083  -0.03552  -0.00152
  84        2S         -0.55676  -2.02955  -0.45596  -1.75429   1.27202
  85        3S          0.65237  -0.22478  -0.22121   0.33140   0.33353
  86        4PX        -0.00744  -0.01770   0.00616  -0.01777   0.00305
  87        4PY        -0.01326  -0.00250  -0.00382  -0.00099  -0.00882
  88        4PZ        -0.00649   0.00286   0.00824  -0.01306  -0.01424
  89        5PX        -0.01976  -0.52283   0.51612  -0.48018   0.22141
  90        5PY         0.28767  -0.04587  -0.54607  -0.75867  -0.33646
  91        5PZ        -0.44912  -0.05319  -0.40571  -0.19905  -0.37722
                          31        32        33        34        35
                           V         V         V         V         V
     Eigenvalues --     0.44934   0.45030   0.48063   0.49184   0.53187
   1 1   C  1S          0.00000  -0.04002  -0.01717   0.00000  -0.03720
   2        2S          0.00000   0.10065  -0.02748   0.00000   0.01337
   3        3S          0.00000   0.17907   1.64407   0.00000   1.57023
   4        4S          0.00000   7.92426  -1.05925   0.00000  -6.62555
   5        5PX         0.00000   0.10994   0.03862   0.00000   0.00703
   6        5PY         0.00000   0.04582   0.11679   0.00000  -0.22822
   7        5PZ        -0.18893   0.00000   0.00000  -0.02686   0.00000
   8        6PX         0.00000   3.13152  -0.83143   0.00000   2.27634
   9        6PY         0.00000   1.94570   0.99388   0.00000  -1.39217
  10        6PZ        -3.37996   0.00000   0.00000  -1.24044   0.00000
  11        7PX         0.00000   3.03724   0.71852   0.00000   1.17679
  12        7PY         0.00000  -0.29685   0.72682   0.00000   1.32225
  13        7PZ        -3.99432   0.00000   0.00000  -0.47868   0.00000
  14        8D 0        0.00000   0.07213   0.00249   0.00000   0.00612
  15        8D+1       -0.05779   0.00000   0.00000  -0.00501   0.00000
  16        8D-1       -0.02710   0.00000   0.00000  -0.00686   0.00000
  17        8D+2        0.00000   0.00836   0.00241   0.00000  -0.01364
  18        8D-2        0.00000   0.03384  -0.01049   0.00000   0.00909
  19        9D 0        0.00000   0.68137  -0.12947   0.00000   0.73883
  20        9D+1       -0.41687   0.00000   0.00000  -0.25079   0.00000
  21        9D-1       -0.71639   0.00000   0.00000  -0.16508   0.00000
  22        9D+2        0.00000   0.34577   0.04101   0.00000  -0.41454
  23        9D-2        0.00000   0.08734   0.61281   0.00000   0.22964
  24 2   N  1S          0.00000  -0.00459  -0.04221   0.00000   0.03681
  25        2S          0.00000  -0.04182   0.04739   0.00000  -0.02622
  26        3S          0.00000   0.37762   0.72772   0.00000  -0.74095
  27        4S          0.00000  -6.04688   9.07564   0.00000   7.95654
  28        5PX         0.00000   0.06101  -0.25264   0.00000  -0.05534
  29        5PY         0.00000  -0.13914   0.01054   0.00000  -0.01993
  30        5PZ         0.03239   0.00000   0.00000  -0.09473   0.00000
  31        6PX         0.00000   0.26989  -0.85487   0.00000  -0.60457
  32        6PY         0.00000   0.42242  -0.07467   0.00000  -0.02643
  33        6PZ         0.23747   0.00000   0.00000  -0.12118   0.00000
  34        7PX         0.00000  -0.59613  -2.71888   0.00000  -0.27978
  35        7PY         0.00000  -2.02888   0.74620   0.00000   4.28615
  36        7PZ         1.21923   0.00000   0.00000  -1.58857   0.00000
  37        8D 0        0.00000   0.00993   0.02698   0.00000  -0.01434
  38        8D+1       -0.01657   0.00000   0.00000   0.02217   0.00000
  39        8D-1        0.02596   0.00000   0.00000   0.00537   0.00000
  40        8D+2        0.00000  -0.00200  -0.00237   0.00000  -0.02302
  41        8D-2        0.00000  -0.00197  -0.02165   0.00000  -0.00323
  42        9D 0        0.00000  -0.16166  -0.12743   0.00000  -0.02149
  43        9D+1        0.00178   0.00000   0.00000  -0.08599   0.00000
  44        9D-1       -0.20865   0.00000   0.00000  -0.01265   0.00000
  45        9D+2        0.00000  -0.16749   0.09838   0.00000   0.04079
  46        9D-2        0.00000  -0.04491   0.25991   0.00000  -0.12353
  47 3   H  1S          0.00000  -0.06548  -0.03626   0.00000  -0.04201
  48        2S          0.00000   3.24730  -2.60154   0.00000   3.56678
  49        3S          0.00000   2.20586  -0.18859   0.00000   0.56751
  50        4PX         0.00000   0.02523  -0.01331   0.00000   0.00676
  51        4PY         0.00000  -0.01573   0.00400   0.00000  -0.00635
  52        4PZ         0.00491   0.00000   0.00000   0.02206   0.00000
  53        5PX         0.00000   0.82068  -0.55162   0.00000   0.45667
  54        5PY         0.00000  -1.10282   1.18599   0.00000  -0.22881
  55        5PZ         0.88516   0.00000   0.00000  -0.80147   0.00000
  56 4   H  1S         -0.03910  -0.01036  -0.00969  -0.00382   0.02887
  57        2S          5.01096  -3.77402  -1.16119   2.25612  -2.73328
  58        3S          2.63651  -2.02646  -0.01258   0.46782  -0.49175
  59        4PX        -0.01720   0.00756   0.00184   0.01623   0.00469
  60        4PY        -0.00595   0.00267  -0.00065   0.00123  -0.01373
  61        4PZ        -0.02256   0.02249   0.00561  -0.01465   0.00645
  62        5PX        -0.72041  -0.36055   0.11383  -1.12725   0.11637
  63        5PY        -0.12373  -0.12803  -0.35342  -0.40137   1.41048
  64        5PZ        -0.51004   0.56961   0.12348   0.02681   0.45492
  65 5   H  1S          0.03910  -0.01036  -0.00969   0.00382   0.02887
  66        2S         -5.01096  -3.77402  -1.16119  -2.25612  -2.73328
  67        3S         -2.63651  -2.02646  -0.01258  -0.46782  -0.49175
  68        4PX         0.01720   0.00756   0.00184  -0.01623   0.00469
  69        4PY         0.00595   0.00267  -0.00065  -0.00123  -0.01373
  70        4PZ        -0.02256  -0.02249  -0.00561  -0.01465  -0.00645
  71        5PX         0.72041  -0.36055   0.11383   1.12725   0.11637
  72        5PY         0.12373  -0.12803  -0.35342   0.40137   1.41048
  73        5PZ        -0.51004  -0.56961  -0.12348   0.02681  -0.45492
  74 6   H  1S          0.02076   0.01540  -0.04822   0.01193  -0.04333
  75        2S          1.04314   1.45476  -3.37971   0.40668  -1.22045
  76        3S         -0.81536   0.00234  -0.50196  -0.89408   0.89977
  77        4PX         0.00616   0.00319  -0.00652   0.00684  -0.00079
  78        4PY        -0.00278  -0.00944   0.00210   0.00065  -0.00223
  79        4PZ         0.00727  -0.00029  -0.03528  -0.01747  -0.00085
  80        5PX         0.38141   0.23315   0.82173  -0.43901   0.39253
  81        5PY        -0.54867   0.78339   0.08559   0.02297  -1.08559
  82        5PZ         0.18340   0.29284  -0.27370   1.18559  -0.11990
  83 7   H  1S         -0.02076   0.01540  -0.04822  -0.01193  -0.04333
  84        2S         -1.04314   1.45476  -3.37971  -0.40668  -1.22045
  85        3S          0.81536   0.00234  -0.50196   0.89408   0.89977
  86        4PX        -0.00616   0.00319  -0.00652  -0.00684  -0.00079
  87        4PY         0.00278  -0.00944   0.00210  -0.00065  -0.00223
  88        4PZ         0.00727   0.00029   0.03528  -0.01747   0.00085
  89        5PX        -0.38141   0.23315   0.82173   0.43901   0.39253
  90        5PY         0.54867   0.78339   0.08559  -0.02297  -1.08559
  91        5PZ         0.18340  -0.29284   0.27370   1.18559   0.11990
                          36        37        38        39        40
                           V         V         V         V         V
     Eigenvalues --     0.54190   0.57778   0.57833   0.62015   0.62981
   1 1   C  1S          0.00000   0.00000  -0.10693  -0.06725   0.00000
   2        2S          0.00000   0.00000  -0.13975  -0.07560   0.00000
   3        3S          0.00000   0.00000   9.49500   4.74830   0.00000
   4        4S          0.00000   0.00000   5.27360  -2.95039   0.00000
   5        5PX         0.00000   0.00000   0.02272  -0.15195   0.00000
   6        5PY         0.00000   0.00000   0.21392  -0.15497   0.00000
   7        5PZ         0.06501  -0.03728   0.00000   0.00000   0.30799
   8        6PX         0.00000   0.00000   0.45668   2.11040   0.00000
   9        6PY         0.00000   0.00000   2.57383  -2.09221   0.00000
  10        6PZ         2.58364  -1.28395   0.00000   0.00000  -2.12584
  11        7PX         0.00000   0.00000   0.12833  -0.29884   0.00000
  12        7PY         0.00000   0.00000   0.86581   0.66439   0.00000
  13        7PZ         0.36057  -0.06363   0.00000   0.00000   1.01482
  14        8D 0        0.00000   0.00000   0.01507  -0.01788   0.00000
  15        8D+1        0.02122   0.00172   0.00000   0.00000   0.00713
  16        8D-1        0.02167  -0.00679   0.00000   0.00000   0.00004
  17        8D+2        0.00000   0.00000   0.01618  -0.02164   0.00000
  18        8D-2        0.00000   0.00000   0.00132   0.00941   0.00000
  19        9D 0        0.00000   0.00000  -0.45403   1.42763   0.00000
  20        9D+1        0.26398   0.09860   0.00000   0.00000  -2.91235
  21        9D-1       -1.05027  -0.67692   0.00000   0.00000  -1.06740
  22        9D+2        0.00000   0.00000  -0.52757  -0.54882   0.00000
  23        9D-2        0.00000   0.00000  -0.14996   0.82707   0.00000
  24 2   N  1S          0.00000   0.00000  -0.01405  -0.04122   0.00000
  25        2S          0.00000   0.00000   0.04323  -0.00369   0.00000
  26        3S          0.00000   0.00000  -0.12939   1.82125   0.00000
  27        4S          0.00000   0.00000  -2.07661   7.09319   0.00000
  28        5PX         0.00000   0.00000   0.06146  -0.00466   0.00000
  29        5PY         0.00000   0.00000   0.12070  -0.17605   0.00000
  30        5PZ         0.16550  -0.08005   0.00000   0.00000   0.00633
  31        6PX         0.00000   0.00000   0.12007  -0.16921   0.00000
  32        6PY         0.00000   0.00000   0.21260  -1.51479   0.00000
  33        6PZ         0.89747  -0.35584   0.00000   0.00000   0.48376
  34        7PX         0.00000   0.00000   0.68586  -0.18465   0.00000
  35        7PY         0.00000   0.00000  -0.08554   0.95731   0.00000
  36        7PZ         3.06295  -1.39940   0.00000   0.00000  -0.84364
  37        8D 0        0.00000   0.00000  -0.00982   0.00821   0.00000
  38        8D+1       -0.02845   0.03062   0.00000   0.00000  -0.00751
  39        8D-1        0.03263   0.02658   0.00000   0.00000   0.00446
  40        8D+2        0.00000   0.00000  -0.00656  -0.00174   0.00000
  41        8D-2        0.00000   0.00000  -0.00075  -0.00805   0.00000
  42        9D 0        0.00000   0.00000   0.11751   0.01209   0.00000
  43        9D+1       -0.07275  -0.04325   0.00000   0.00000   0.12189
  44        9D-1       -0.51787  -0.25666   0.00000   0.00000   0.31032
  45        9D+2        0.00000   0.00000   0.08223   0.07653   0.00000
  46        9D-2        0.00000   0.00000  -0.02373   0.06289   0.00000
  47 3   H  1S          0.00000   0.00000  -0.00784  -0.05088   0.00000
  48        2S          0.00000   0.00000  -3.39214   5.60366   0.00000
  49        3S          0.00000   0.00000  -0.64616  -0.61315   0.00000
  50        4PX         0.00000   0.00000  -0.00052  -0.00687   0.00000
  51        4PY         0.00000   0.00000   0.01168  -0.02101   0.00000
  52        4PZ         0.01907  -0.00926   0.00000   0.00000   0.02410
  53        5PX         0.00000   0.00000  -1.89112   2.08112   0.00000
  54        5PY         0.00000   0.00000  -0.47395   0.99644   0.00000
  55        5PZ        -0.95826   0.70099   0.00000   0.00000  -1.72114
  56 4   H  1S         -0.02443   0.01498  -0.03554   0.07686  -0.17708
  57        2S         -2.26622   3.12259  -3.98504  -4.61021   6.95810
  58        3S         -0.52537   0.14036  -1.10020   0.31610  -1.47332
  59        4PX         0.01155  -0.01874   0.00432  -0.01985  -0.01526
  60        4PY         0.00552  -0.00122   0.00920   0.00533  -0.02385
  61        4PZ         0.01127   0.01695   0.00531   0.01341   0.00617
  62        5PX        -0.08700   0.05718   0.81132   1.87699   0.10538
  63        5PY         1.70112   0.23322   0.06015   1.08741  -0.50055
  64        5PZ         0.08389  -1.78335   1.80212   0.90817  -2.03655
  65 5   H  1S          0.02443  -0.01498  -0.03554   0.07686   0.17708
  66        2S          2.26622  -3.12259  -3.98504  -4.61021  -6.95810
  67        3S          0.52537  -0.14036  -1.10020   0.31610   1.47332
  68        4PX        -0.01155   0.01874   0.00432  -0.01985   0.01526
  69        4PY        -0.00552   0.00122   0.00920   0.00533   0.02385
  70        4PZ         0.01127   0.01695  -0.00531  -0.01341   0.00617
  71        5PX         0.08700  -0.05718   0.81132   1.87699  -0.10538
  72        5PY        -1.70112  -0.23322   0.06015   1.08741   0.50055
  73        5PZ         0.08389  -1.78335  -1.80212  -0.90817  -2.03655
  74 6   H  1S          0.03435   0.03557   0.01120  -0.07956   0.08066
  75        2S          4.65539   0.88670   0.82643  -3.21081   2.12330
  76        3S          1.62055  -0.77158   0.42702  -0.19181  -0.43704
  77        4PX         0.01666   0.00869   0.00412   0.00437   0.01479
  78        4PY        -0.01011  -0.00759  -0.00153  -0.00140  -0.00764
  79        4PZ         0.01678  -0.02439   0.01419  -0.01540   0.00574
  80        5PX         0.87135  -0.54977  -0.14243  -0.82742   0.10909
  81        5PY        -0.13475  -0.42449  -0.00887  -0.26684   1.37052
  82        5PZ         1.08051   1.56895   0.01297  -1.02825   0.86376
  83 7   H  1S         -0.03435  -0.03557   0.01120  -0.07956  -0.08066
  84        2S         -4.65539  -0.88670   0.82643  -3.21081  -2.12330
  85        3S         -1.62055   0.77158   0.42702  -0.19181   0.43704
  86        4PX        -0.01666  -0.00869   0.00412   0.00437  -0.01479
  87        4PY         0.01011   0.00759  -0.00153  -0.00140   0.00764
  88        4PZ         0.01678  -0.02439  -0.01419   0.01540   0.00574
  89        5PX        -0.87135   0.54977  -0.14243  -0.82742  -0.10909
  90        5PY         0.13475   0.42449  -0.00887  -0.26684  -1.37052
  91        5PZ         1.08051   1.56895  -0.01297   1.02825   0.86376
                          41        42        43        44        45
                           V         V         V         V         V
     Eigenvalues --     0.63372   0.66314   0.67011   0.68204   0.68535
   1 1   C  1S          0.01355   0.00000   0.00073   0.00000   0.06966
   2        2S          0.05126   0.00000   0.04500   0.00000  -0.02035
   3        3S         -1.54909   0.00000  -0.75316   0.00000  -5.22918
   4        4S          0.81303   0.00000   0.26056   0.00000  -1.16151
   5        5PX        -0.22045   0.00000   0.16517   0.00000  -0.14762
   6        5PY         0.04311   0.00000  -0.03658   0.00000   0.18623
   7        5PZ         0.00000  -0.05143   0.00000  -0.02153   0.00000
   8        6PX         0.36891   0.00000   7.35578   0.00000   3.63755
   9        6PY         1.55570   0.00000   0.67826   0.00000  -0.74041
  10        6PZ         0.00000  -7.97017   0.00000   1.25054   0.00000
  11        7PX        -1.10530   0.00000   1.11337   0.00000  -0.46185
  12        7PY         0.06717   0.00000  -0.22475   0.00000   0.89610
  13        7PZ         0.00000  -0.88381   0.00000  -0.68198   0.00000
  14        8D 0        0.00934   0.00000   0.00755   0.00000   0.00049
  15        8D+1        0.00000  -0.00327   0.00000   0.01332   0.00000
  16        8D-1        0.00000  -0.01482   0.00000   0.02674   0.00000
  17        8D+2        0.03481   0.00000   0.01613   0.00000  -0.01422
  18        8D-2        0.00628   0.00000   0.00941   0.00000   0.01301
  19        9D 0        1.31600   0.00000   0.03807   0.00000   1.01326
  20        9D+1        0.00000  -0.95162   0.00000   0.10991   0.00000
  21        9D-1        0.00000  -0.56907   0.00000   0.25439   0.00000
  22        9D+2       -1.23806   0.00000  -0.12252   0.00000  -1.83208
  23        9D-2        0.56726   0.00000   0.49870   0.00000  -0.12103
  24 2   N  1S          0.05463   0.00000   0.02575   0.00000  -0.08265
  25        2S          0.01696   0.00000  -0.00276   0.00000   0.03559
  26        3S         -2.44881   0.00000  -1.12015   0.00000   2.89436
  27        4S         -3.35981   0.00000  -1.49976   0.00000   1.30954
  28        5PX         0.13243   0.00000  -0.00421   0.00000  -0.01433
  29        5PY         0.08324   0.00000   0.00523   0.00000   0.11219
  30        5PZ         0.00000   0.08603   0.00000   0.16139   0.00000
  31        6PX         0.88048   0.00000  -0.01337   0.00000  -0.86032
  32        6PY         1.08938   0.00000   0.44035   0.00000  -0.31843
  33        6PZ         0.00000   1.22398   0.00000   2.73631   0.00000
  34        7PX         0.76640   0.00000  -0.45749   0.00000   0.64632
  35        7PY         0.54041   0.00000   0.01007   0.00000   0.71127
  36        7PZ         0.00000   0.40227   0.00000   1.31978   0.00000
  37        8D 0       -0.00561   0.00000  -0.00451   0.00000   0.00163
  38        8D+1        0.00000  -0.00611   0.00000  -0.02432   0.00000
  39        8D-1        0.00000   0.00387   0.00000  -0.02005   0.00000
  40        8D+2       -0.01319   0.00000  -0.00084   0.00000  -0.01050
  41        8D-2       -0.02208   0.00000  -0.01287   0.00000   0.01417
  42        9D 0       -0.11974   0.00000  -0.22120   0.00000   0.16832
  43        9D+1        0.00000   0.12159   0.00000  -0.41516   0.00000
  44        9D-1        0.00000   0.06362   0.00000  -0.15801   0.00000
  45        9D+2       -0.12729   0.00000  -0.10908   0.00000   0.37834
  46        9D-2       -0.02538   0.00000  -0.00323   0.00000  -0.26713
  47 3   H  1S         -0.15211   0.00000   0.09541   0.00000  -0.04587
  48        2S          3.68446   0.00000  14.09232   0.00000  11.02506
  49        3S         -1.69433   0.00000   1.29639   0.00000  -0.72716
  50        4PX        -0.00122   0.00000  -0.02158   0.00000   0.01323
  51        4PY        -0.02524   0.00000  -0.01205   0.00000   0.01395
  52        4PZ         0.00000   0.02036   0.00000  -0.02694   0.00000
  53        5PX         1.02696   0.00000   6.05497   0.00000   3.43517
  54        5PY        -0.20715   0.00000  -1.76701   0.00000  -3.23172
  55        5PZ         0.00000  -0.75746   0.00000   1.07678   0.00000
  56 4   H  1S          0.02515   0.04614  -0.07289   0.01726   0.06188
  57        2S         -1.71541  13.91356  -6.97413  -2.19184  -1.64404
  58        3S          0.52409   0.85276  -0.60628   0.65600   0.18127
  59        4PX        -0.02145   0.00050  -0.01598   0.00248  -0.01051
  60        4PY         0.00681  -0.01116  -0.00520   0.02027   0.04791
  61        4PZ         0.01324   0.00884  -0.00432  -0.00343   0.01251
  62        5PX         1.54340  -2.67727   1.74854   0.58885   1.07402
  63        5PY        -0.61411  -1.99019   0.76689  -0.39457  -0.71261
  64        5PZ        -0.21744  -4.80134   2.50286   1.01802  -0.02836
  65 5   H  1S          0.02515  -0.04614  -0.07289  -0.01726   0.06188
  66        2S         -1.71541 -13.91356  -6.97413   2.19184  -1.64404
  67        3S          0.52409  -0.85276  -0.60628  -0.65600   0.18127
  68        4PX        -0.02145  -0.00050  -0.01598  -0.00248  -0.01051
  69        4PY         0.00681   0.01116  -0.00520  -0.02027   0.04791
  70        4PZ        -0.01324   0.00884   0.00432  -0.00343  -0.01251
  71        5PX         1.54340   2.67727   1.74854  -0.58885   1.07402
  72        5PY        -0.61411   1.99019   0.76689   0.39457  -0.71261
  73        5PZ         0.21744  -4.80134  -2.50286   1.01802   0.02836
  74 6   H  1S          0.04770   0.09337  -0.00449   0.04194  -0.09103
  75        2S          2.56229   2.71883   1.24708   8.39191  -2.59008
  76        3S          0.61310   0.24420   0.09061   0.90114   0.20280
  77        4PX         0.01681  -0.00398  -0.00875   0.03678  -0.00281
  78        4PY         0.00165  -0.00240  -0.00045   0.02115   0.01407
  79        4PZ         0.00765   0.01412   0.01464   0.02160  -0.01658
  80        5PX         0.51920   1.15021   0.85527   0.95149  -0.58981
  81        5PY         0.23190   0.83855   0.31265   1.27885  -1.91487
  82        5PZ         1.15069   0.75036   0.15336   3.69409  -1.05467
  83 7   H  1S          0.04770  -0.09337  -0.00449  -0.04194  -0.09103
  84        2S          2.56229  -2.71883   1.24708  -8.39191  -2.59008
  85        3S          0.61310  -0.24420   0.09061  -0.90114   0.20280
  86        4PX         0.01681   0.00398  -0.00875  -0.03678  -0.00281
  87        4PY         0.00165   0.00240  -0.00045  -0.02115   0.01407
  88        4PZ        -0.00765   0.01412  -0.01464   0.02160   0.01658
  89        5PX         0.51920  -1.15021   0.85527  -0.95149  -0.58981
  90        5PY         0.23190  -0.83855   0.31265  -1.27885  -1.91487
  91        5PZ        -1.15069   0.75036  -0.15336   3.69409   1.05467
                          46        47        48        49        50
                           V         V         V         V         V
     Eigenvalues --     0.71170   0.73315   0.74112   0.85592   0.87510
   1 1   C  1S          0.00000  -0.00497   0.05597   0.03384   0.00000
   2        2S          0.00000   0.06735  -0.08571   0.10495   0.00000
   3        3S          0.00000  -3.37493   0.21741  -3.39807   0.00000
   4        4S          0.00000  -2.33886  -0.20880  -3.09454   0.00000
   5        5PX         0.00000   0.04283   0.03807   0.20958   0.00000
   6        5PY         0.00000  -0.16205   0.27787  -0.15695   0.00000
   7        5PZ         0.06349   0.00000   0.00000   0.00000  -0.00696
[...]
  91        5PZ         0.00000   0.00006   0.00000   0.00000   0.00000
                          61        62        63        64        65
  61        4PZ         0.00157
  62        5PX         0.00000   0.00264
  63        5PY         0.00000   0.00000   0.00205
  64        5PZ         0.00079   0.00000   0.00000   0.00550
  65 5   H  1S          0.00071   0.00000   0.00000  -0.00812   0.39787
  66        2S          0.00026   0.00000   0.00000  -0.01322   0.19986
  67        3S          0.00001   0.00000   0.00000  -0.00005   0.00071
  68        4PX         0.00000  -0.00005   0.00000   0.00000   0.00000
  69        4PY         0.00000   0.00000  -0.00005   0.00000   0.00000
  70        4PZ         0.00014   0.00000   0.00000   0.00003   0.00000
  71        5PX         0.00000   0.00020   0.00000   0.00000   0.00000
  72        5PY         0.00000   0.00000  -0.00010   0.00000   0.00000
  73        5PZ         0.00003   0.00000   0.00000  -0.00104   0.00000
  74 6   H  1S          0.00000   0.00042   0.00064   0.00103  -0.00016
  75        2S          0.00007   0.00101   0.00153   0.00240  -0.00071
  76        3S         -0.00001  -0.00004  -0.00011  -0.00009   0.00016
  77        4PX         0.00000   0.00000   0.00001   0.00001  -0.00001
  78        4PY         0.00000   0.00001   0.00000   0.00003  -0.00003
  79        4PZ         0.00000   0.00001   0.00003   0.00002   0.00000
  80        5PX         0.00000  -0.00002   0.00005   0.00004  -0.00008
  81        5PY         0.00004   0.00022   0.00026   0.00051  -0.00050
  82        5PZ         0.00001   0.00016   0.00023   0.00012   0.00000
  83 7   H  1S          0.00000  -0.00106   0.00009  -0.00006   0.00004
  84        2S          0.00000  -0.00080  -0.00050  -0.00009   0.00310
  85        3S          0.00000  -0.00003  -0.00001   0.00000  -0.00102
  86        4PX         0.00000   0.00001   0.00001   0.00000   0.00000
  87        4PY         0.00000  -0.00005  -0.00005   0.00000   0.00000
  88        4PZ         0.00000   0.00000   0.00000   0.00000   0.00000
  89        5PX         0.00000   0.00004   0.00002   0.00000   0.00006
  90        5PY         0.00000   0.00013  -0.00003  -0.00002   0.00134
  91        5PZ         0.00002   0.00001   0.00000  -0.00029   0.00061
                          66        67        68        69        70
  66        2S          0.25100
  67        3S          0.00267   0.00070
  68        4PX         0.00000   0.00000   0.00075
  69        4PY         0.00000   0.00000   0.00000   0.00044
  70        4PZ         0.00000   0.00000   0.00000   0.00000   0.00157
  71        5PX         0.00000   0.00000   0.00017   0.00000   0.00000
  72        5PY         0.00000   0.00000   0.00000   0.00027   0.00000
  73        5PZ         0.00000   0.00000   0.00000   0.00000   0.00079
  74 6   H  1S         -0.00421  -0.00185  -0.00001  -0.00002   0.00000
  75        2S         -0.00956  -0.00185  -0.00005  -0.00009   0.00000
  76        3S          0.00048  -0.00012   0.00000   0.00001   0.00000
  77        4PX        -0.00014  -0.00001   0.00000   0.00000   0.00000
  78        4PY        -0.00026  -0.00001   0.00000   0.00000   0.00000
  79        4PZ         0.00000   0.00000   0.00000   0.00000   0.00000
  80        5PX        -0.00052  -0.00003   0.00000  -0.00001   0.00000
  81        5PY        -0.00128   0.00006  -0.00005  -0.00002   0.00000
  82        5PZ         0.00006   0.00000   0.00000   0.00000   0.00002
  83 7   H  1S          0.00367   0.00162   0.00000   0.00000   0.00000
  84        2S          0.01481   0.00230   0.00002   0.00006   0.00007
  85        3S         -0.00217   0.00001   0.00000   0.00000  -0.00001
  86        4PX         0.00002   0.00001   0.00000   0.00000   0.00000
  87        4PY         0.00007   0.00001   0.00000   0.00000   0.00000
  88        4PZ         0.00011   0.00001   0.00000   0.00000   0.00000
  89        5PX         0.00012   0.00001   0.00000   0.00000   0.00000
  90        5PY         0.00368   0.00005   0.00001   0.00002   0.00004
  91        5PZ         0.00187   0.00012   0.00001   0.00002   0.00001
                          71        72        73        74        75
  71        5PX         0.00264
  72        5PY         0.00000   0.00205
  73        5PZ         0.00000   0.00000   0.00550
  74 6   H  1S         -0.00106   0.00009  -0.00006   0.41598
  75        2S         -0.00080  -0.00050  -0.00009   0.12119   0.09323
  76        3S         -0.00003  -0.00001   0.00000   0.00026  -0.00061
  77        4PX         0.00001   0.00001   0.00000   0.00000   0.00000
  78        4PY        -0.00005  -0.00005   0.00000   0.00000   0.00000
  79        4PZ         0.00000   0.00000   0.00000   0.00000   0.00000
  80        5PX         0.00004   0.00002   0.00000   0.00000   0.00000
  81        5PY         0.00013  -0.00003  -0.00002   0.00000   0.00000
  82        5PZ         0.00001   0.00000  -0.00029   0.00000   0.00000
  83 7   H  1S          0.00042   0.00064   0.00103  -0.00519  -0.01694
  84        2S          0.00101   0.00153   0.00240  -0.01694  -0.02043
  85        3S         -0.00004  -0.00011  -0.00009  -0.00011  -0.00013
  86        4PX         0.00000   0.00001   0.00001   0.00000   0.00000
  87        4PY         0.00001   0.00000   0.00003   0.00000   0.00000
  88        4PZ         0.00001   0.00003   0.00002   0.00115   0.00018
  89        5PX        -0.00002   0.00005   0.00004   0.00000   0.00000
  90        5PY         0.00022   0.00026   0.00051   0.00000   0.00000
  91        5PZ         0.00016   0.00023   0.00012  -0.00494  -0.00354
                          76        77        78        79        80
  76        3S          0.00031
  77        4PX         0.00000   0.00155
  78        4PY         0.00000   0.00000   0.00092
  79        4PZ         0.00000   0.00000   0.00000   0.00319
  80        5PX         0.00000   0.00038   0.00000   0.00000   0.00059
  81        5PY         0.00000   0.00000   0.00018   0.00000   0.00000
  82        5PZ         0.00000   0.00000   0.00000   0.00074   0.00000
  83 7   H  1S         -0.00011   0.00000   0.00000   0.00115   0.00000
  84        2S         -0.00013   0.00000   0.00000   0.00018   0.00000
  85        3S          0.00009   0.00000   0.00000   0.00000   0.00000
  86        4PX         0.00000   0.00001   0.00000   0.00000   0.00005
  87        4PY         0.00000   0.00000   0.00001   0.00000   0.00000
  88        4PZ         0.00000   0.00000   0.00000   0.00038   0.00000
  89        5PX         0.00000   0.00005   0.00000   0.00000   0.00021
  90        5PY         0.00000   0.00000   0.00001   0.00000   0.00000
  91        5PZ         0.00000   0.00000   0.00000   0.00001   0.00000
                          81        82        83        84        85
  81        5PY         0.00186
  82        5PZ         0.00000   0.00178
  83 7   H  1S          0.00000  -0.00494   0.41598
  84        2S          0.00000  -0.00354   0.12119   0.09323
  85        3S          0.00000   0.00000   0.00026  -0.00061   0.00031
  86        4PX         0.00000   0.00000   0.00000   0.00000   0.00000
  87        4PY         0.00001   0.00000   0.00000   0.00000   0.00000
  88        4PZ         0.00000   0.00001   0.00000   0.00000   0.00000
  89        5PX         0.00000   0.00000   0.00000   0.00000   0.00000
  90        5PY         0.00023   0.00000   0.00000   0.00000   0.00000
  91        5PZ         0.00000  -0.00015   0.00000   0.00000   0.00000
                          86        87        88        89        90
  86        4PX         0.00155
  87        4PY         0.00000   0.00092
  88        4PZ         0.00000   0.00000   0.00319
  89        5PX         0.00038   0.00000   0.00000   0.00059
  90        5PY         0.00000   0.00018   0.00000   0.00000   0.00186
  91        5PZ         0.00000   0.00000   0.00074   0.00000   0.00000
                          91
  91        5PZ         0.00178
     Gross orbital populations:
                           1
   1 1   C  1S          1.99902
   2        2S          0.65963
   3        3S          0.10001
   4        4S          0.04179
   5        5PX         0.69444
   6        5PY         0.60340
   7        5PZ         0.70252
   8        6PX         0.14163
   9        6PY         0.14112
  10        6PZ         0.14970
  11        7PX        -0.00465
  12        7PY        -0.00878
  13        7PZ         0.01100
  14        8D 0        0.01593
  15        8D+1        0.01091
  16        8D-1        0.01510
  17        8D+2        0.02466
  18        8D-2        0.02392
  19        9D 0       -0.01420
  20        9D+1       -0.02097
  21        9D-1       -0.01039
  22        9D+2       -0.01605
  23        9D-2        0.00213
  24 2   N  1S          1.99897
  25        2S          0.74136
  26        3S          0.71798
  27        4S         -0.00254
  28        5PX         0.92385
  29        5PY         0.72103
  30        5PZ         0.71802
  31        6PX         0.65382
  32        6PY         0.48304
  33        6PZ         0.30746
  34        7PX         0.06082
  35        7PY         0.00862
  36        7PZ        -0.00333
  37        8D 0        0.00428
  38        8D+1        0.01063
  39        8D-1        0.00513
  40        8D+2        0.00708
  41        8D-2        0.00369
  42        9D 0       -0.00275
  43        9D+1       -0.01190
  44        9D-1        0.01172
  45        9D+2        0.01194
  46        9D-2        0.01458
  47 3   H  1S          0.78020
  48        2S          0.34022
  49        3S          0.00238
  50        4PX         0.01879
  51        4PY         0.00466
  52        4PZ         0.00486
  53        5PX        -0.01796
  54        5PY        -0.00026
  55        5PZ        -0.02844
  56 4   H  1S          0.77374
  57        2S          0.34989
  58        3S         -0.00050
  59        4PX         0.00861
  60        4PY         0.00493
  61        4PZ         0.01543
  62        5PX        -0.01782
  63        5PY        -0.00253
  64        5PZ        -0.01284
  65 5   H  1S          0.77374
  66        2S          0.34989
  67        3S         -0.00050
  68        4PX         0.00861
  69        4PY         0.00493
  70        4PZ         0.01543
  71        5PX        -0.01782
  72        5PY        -0.00253
  73        5PZ        -0.01284
  74 6   H  1S          0.76298
  75        2S          0.18762
  76        3S          0.00090
  77        4PX         0.01707
  78        4PY         0.01054
  79        4PZ         0.02627
  80        5PX         0.01588
  81        5PY        -0.01090
  82        5PZ        -0.00419
  83 7   H  1S          0.76298
  84        2S          0.18762
  85        3S          0.00090
  86        4PX         0.01707
  87        4PY         0.01054
  88        4PZ         0.02627
  89        5PX         0.01588
  90        5PY        -0.01090
  91        5PZ        -0.00419
          Condensed to atoms (all electrons):
               1          2          3          4          5          6
     1  C    3.961212   0.237016   0.320768   0.407343   0.407343  -0.035907
     2  N    0.237016   6.564269   0.031167  -0.095159  -0.095159   0.370684
     3  H    0.320768   0.031167   1.086346  -0.132307  -0.132307  -0.034613
     4  H    0.407343  -0.095159  -0.132307   1.071472  -0.148143   0.039170
     5  H    0.407343  -0.095159  -0.132307  -0.148143   1.071472  -0.023455
     6  H   -0.035907   0.370684  -0.034613   0.039170  -0.023455   0.763692
     7  H   -0.035907   0.370684  -0.034613  -0.023455   0.039170  -0.073396
               7
     1  C   -0.035907
     2  N    0.370684
     3  H   -0.034613
     4  H   -0.023455
     5  H    0.039170
     6  H   -0.073396
     7  H    0.763692
 Mulliken charges:
               1
     1  C    0.738131
     2  N   -0.383501
     3  H   -0.104440
     4  H   -0.118920
     5  H   -0.118920
     6  H   -0.006175
     7  H   -0.006175
 Sum of Mulliken charges =   0.00000
 Mulliken charges with hydrogens summed into heavy atoms:
               1
     1  C    0.395851
     2  N   -0.395851
 Electronic spatial extent (au):  <R**2>=             95.0384
 Charge=              0.0000 electrons
 Dipole moment (field-independent basis, Debye):
    X=             -1.3304    Y=              0.4779    Z=              0.0000  Tot=              1.4136
 Quadrupole moment (field-independent basis, Debye-Ang):
   XX=            -15.1117   YY=            -14.7868   ZZ=            -12.4324
   XY=              2.2033   XZ=              0.0000   YZ=              0.0000
 Traceless Quadrupole moment (field-independent basis, Debye-Ang):
   XX=             -1.0014   YY=             -0.6765   ZZ=              1.6778
   XY=              2.2033   XZ=              0.0000   YZ=              0.0000
 Octapole moment (field-independent basis, Debye-Ang**2):
  XXX=             -1.7268  YYY=             -1.9682  ZZZ=              0.0000  XYY=             -2.3639
  XXY=              0.6336  XXZ=              0.0000  XZZ=             -0.5543  YZZ=             -1.9239
  YYZ=              0.0000  XYZ=              0.0000
 Hexadecapole moment (field-independent basis, Debye-Ang**3):
 XXXX=            -25.2812 YYYY=            -78.0595 ZZZZ=            -23.3371 XXXY=             -0.8938
 XXXZ=              0.0000 YYYX=              2.2524 YYYZ=              0.0000 ZZZX=              0.0000
 ZZZY=              0.0000 XXYY=            -17.7741 XXZZ=             -7.8860 YYZZ=            -14.7359
 XXYZ=              0.0000 YYXZ=              0.0000 ZZXY=              1.5421
 N-N= 4.207637692810D+01 E-N=-3.065194753824D+02  KE= 9.508225912884D+01
 Symmetry A'   KE= 9.052805793284D+01
 Symmetry A"   KE= 4.554201195997D+00
 Orbital energies and kinetic energies (alpha):
                                 1                 2
   1         O               -15.544657         22.124335
   2         O               -11.248315         16.028796
   3         O                -1.170259          1.744643
   4         O                -0.893621          1.394948
   5         O                -0.668440          1.154995
   6         O                -0.597785          1.099564
   7         O                -0.555486          1.318307
   8         O                -0.522870          1.122105
   9         O                -0.385588          1.553437
  10         V                 0.035888          0.086359
  11         V                 0.051860          0.086260
  12         V                 0.053158          0.073969
  13         V                 0.061422          0.082301
  14         V                 0.082698          0.101700
  15         V                 0.115614          0.157536
  16         V                 0.152346          0.203251
  17         V                 0.152456          0.192315
  18         V                 0.171293          0.286100
  19         V                 0.175561          0.302923
  20         V                 0.197333          0.355399
  21         V                 0.209866          0.312097
  22         V                 0.271296          0.508180
  23         V                 0.293268          0.484643
  24         V                 0.297104          0.569900
  25         V                 0.320056          0.584410
  26         V                 0.346614          0.648538
  27         V                 0.369114          0.607419
  28         V                 0.402371          0.483546
  29         V                 0.404265          0.487198
  30         V                 0.437776          1.009481
  31         V                 0.449340          0.630582
  32         V                 0.450304          0.691839
  33         V                 0.480633          0.864786
  34         V                 0.491842          0.563151
  35         V                 0.531871          0.812568
  36         V                 0.541903          0.693176
  37         V                 0.577780          0.649248
  38         V                 0.578335          0.940028
  39         V                 0.620154          1.010896
  40         V                 0.629809          1.032507
  41         V                 0.633722          0.986421
  42         V                 0.663143          0.753919
  43         V                 0.670114          0.825815
  44         V                 0.682043          0.832710
  45         V                 0.685350          1.172852
  46         V                 0.711698          1.082723
  47         V                 0.733151          1.076854
  48         V                 0.741124          1.439789
  49         V                 0.855917          1.249171
  50         V                 0.875098          1.187534
  51         V                 0.902521          1.231999
  52         V                 1.013317          1.284259
  53         V                 1.033527          1.601582
  54         V                 1.095641          2.168345
  55         V                 1.103182          1.868378
  56         V                 1.116387          2.094133
  57         V                 1.263954          2.241374
  58         V                 1.313834          2.569501
  59         V                 1.368854          2.527916
  60         V                 1.413906          2.474002
  61         V                 1.577140          2.213269
  62         V                 1.609563          2.752765
  63         V                 1.731357          2.301047
  64         V                 1.754433          2.266456
  65         V                 1.886660          2.246230
  66         V                 1.905781          2.658664
  67         V                 1.927712          2.460830
  68         V                 1.954018          2.755619
  69         V                 2.060690          2.470231
  70         V                 2.095606          2.673095
  71         V                 2.113855          2.857920
  72         V                 2.165883          2.757518
  73         V                 2.181492          2.784106
  74         V                 2.271507          2.813816
  75         V                 2.327856          2.880452
  76         V                 2.333572          3.355121
  77         V                 2.399774          3.194412
  78         V                 2.467215          3.293020
  79         V                 2.472821          3.809492
  80         V                 2.539901          3.219758
  81         V                 2.622181          3.233820
  82         V                 2.657191          3.859975
  83         V                 2.726591          3.457373
  84         V                 2.882673          4.095600
  85         V                 2.883781          4.066456
  86         V                 2.913501          4.285743
  87         V                 3.034499          4.234735
  88         V                 3.059552          4.057460
  89         V                 3.074839          4.097990
  90         V                 3.380762          4.794387
  91         V                 3.634052          5.068563
 Total kinetic energy from orbitals= 9.508225912884D+01
 1\1\GINC-CPN-K08-40-01\SP\RHF\Aug-CC-pVDZ\C1H5N1\TJDUIGNA\20-Jan-2017\
 0\\# HF/aug-cc-pVDZ gfinput pop(full)\\ch3nh2\\0,1\C,0,0.745914,0.0111
 06,0.\N,0,-0.721743,-0.071848,0.\H,0,1.042059,1.060105,0.\H,0,1.129298
 ,-0.483355,0.892539\H,0,1.129298,-0.483355,-0.892539\H,0,-1.076988,0.3
 86322,-0.827032\H,0,-1.076988,0.386322,0.827032\\Version=EM64L-G09RevD
 .01\State=1-A'\HF=-95.2292518\RMSD=9.168e-09\Dipole=0.1581807,0.533199
 6,0.\Quadrupole=-0.3191303,-0.9283082,1.2474384,-1.6140855,0.,0.\PG=CS
  [SG(C1H1N1),X(H4)]\\@


 DO YOU KNOW THAT THE LETTERS IN "EPISCOPAL", WHEN
 REARRANGED, SPELL "PEPSI COLA"?
 Job cpu time:       0 days  0 hours  0 minutes  3.0 seconds.
 File lengths (MBytes):  RWF=      5 Int=      0 D2E=      0 Chk=      1 Scr=      1
 Normal termination of Gaussian 09 at Fri Jan 20 22:07:05 2017.