ch3nh2                                                                  
SP        RHF                                                         Aug-CC-pVDZ         
Number of atoms                            I                7
Info1-9                                    I   N=           9
          14          14           0           0           0         110
           1           1           2
Charge                                     I                0
Multiplicity                               I                1
Number of electrons                        I               18
Number of alpha electrons                  I                9
Number of beta electrons                   I                9
Number of basis functions                  I               91
Number of independent functions            I               91
Number of point charges in /Mol/           I                0
Number of translation vectors              I                0
Atomic numbers                             I   N=           7
           6           7           1           1           1           1
           1
Nuclear charges                            R   N=           7
  6.00000000E+00  7.00000000E+00  1.00000000E+00  1.00000000E+00  1.00000000E+00
  1.00000000E+00  1.00000000E+00
Current cartesian coordinates              R   N=          21
  1.00257674E-01  1.34622340E+00 -3.23494072E-19  1.00257674E-01 -1.43167301E+00
  3.63187388E-19 -1.84732347E+00  2.01682953E+00 -6.69638557E-19  1.07404854E+00
  2.01683049E+00  1.68665427E+00  1.07404854E+00  2.01683049E+00 -1.68665427E+00
 -8.02061686E-01 -2.05305990E+00 -1.56286398E+00 -8.02061686E-01 -2.05305990E+00
  1.56286398E+00
Force Field                                I                0
Int Atom Types                             I   N=           7
           0           0           0           0           0           0
           0
MM charges                                 R   N=           7
  0.00000000E+00  0.00000000E+00  0.00000000E+00  0.00000000E+00  0.00000000E+00
  0.00000000E+00  0.00000000E+00
Integer atomic weights                     I   N=           7
          12          14           1           1           1           1
           1
Real atomic weights                        R   N=           7
  1.20000000E+01  1.40030740E+01  1.00782504E+00  1.00782504E+00  1.00782504E+00
  1.00782504E+00  1.00782504E+00
Atom fragment info                         I   N=           7
           0           0           0           0           0           0
           0
Atom residue num                           I   N=           7
           0           0           0           0           0           0
           0
Nuclear spins                              I   N=           7
           0           2           1           1           1           1
           1
Nuclear ZEff                               R   N=           7
 -3.60000000E+00 -4.55000000E+00 -1.00000000E+00 -1.00000000E+00 -1.00000000E+00
 -1.00000000E+00 -1.00000000E+00
Nuclear ZNuc                               R   N=           7
  6.00000000E+00  7.00000000E+00  1.00000000E+00  1.00000000E+00  1.00000000E+00
  1.00000000E+00  1.00000000E+00
Nuclear QMom                               R   N=           7
  0.00000000E+00  2.04400000E+00  0.00000000E+00  0.00000000E+00  0.00000000E+00
  0.00000000E+00  0.00000000E+00
Nuclear GFac                               R   N=           7
  0.00000000E+00  4.03761000E-01  2.79284600E+00  2.79284600E+00  2.79284600E+00
  2.79284600E+00  2.79284600E+00
MicOpt                                     I   N=           7
          -1          -1          -1          -1          -1          -1
          -1
Number of contracted shells                I               43
Number of primitive shells                 I               81
Pure/Cartesian d shells                    I                0
Pure/Cartesian f shells                    I                0
Highest angular momentum                   I                2
Largest degree of contraction              I                7
Shell types                                I   N=          43
           0           0           0           0           1           1
           1          -2          -2           0           0           0
           0           1           1           1          -2          -2
           0           0           0           1           1           0
           0           0           1           1           0           0
           0           1           1           0           0           0
           1           1           0           0           0           1
           1
Number of primitives per shell             I   N=          43
           7           7           1           1           3           1
           1           1           1           7           7           1
           1           3           1           1           1           1
           3           1           1           1           1           3
           1           1           1           1           3           1
           1           1           1           3           1           1
           1           1           3           1           1           1
           1
Shell to atom map                          I   N=          43
           1           1           1           1           1           1
           1           1           1           2           2           2
           2           2           2           2           2           2
           3           3           3           3           3           4
           4           4           4           4           5           5
           5           5           5           6           6           6
           6           6           7           7           7           7
           7
Primitive exponents                        R   N=          81
  6.66500000E+03  1.00000000E+03  2.28000000E+02  6.47100000E+01  2.10600000E+01
  7.49500000E+00  2.79700000E+00  6.66500000E+03  2.28000000E+02  6.47100000E+01
  2.10600000E+01  7.49500000E+00  2.79700000E+00  5.21500000E-01  1.59600000E-01
  4.69000000E-02  9.43900000E+00  2.00200000E+00  5.45600000E-01  1.51700000E-01
  4.04100000E-02  5.50000000E-01  1.51000000E-01  9.04600000E+03  1.35700000E+03
  3.09300000E+02  8.77300000E+01  2.85600000E+01  1.02100000E+01  3.83800000E+00
  9.04600000E+03  3.09300000E+02  8.77300000E+01  2.85600000E+01  1.02100000E+01
  3.83800000E+00  7.46600000E-01  2.24800000E-01  6.12400000E-02  1.35500000E+01
  2.91700000E+00  7.97300000E-01  2.18500000E-01  5.61100000E-02  8.17000000E-01
  2.30000000E-01  1.30100000E+01  1.96200000E+00  4.44600000E-01  1.22000000E-01
  2.97400000E-02  7.27000000E-01  1.41000000E-01  1.30100000E+01  1.96200000E+00
  4.44600000E-01  1.22000000E-01  2.97400000E-02  7.27000000E-01  1.41000000E-01
  1.30100000E+01  1.96200000E+00  4.44600000E-01  1.22000000E-01  2.97400000E-02
  7.27000000E-01  1.41000000E-01  1.30100000E+01  1.96200000E+00  4.44600000E-01
  1.22000000E-01  2.97400000E-02  7.27000000E-01  1.41000000E-01  1.30100000E+01
  1.96200000E+00  4.44600000E-01  1.22000000E-01  2.97400000E-02  7.27000000E-01
  1.41000000E-01
Contraction coefficients                   R   N=          81
  6.93516317E-04  5.34150243E-03  2.71366714E-02  1.01992385E-01  2.75508636E-01
  4.51086433E-01  2.87565745E-01  7.73354740E-06  2.78072137E-04 -2.57875654E-03
 -8.95087684E-03 -1.06058855E-01 -1.31517686E-01  1.09948660E+00  1.00000000E+00
  1.00000000E+00  5.69792516E-02  3.13207212E-01  7.60376742E-01  1.00000000E+00
  1.00000000E+00  1.00000000E+00  1.00000000E+00  7.01708743E-04  5.40299880E-03
  2.74729510E-02  1.03514580E-01  2.79586579E-01  4.51317241E-01  2.80626875E-01
  7.77446797E-06  3.00742072E-04 -2.80016549E-03 -9.89708505E-03 -1.14331114E-01
 -1.18162383E-01  1.09786885E+00  1.00000000E+00  1.00000000E+00  5.89056768E-02
  3.20461107E-01  7.53042062E-01  1.00000000E+00  1.00000000E+00  1.00000000E+00
  1.00000000E+00  3.34987264E-02  2.34800801E-01  8.13682958E-01  1.00000000E+00
  1.00000000E+00  1.00000000E+00  1.00000000E+00  3.34987264E-02  2.34800801E-01
  8.13682958E-01  1.00000000E+00  1.00000000E+00  1.00000000E+00  1.00000000E+00
  3.34987264E-02  2.34800801E-01  8.13682958E-01  1.00000000E+00  1.00000000E+00
  1.00000000E+00  1.00000000E+00  3.34987264E-02  2.34800801E-01  8.13682958E-01
  1.00000000E+00  1.00000000E+00  1.00000000E+00  1.00000000E+00  3.34987264E-02
  2.34800801E-01  8.13682958E-01  1.00000000E+00  1.00000000E+00  1.00000000E+00
  1.00000000E+00
Coordinates of each shell                  R   N=         129
  1.00257674E-01  1.34622340E+00 -1.61747036E-19  1.00257674E-01  1.34622340E+00
 -1.61747036E-19  1.00257674E-01  1.34622340E+00 -1.61747036E-19  1.00257674E-01
  1.34622340E+00 -1.61747036E-19  1.00257674E-01  1.34622340E+00 -1.61747036E-19
  1.00257674E-01  1.34622340E+00 -1.61747036E-19  1.00257674E-01  1.34622340E+00
 -1.61747036E-19  1.00257674E-01  1.34622340E+00 -1.61747036E-19  1.00257674E-01
  1.34622340E+00 -1.61747036E-19  1.00257674E-01 -1.43167301E+00  1.81593694E-19
  1.00257674E-01 -1.43167301E+00  1.81593694E-19  1.00257674E-01 -1.43167301E+00
  1.81593694E-19  1.00257674E-01 -1.43167301E+00  1.81593694E-19  1.00257674E-01
 -1.43167301E+00  1.81593694E-19  1.00257674E-01 -1.43167301E+00  1.81593694E-19
  1.00257674E-01 -1.43167301E+00  1.81593694E-19  1.00257674E-01 -1.43167301E+00
  1.81593694E-19  1.00257674E-01 -1.43167301E+00  1.81593694E-19 -1.84732347E+00
  2.01682953E+00 -3.34819278E-19 -1.84732347E+00  2.01682953E+00 -3.34819278E-19
 -1.84732347E+00  2.01682953E+00 -3.34819278E-19 -1.84732347E+00  2.01682953E+00
 -3.34819278E-19 -1.84732347E+00  2.01682953E+00 -3.34819278E-19  1.07404854E+00
  2.01683049E+00  1.68665427E+00  1.07404854E+00  2.01683049E+00  1.68665427E+00
  1.07404854E+00  2.01683049E+00  1.68665427E+00  1.07404854E+00  2.01683049E+00
  1.68665427E+00  1.07404854E+00  2.01683049E+00  1.68665427E+00  1.07404854E+00
  2.01683049E+00 -1.68665427E+00  1.07404854E+00  2.01683049E+00 -1.68665427E+00
  1.07404854E+00  2.01683049E+00 -1.68665427E+00  1.07404854E+00  2.01683049E+00
 -1.68665427E+00  1.07404854E+00  2.01683049E+00 -1.68665427E+00 -8.02061686E-01
 -2.05305990E+00 -1.56286398E+00 -8.02061686E-01 -2.05305990E+00 -1.56286398E+00
 -8.02061686E-01 -2.05305990E+00 -1.56286398E+00 -8.02061686E-01 -2.05305990E+00
 -1.56286398E+00 -8.02061686E-01 -2.05305990E+00 -1.56286398E+00 -8.02061686E-01
 -2.05305990E+00  1.56286398E+00 -8.02061686E-01 -2.05305990E+00  1.56286398E+00
 -8.02061686E-01 -2.05305990E+00  1.56286398E+00 -8.02061686E-01 -2.05305990E+00
  1.56286398E+00 -8.02061686E-01 -2.05305990E+00  1.56286398E+00
Constraint Structure                       R   N=          21
  1.00257674E-01  1.34622340E+00 -1.61747036E-19  1.00257674E-01 -1.43167301E+00
  1.81593694E-19 -1.84732347E+00  2.01682953E+00 -3.34819278E-19  1.07404854E+00
  2.01683049E+00  1.68665427E+00  1.07404854E+00  2.01683049E+00 -1.68665427E+00
 -8.02061686E-01 -2.05305990E+00 -1.56286398E+00 -8.02061686E-01 -2.05305990E+00
  1.56286398E+00
Num ILSW                                   I              100
ILSW                                       I   N=         100
           0           0           0           0           2           0
           0           0           0           0           0          -1
           0           0           0           0           0           0
           0           0           1           0           0           0
           1           0           0           0           0           0
           0           0      100000           0          -1           0
           0           0           0           0           0           0
           0           0           0           1           0           0
           0           0           1           0           0           0
           0           0           4          41           0           0
           0           0           0           0           0           0
           0           0           0           0           0           0
           0           0           0           0           0           0
           0           0           0           0           0           0
           0           0           0           0           0           0
           0           0           0           0           0           0
           0           0           0           0
Num RLSW                                   I               41
RLSW                                       R   N=          41
  1.00000000E+00  1.00000000E+00  1.00000000E+00  1.00000000E+00  1.00000000E+00
  0.00000000E+00  0.00000000E+00  1.00000000E+00  0.00000000E+00  0.00000000E+00
  0.00000000E+00  0.00000000E+00  1.00000000E+00  0.00000000E+00  0.00000000E+00
  0.00000000E+00  0.00000000E+00  1.00000000E+00  0.00000000E+00  0.00000000E+00
  0.00000000E+00  0.00000000E+00  1.00000000E+00  0.00000000E+00  0.00000000E+00
  0.00000000E+00  0.00000000E+00  1.00000000E+00  0.00000000E+00  0.00000000E+00
  0.00000000E+00  0.00000000E+00  1.00000000E+00  0.00000000E+00  0.00000000E+00
  0.00000000E+00  0.00000000E+00  0.00000000E+00  1.00000000E+00  1.00000000E+00
  0.00000000E+00
MxBond                                     I                4
NBond                                      I   N=           7
           4           3           1           1           1           1
           1
IBond                                      I   N=          28
           2           3           4           5           1           6
           7           0           1           0           0           0
           1           0           0           0           1           0
           0           0           2           0           0           0
           2           0           0           0
RBond                                      R   N=          28
  1.00000000E+00  1.00000000E+00  1.00000000E+00  1.00000000E+00  1.00000000E+00
  1.00000000E+00  1.00000000E+00  0.00000000E+00  1.00000000E+00  0.00000000E+00
  0.00000000E+00  0.00000000E+00  1.00000000E+00  0.00000000E+00  0.00000000E+00
  0.00000000E+00  1.00000000E+00  0.00000000E+00  0.00000000E+00  0.00000000E+00
  1.00000000E+00  0.00000000E+00  0.00000000E+00  0.00000000E+00  1.00000000E+00
  0.00000000E+00  0.00000000E+00  0.00000000E+00
Virial Ratio                               R      2.001545952978184E+00
SCF Energy                                 R     -9.522925183050941E+01
Total Energy                               R     -9.522925183050941E+01
RMS Density                                R      9.167642488626119E-09
External E-field                           R   N=          35
  0.00000000E+00  0.00000000E+00  0.00000000E+00  0.00000000E+00  0.00000000E+00
  0.00000000E+00  0.00000000E+00  0.00000000E+00  0.00000000E+00  0.00000000E+00
  0.00000000E+00  0.00000000E+00  0.00000000E+00  0.00000000E+00  0.00000000E+00
  0.00000000E+00  0.00000000E+00  0.00000000E+00  0.00000000E+00  0.00000000E+00
  0.00000000E+00  0.00000000E+00  0.00000000E+00  0.00000000E+00  0.00000000E+00
  0.00000000E+00  0.00000000E+00  0.00000000E+00  0.00000000E+00  0.00000000E+00
  0.00000000E+00  0.00000000E+00  0.00000000E+00  0.00000000E+00  0.00000000E+00
IOpCl                                      I                0
IROHF                                      I                0
Alpha Orbital Energies                     R   N=          91
 -1.55446569E+01 -1.12483152E+01 -1.17025946E+00 -8.93620982E-01 -6.68439655E-01
 -5.97784861E-01 -5.55486333E-01 -5.22869545E-01 -3.85587713E-01  3.58884689E-02
  5.18601984E-02  5.31575560E-02  6.14220328E-02  8.26984584E-02  1.15613811E-01
  1.52346189E-01  1.52456277E-01  1.71292675E-01  1.75561212E-01  1.97332977E-01
  2.09865604E-01  2.71295977E-01  2.93268035E-01  2.97104486E-01  3.20055849E-01
  3.46614249E-01  3.69114039E-01  4.02370804E-01  4.04265370E-01  4.37775795E-01
  4.49340220E-01  4.50303668E-01  4.80632942E-01  4.91841601E-01  5.31870798E-01
  5.41903097E-01  5.77779828E-01  5.78334686E-01  6.20154382E-01  6.29809240E-01
  6.33722405E-01  6.63143490E-01  6.70114407E-01  6.82042874E-01  6.85349601E-01
  7.11697623E-01  7.33151120E-01  7.41123652E-01  8.55916535E-01  8.75098430E-01
  9.02521004E-01  1.01331660E+00  1.03352663E+00  1.09564120E+00  1.10318192E+00
  1.11638736E+00  1.26395414E+00  1.31383433E+00  1.36885436E+00  1.41390585E+00
  1.57713968E+00  1.60956327E+00  1.73135656E+00  1.75443267E+00  1.88666009E+00
  1.90578063E+00  1.92771209E+00  1.95401782E+00  2.06069005E+00  2.09560570E+00
  2.11385452E+00  2.16588286E+00  2.18149229E+00  2.27150679E+00  2.32785602E+00
  2.33357201E+00  2.39977384E+00  2.46721502E+00  2.47282139E+00  2.53990102E+00
  2.62218064E+00  2.65719150E+00  2.72659113E+00  2.88267259E+00  2.88378076E+00
  2.91350060E+00  3.03449850E+00  3.05955158E+00  3.07483878E+00  3.38076170E+00
  3.63405162E+00
Alpha MO coefficients                      R   N=        8281
 -1.37108842E-05 -3.90599221E-06  7.04567272E-03  2.11586902E-03 -4.00029321E-06
 -4.48672425E-04  0.00000000E+00 -5.91430352E-04 -7.90685197E-03  0.00000000E+00
 -4.80391242E-05 -1.42805360E-03  0.00000000E+00 -1.37888827E-05  0.00000000E+00
  0.00000000E+00  2.47967663E-06 -6.37604739E-06 -1.22438703E-03  0.00000000E+00
  0.00000000E+00 -1.81367551E-03  5.33143094E-04  9.97404100E-01  1.84185064E-02
 -1.57464623E-02 -5.62178277E-03 -1.58972367E-03  6.53579307E-04  0.00000000E+00
  1.35694494E-03 -5.18855972E-03  0.00000000E+00  7.91805081E-06 -8.75702762E-04
  0.00000000E+00  2.26701689E-04  0.00000000E+00  0.00000000E+00  1.03387211E-04
  9.03346724E-05  4.13069236E-04  0.00000000E+00  0.00000000E+00  1.12811307E-03
  1.52601745E-04 -2.81158853E-04  9.08058934E-04  1.90863572E-04 -7.32486598E-05
  1.64619996E-04  0.00000000E+00  2.77370306E-04  6.98013453E-04  0.00000000E+00
 -1.55739001E-04  1.16668576E-03  1.94932119E-04  3.47077026E-05  1.18766816E-04
  6.36515371E-05 -8.06601906E-05  2.36710617E-04 -9.01719880E-05 -1.55739001E-04
  1.16668576E-03  1.94932119E-04  3.47077026E-05  1.18766816E-04 -6.36515371E-05
 -8.06601906E-05  2.36710617E-04  9.01719880E-05  3.50591451E-05  1.65523758E-03
 -9.87490362E-05 -2.46050961E-04 -9.47345185E-05 -4.82844875E-04  4.21182971E-04
  1.69298953E-04  6.63105499E-04  3.50591451E-05  1.65523758E-03 -9.87490362E-05
 -2.46050961E-04 -9.47345185E-05  4.82844875E-04  4.21182971E-04  1.69298953E-04
 -6.63105499E-04  9.97575352E-01  2.03828445E-02 -2.58776534E-02 -8.12847918E-03
 -1.05393208E-05 -4.85185371E-04  0.00000000E+00 -1.28225817E-04 -3.98053418E-03
  0.00000000E+00 -3.84707953E-06 -5.17082389E-04  0.00000000E+00  2.36623853E-05
  0.00000000E+00  0.00000000E+00 -6.28956619E-06  4.26079946E-05 -6.14426391E-04
  0.00000000E+00  0.00000000E+00 -8.37282542E-04  1.50296299E-04 -9.39057933E-05
  4.45266925E-04 -2.13560839E-04  8.05111252E-04  2.08451062E-05  3.79168315E-04
  0.00000000E+00 -1.35407108E-04 -1.58025861E-03  0.00000000E+00 -8.73457675E-05
 -5.01305627E-04  0.00000000E+00  5.24139330E-05  0.00000000E+00  0.00000000E+00
  1.33946219E-04 -2.94883336E-08  4.10645225E-04  0.00000000E+00  0.00000000E+00
  5.88327623E-04  2.07935574E-04  4.47625357E-04  9.18813413E-03  1.16154255E-03
 -1.97573531E-04  1.34872066E-04  0.00000000E+00  2.62562574E-03 -1.15196663E-03
  0.00000000E+00  4.64559272E-04  9.09514063E-03  1.04688915E-03  1.07455986E-04
  1.14816883E-04  1.95445422E-04 -1.29364844E-03 -1.17565065E-03 -2.13425351E-03
  4.64559272E-04  9.09514063E-03  1.04688915E-03  1.07455986E-04  1.14816883E-04
 -1.95445422E-04 -1.29364844E-03 -1.17565065E-03  2.13425351E-03 -1.76731499E-04
 -7.44992705E-04 -2.94034795E-04  1.63887461E-05  1.63688532E-04 -1.62397690E-06
 -1.49484939E-04 -1.69278914E-04 -2.67983081E-04 -1.76731499E-04 -7.44992705E-04
 -2.94034795E-04  1.63887461E-05  1.63688532E-04  1.62397690E-06 -1.49484939E-04
 -1.69278914E-04  2.67983081E-04 -9.24675448E-02  1.80197824E-01 -2.85585460E-02
  1.17572046E-02 -5.93726198E-03 -9.34513974E-02  0.00000000E+00 -1.37757616E-02
  4.84681431E-02  0.00000000E+00 -5.94960428E-04  1.96462507E-03  0.00000000E+00
 -1.03342123E-02  0.00000000E+00  0.00000000E+00 -1.97351770E-02  3.17522340E-03
  1.46275233E-02  0.00000000E+00  0.00000000E+00  1.46546703E-02  3.13754946E-03
 -1.81223162E-01  3.66108743E-01  3.25818609E-01 -7.77554970E-03 -5.37744694E-02
  4.41927490E-02  0.00000000E+00  1.98216589E-02  1.13362093E-01  0.00000000E+00
  3.82278365E-04  5.42902151E-03  0.00000000E+00 -1.49744999E-03  0.00000000E+00
  0.00000000E+00 -7.03266031E-03  1.19095563E-04 -2.93858504E-02  0.00000000E+00
  0.00000000E+00 -2.03223659E-02 -1.03435788E-02  6.65349976E-02 -1.24940907E-02
 -4.20904939E-03  1.06988334E-02 -4.36223132E-03  0.00000000E+00 -1.08787009E-03
  2.63643602E-03  0.00000000E+00  6.21643442E-02  8.38411539E-03 -1.06266247E-03
 -4.72664905E-03 -5.26134278E-03 -8.74023636E-03 -1.38359938E-03 -5.66166870E-03
 -7.73055650E-03  6.21643442E-02  8.38411539E-03 -1.06266247E-03 -4.72664905E-03
 -5.26134278E-03  8.74023636E-03 -1.38359938E-03 -5.66166870E-03  7.73055650E-03
  1.77725261E-01  4.80809372E-02  3.15381454E-03  1.20067823E-02  9.81965650E-03
  2.57176316E-02  7.08873078E-03  4.61368804E-03  1.23285427E-02  1.77725261E-01
  4.80809372E-02  3.15381454E-03  1.20067823E-02  9.81965650E-03 -2.57176316E-02
  7.08873078E-03  4.61368804E-03 -1.23285427E-02 -1.59960076E-01  3.34651155E-01
  1.12727739E-01  2.61547854E-02  8.70330236E-03  7.82810682E-02  0.00000000E+00
  1.20603224E-02  4.23231264E-02  0.00000000E+00 -4.38853457E-03 -8.36806489E-03
  0.00000000E+00  5.23087555E-03  0.00000000E+00  0.00000000E+00  7.62665994E-03
 -2.57144746E-03  3.20990217E-03  0.00000000E+00  0.00000000E+00  3.16717002E-03
 -5.46669889E-03  7.52476180E-02 -1.69739663E-01 -1.02929047E-01 -4.40144257E-02
  6.07671474E-02  1.47231064E-01  0.00000000E+00  6.49080187E-03  9.41211705E-02
  0.00000000E+00  8.55920125E-03  8.06344341E-04  0.00000000E+00 -9.28833915E-03
  0.00000000E+00  0.00000000E+00 -1.21126584E-02 -4.11922367E-03  5.41225375E-03
  0.00000000E+00  0.00000000E+00 -1.04052390E-02 -2.90878994E-03  1.82698699E-01
  5.48085230E-02 -1.22138206E-03  2.19142151E-02 -5.90876223E-03  0.00000000E+00
  1.44543171E-02 -1.06133325E-02  0.00000000E+00  1.89805417E-01  4.17989759E-02
  1.61958000E-03 -1.15197578E-02 -5.37186890E-03 -1.99838964E-02 -6.19449981E-03
 -2.44708984E-03 -1.07189249E-02  1.89805417E-01  4.17989759E-02  1.61958000E-03
 -1.15197578E-02 -5.37186890E-03  1.99838964E-02 -6.19449981E-03 -2.44708984E-03
  1.07189249E-02 -1.41862867E-01 -6.30330948E-03 -7.34654471E-04 -8.25521962E-03
 -4.08163623E-03 -1.73201477E-02  8.11088400E-04 -2.23489179E-03  2.07679149E-03
 -1.41862867E-01 -6.30330948E-03 -7.34654471E-04 -8.25521962E-03 -4.08163623E-03
  1.73201477E-02  8.11088400E-04 -2.23489179E-03 -2.07679149E-03  0.00000000E+00
  0.00000000E+00  0.00000000E+00  0.00000000E+00  0.00000000E+00  0.00000000E+00
  2.17133398E-01  0.00000000E+00  0.00000000E+00  5.84636488E-02  0.00000000E+00
  0.00000000E+00  1.45998769E-02  0.00000000E+00  9.50801772E-03 -1.01965253E-02
  0.00000000E+00  0.00000000E+00  0.00000000E+00 -4.94458539E-02  1.00385306E-02
  0.00000000E+00  0.00000000E+00  0.00000000E+00  0.00000000E+00  0.00000000E+00
  0.00000000E+00  0.00000000E+00  0.00000000E+00  3.93525607E-01  0.00000000E+00
  0.00000000E+00  1.60897175E-01  0.00000000E+00  0.00000000E+00 -2.21921554E-03
  0.00000000E+00 -2.46226359E-02 -2.79176235E-03  0.00000000E+00  0.00000000E+00
  0.00000000E+00  2.48980318E-02  4.05059145E-02  0.00000000E+00  0.00000000E+00
  0.00000000E+00  0.00000000E+00  0.00000000E+00  0.00000000E+00  0.00000000E+00
  4.37663283E-03  0.00000000E+00  0.00000000E+00 -2.65762967E-02  1.41696897E-01
  7.16287811E-02 -1.61164114E-02 -5.53884032E-03 -2.65050835E-03 -4.82887941E-03
  9.11996238E-03 -6.78821734E-03 -4.99797969E-03 -1.41696897E-01 -7.16287811E-02
  1.61164114E-02  5.53884032E-03  2.65050835E-03 -4.82887941E-03 -9.11996238E-03
  6.78821734E-03 -4.99797969E-03 -2.85368059E-01 -1.17610517E-01 -4.71297115E-03
 -1.57573507E-02 -9.81576951E-03 -1.40552944E-02 -4.78490268E-03  6.50652063E-03
 -1.69281831E-02  2.85368059E-01  1.17610517E-01  4.71297115E-03  1.57573507E-02
  9.81576951E-03 -1.40552944E-02  4.78490268E-03 -6.50652063E-03 -1.69281831E-02
  5.13786984E-03 -8.21718546E-03  2.29532722E-02  2.06414511E-02  3.38120029E-01
 -1.72968154E-01  0.00000000E+00  7.29748367E-02 -4.10550986E-02  0.00000000E+00
 -5.65216187E-03 -2.86132122E-03  0.00000000E+00  6.43143463E-03  0.00000000E+00
  0.00000000E+00 -2.54488849E-02  5.54085452E-04 -2.90955243E-02  0.00000000E+00
  0.00000000E+00  2.92529704E-02  1.37935061E-02 -2.93397159E-02  6.57900785E-02
  1.31784512E-01 -6.87896815E-03  2.39612347E-01  1.51300514E-01  0.00000000E+00
  1.63208482E-01  8.44410681E-02  0.00000000E+00  1.89707816E-02 -1.10155018E-02
  0.00000000E+00 -3.79072550E-03  0.00000000E+00  0.00000000E+00 -1.25137271E-02
  5.47879287E-03  1.18591964E-02  0.00000000E+00  0.00000000E+00 -1.49169567E-02
  1.52754595E-02 -3.32939045E-01 -2.40795036E-01 -7.54561189E-03 -1.85050487E-02
  5.21796890E-03  0.00000000E+00 -3.43162965E-02  2.55366572E-02  0.00000000E+00
  8.10239122E-02  5.82466679E-02  1.54520759E-03  6.21479184E-03 -6.70446312E-03
 -5.45013367E-03 -1.70591970E-02 -4.69677454E-03  4.17412820E-03  8.10239122E-02
  5.82466679E-02  1.54520759E-03  6.21479184E-03 -6.70446312E-03  5.45013367E-03
 -1.70591970E-02 -4.69677454E-03 -4.17412820E-03 -1.05291449E-01 -1.83707604E-02
 -3.55348317E-03  6.00375966E-04  6.15562781E-04 -1.05821082E-02  8.98674489E-04
  8.01153890E-03  1.89004145E-03 -1.05291449E-01 -1.83707604E-02 -3.55348317E-03
  6.00375966E-04  6.15562781E-04  1.05821082E-02  8.98674489E-04  8.01153890E-03
 -1.89004145E-03 -1.82051250E-03  4.83100057E-03  4.11048434E-02 -5.11459412E-02
 -2.17429363E-01 -3.29041352E-01  0.00000000E+00 -2.33175050E-02 -1.67224746E-01
  0.00000000E+00 -3.96690839E-03  1.12198591E-02  0.00000000E+00 -2.89085350E-02
  0.00000000E+00  0.00000000E+00 -2.40641638E-02 -9.56243042E-03  2.36845856E-02
  0.00000000E+00  0.00000000E+00 -1.39836201E-02 -4.59449632E-03 -2.73640741E-03
  6.37410271E-03  3.32627821E-02  6.81741018E-02  1.92378738E-02  3.69713650E-01
  0.00000000E+00 -2.39557832E-02  2.12641799E-01  0.00000000E+00  6.36159995E-03
  5.26623839E-02  0.00000000E+00 -1.24695284E-02  0.00000000E+00  0.00000000E+00
 -1.39480972E-02 -1.54021162E-02  2.99769248E-03  0.00000000E+00  0.00000000E+00
  6.68888533E-04 -1.79100913E-02  9.01444983E-02  1.44056063E-01 -7.83179706E-03
 -3.79298799E-04 -9.98525844E-03  0.00000000E+00  3.13717560E-02 -1.09954269E-02
  0.00000000E+00 -1.91214140E-01 -1.43302915E-01 -4.14928166E-03  1.63676633E-03
 -1.48490803E-03  1.33973007E-02  1.94991128E-02  1.98333980E-02  1.25116194E-02
 -1.91214140E-01 -1.43302915E-01 -4.14928166E-03  1.63676633E-03 -1.48490803E-03
 -1.33973007E-02  1.94991128E-02  1.98333980E-02 -1.25116194E-02 -1.27367830E-01
 -7.26277678E-02  8.78071941E-03 -5.81405560E-03  7.21401735E-03 -1.16110012E-02
 -3.94736663E-03 -1.65043066E-02 -6.36253402E-03 -1.27367830E-01 -7.26277678E-02
  8.78071941E-03 -5.81405560E-03  7.21401735E-03  1.16110012E-02 -3.94736663E-03
 -1.65043066E-02  6.36253402E-03  0.00000000E+00  0.00000000E+00  0.00000000E+00
  0.00000000E+00  0.00000000E+00  0.00000000E+00  3.79696850E-01  0.00000000E+00
  0.00000000E+00  6.58020182E-02  0.00000000E+00  0.00000000E+00  6.95289568E-04
  0.00000000E+00  2.42235596E-02  2.67207512E-02  0.00000000E+00  0.00000000E+00
  0.00000000E+00 -3.95789067E-02 -4.22376881E-03  0.00000000E+00  0.00000000E+00
  0.00000000E+00  0.00000000E+00  0.00000000E+00  0.00000000E+00  0.00000000E+00
  0.00000000E+00 -2.30513796E-01  0.00000000E+00  0.00000000E+00 -7.44671282E-02
  0.00000000E+00  0.00000000E+00 -1.33018603E-02  0.00000000E+00  1.65732193E-02
  1.55651351E-02  0.00000000E+00  0.00000000E+00  0.00000000E+00 -1.09623985E-02
  4.95029156E-03  0.00000000E+00  0.00000000E+00  0.00000000E+00  0.00000000E+00
  0.00000000E+00  0.00000000E+00  0.00000000E+00  1.13327414E-02  0.00000000E+00
  0.00000000E+00 -1.44941376E-02  2.98694765E-01  2.96330858E-01  6.21771298E-03
 -1.16870861E-02 -9.53867392E-03 -7.57416039E-03 -2.14927086E-02 -2.28704146E-02
 -4.80903177E-02 -2.98694765E-01 -2.96330858E-01 -6.21771298E-03  1.16870861E-02
  9.53867392E-03 -7.57416039E-03  2.14927086E-02  2.28704146E-02 -4.80903177E-02
  1.95365570E-01  1.36909639E-01 -5.17938985E-03  9.35217310E-03  8.06490679E-03
  7.77701681E-03  4.78998612E-03  1.75572346E-02  1.90393846E-02 -1.95365570E-01
 -1.36909639E-01  5.17938985E-03 -9.35217310E-03 -8.06490679E-03  7.77701681E-03
 -4.78998612E-03 -1.75572346E-02  1.90393846E-02  8.45843074E-03 -1.82998178E-02
 -2.27806943E-02 -5.02097552E-02 -1.65062367E-01  8.44690376E-02  0.00000000E+00
 -5.63779851E-02  2.95819831E-02  0.00000000E+00 -2.38920296E-02  2.45497301E-02
  0.00000000E+00 -8.94893351E-03  0.00000000E+00  0.00000000E+00  1.38432781E-02
 -3.55249264E-02  1.80357337E-03  0.00000000E+00  0.00000000E+00 -6.98483959E-03
 -2.24180251E-03 -4.83693329E-02  1.09136291E-01  2.38150214E-01  1.64635179E-01
  4.86283682E-01 -1.73881300E-01  0.00000000E+00  3.62890443E-01 -1.47334829E-01
  0.00000000E+00  8.89317091E-02 -5.90465792E-03  0.00000000E+00  5.38536647E-03
  0.00000000E+00  0.00000000E+00 -8.41316443E-03  2.22290870E-03  1.36099130E-02
  0.00000000E+00  0.00000000E+00 -2.73340799E-03  7.31982197E-03  2.10637514E-01
  2.12115591E-01  9.87763949E-03  7.52213439E-03 -4.27462795E-03  0.00000000E+00
  2.82575983E-02 -4.60606719E-03  0.00000000E+00 -8.13675643E-02 -8.20209418E-02
 -5.43687539E-03 -2.98702625E-03  4.42451462E-03  4.13886961E-03  7.77152446E-03
  8.95371527E-04  7.80087066E-03 -8.13675643E-02 -8.20209418E-02 -5.43687539E-03
 -2.98702625E-03  4.42451462E-03 -4.13886961E-03  7.77152446E-03  8.95371527E-04