opt + freq                                                              
Freq      RBLYP                                                       def2TZVP            
Number of atoms                            I                4
Info1-9                                    I   N=           9
          13          12        1002           0           0         100
           6          18         202
Full Title                                 C   N=           1
opt + freq  
Route                                      C   N=           7
#P BLYP/def2TZVP OPT=VeryTight FREQ=SaveNormalModes Int=Ultr
aFine SCF=Tight NoSymm  
Charge                                     I                0
Multiplicity                               I                1
Number of electrons                        I               18
Number of alpha electrons                  I                9
Number of beta electrons                   I                9
Number of basis functions                  I               74
Number of independent functions            I               74
Number of point charges in /Mol/           I                0
Number of translation vectors              I                0
Atomic numbers                             I   N=           4
           8           8           1           1
Nuclear charges                            R   N=           4
  8.00000000E+00  8.00000000E+00  1.00000000E+00  1.00000000E+00
Current cartesian coordinates              R   N=          12
 -1.52198098E+01  5.76229014E+00 -9.99450412E-01 -1.59374840E+01  3.99125628E+00
  1.07152870E+00 -1.69000764E+01  6.10764179E+00 -1.69374594E+00 -1.53594764E+01
  4.98026106E+00  2.52493784E+00
Number of symbols in /Mol/                 I                0
Force Field                                I                0
Atom Types                                 C   N=           4
                                                
Int Atom Types                             I   N=           4
           0           0           0           0
MM charges                                 R   N=           4
  0.00000000E+00  0.00000000E+00  0.00000000E+00  0.00000000E+00
Integer atomic weights                     I   N=           4
          16          16           1           1
Real atomic weights                        R   N=           4
  1.59949146E+01  1.59949146E+01  1.00782504E+00  1.00782504E+00
Atom fragment info                         I   N=           4
           0           0           0           0
Atom residue num                           I   N=           4
           0           0           0           0
Nuclear spins                              I   N=           4
           0           0           1           1
Nuclear ZEff                               R   N=           4
 -5.60000000E+00 -5.60000000E+00 -1.00000000E+00 -1.00000000E+00
Nuclear ZNuc                               R   N=           4
  8.00000000E+00  8.00000000E+00  1.00000000E+00  1.00000000E+00
Nuclear QMom                               R   N=           4
  0.00000000E+00  0.00000000E+00  0.00000000E+00  0.00000000E+00
Nuclear GFac                               R   N=           4
  0.00000000E+00  0.00000000E+00  2.79284600E+00  2.79284600E+00
MicOpt                                     I   N=           4
          -1          -1          -1          -1
Number of residues                         I                0
Number of secondary structures             I                0
Redundant internal dimensions              I   N=           4
           6           3           2           1
Redundant internal coordinate indices      I   N=          24
           1           2           0           0           1           3
           0           0           2           4           0           0
           2           1           3           0           1           2
           4           0           3           1           2           4
Redundant internal coordinates             R   N=           6
  2.81790198E+00  1.85057007E+00  1.85057326E+00  1.73328639E+00  1.73328236E+00
 -2.05387294E+00
ZRed-IntVec                                I   N=           6
           0           0           0           0           0           0
ZRed-FPVec                                 R   N=           6
  0.00000000E+00  0.00000000E+00  0.00000000E+00  0.00000000E+00  0.00000000E+00
  0.00000000E+00
ZRed-Constraint1                           R   N=           6
  2.81790198E+00  1.85057007E+00  1.85057326E+00  1.73328639E+00  1.73328236E+00
 -2.05387294E+00
ZRed-Constraint2                           R   N=           6
  2.48871044E+00  1.87347113E+00  1.87347016E+00  1.82925078E+00  1.82925314E+00
 -1.75912854E+00
Number of contracted shells                I               30
Number of primitive shells                 I               52
Pure/Cartesian d shells                    I                0
Pure/Cartesian f shells                    I                0
Highest angular momentum                   I                3
Largest degree of contraction              I                6
Shell types                                I   N=          30
           0           0           0           0           0           1
           1           1          -2          -2          -3           0
           0           0           0           0           1           1
           1          -2          -2          -3           0           0
           0           1           0           0           0           1
Number of primitives per shell             I   N=          30
           6           2           1           1           1           4
           1           1           1           1           1           6
           2           1           1           1           4           1
           1           1           1           1           3           1
           1           1           3           1           1           1
Shell to atom map                          I   N=          30
           1           1           1           1           1           1
           1           1           1           1           1           2
           2           2           2           2           2           2
           2           2           2           2           3           3
           3           3           4           4           4           4
Primitive exponents                        R   N=          52
  2.70323826E+04  4.05238714E+03  9.22327227E+02  2.61240710E+02  8.53546414E+01
  3.10350352E+01  1.22608607E+01  4.99870760E+00  1.17031082E+00  4.64747410E-01
  1.85045364E-01  6.32749548E+01  1.46270494E+01  4.45012235E+00  1.52757996E+00
  5.29351179E-01  1.74784213E-01  2.31400000E+00  6.45000000E-01  1.42800000E+00
  2.70323826E+04  4.05238714E+03  9.22327227E+02  2.61240710E+02  8.53546414E+01
  3.10350352E+01  1.22608607E+01  4.99870760E+00  1.17031082E+00  4.64747410E-01
  1.85045364E-01  6.32749548E+01  1.46270494E+01  4.45012235E+00  1.52757996E+00
  5.29351179E-01  1.74784213E-01  2.31400000E+00  6.45000000E-01  1.42800000E+00
  3.40613410E+01  5.12357460E+00  1.16466260E+00  3.27230410E-01  1.03072410E-01
  8.00000000E-01  3.40613410E+01  5.12357460E+00  1.16466260E+00  3.27230410E-01
  1.03072410E-01  8.00000000E-01
Contraction coefficients                   R   N=          52
  5.72273352E-04  4.43532335E-03  2.30201077E-02  9.28224907E-02  2.93785000E-01
  6.74016045E-01  6.38399370E-01  3.95345871E-01  1.00000000E+00  1.00000000E+00
  1.00000000E+00  1.20183322E-02  8.30054218E-02  3.19917439E-01  7.07155429E-01
  1.00000000E+00  1.00000000E+00  1.00000000E+00  1.00000000E+00  1.00000000E+00
  5.72273352E-04  4.43532335E-03  2.30201077E-02  9.28224907E-02  2.93785000E-01
  6.74016045E-01  6.38399370E-01  3.95345871E-01  1.00000000E+00  1.00000000E+00
  1.00000000E+00  1.20183322E-02  8.30054218E-02  3.19917439E-01  7.07155429E-01
  1.00000000E+00  1.00000000E+00  1.00000000E+00  1.00000000E+00  1.00000000E+00
  2.54393072E-02  1.90085949E-01  8.52441130E-01  1.00000000E+00  1.00000000E+00
  1.00000000E+00  2.54393072E-02  1.90085949E-01  8.52441130E-01  1.00000000E+00
  1.00000000E+00  1.00000000E+00
Coordinates of each shell                  R   N=          90
 -1.52198098E+01  5.76229014E+00 -9.99450412E-01 -1.52198098E+01  5.76229014E+00
 -9.99450412E-01 -1.52198098E+01  5.76229014E+00 -9.99450412E-01 -1.52198098E+01
  5.76229014E+00 -9.99450412E-01 -1.52198098E+01  5.76229014E+00 -9.99450412E-01
 -1.52198098E+01  5.76229014E+00 -9.99450412E-01 -1.52198098E+01  5.76229014E+00
 -9.99450412E-01 -1.52198098E+01  5.76229014E+00 -9.99450412E-01 -1.52198098E+01
  5.76229014E+00 -9.99450412E-01 -1.52198098E+01  5.76229014E+00 -9.99450412E-01
 -1.52198098E+01  5.76229014E+00 -9.99450412E-01 -1.59374840E+01  3.99125628E+00
  1.07152870E+00 -1.59374840E+01  3.99125628E+00  1.07152870E+00 -1.59374840E+01
  3.99125628E+00  1.07152870E+00 -1.59374840E+01  3.99125628E+00  1.07152870E+00
 -1.59374840E+01  3.99125628E+00  1.07152870E+00 -1.59374840E+01  3.99125628E+00
  1.07152870E+00 -1.59374840E+01  3.99125628E+00  1.07152870E+00 -1.59374840E+01
  3.99125628E+00  1.07152870E+00 -1.59374840E+01  3.99125628E+00  1.07152870E+00
 -1.59374840E+01  3.99125628E+00  1.07152870E+00 -1.59374840E+01  3.99125628E+00
  1.07152870E+00 -1.69000764E+01  6.10764179E+00 -1.69374594E+00 -1.69000764E+01
  6.10764179E+00 -1.69374594E+00 -1.69000764E+01  6.10764179E+00 -1.69374594E+00
 -1.69000764E+01  6.10764179E+00 -1.69374594E+00 -1.53594764E+01  4.98026106E+00
  2.52493784E+00 -1.53594764E+01  4.98026106E+00  2.52493784E+00 -1.53594764E+01
  4.98026106E+00  2.52493784E+00 -1.53594764E+01  4.98026106E+00  2.52493784E+00
Num ILSW                                   I              100
ILSW                                       I   N=         100
           0           0           0           0           2           0
           0           0           0           0         402          -1
           5           0           0           0           2           0
           0           0           0           0           1           0
           1           1           0           0           0           0
           0           0      100000           0          -1           0
           0           0           0           0           0           0
           0           0           0           1           0           0
           0 -2000000000           1           0           0           0
           0           0           4          52           0           0
           0           0           0           0           0           0
           0           0           0           4           0           1
           0           0           0           0           0           0
           0           0           0           0           0           0
           0           0           0           0           0           0
           0           0           0           0           0           0
           0           0           0           0
Num RLSW                                   I               52
RLSW                                       R   N=          52
  1.00000000E+00  1.00000000E+00  1.00000000E+00  1.00000000E+00  0.00000000E+00
  0.00000000E+00  0.00000000E+00  1.00000000E+00  0.00000000E+00  0.00000000E+00
  0.00000000E+00  0.00000000E+00  1.00000000E+00  0.00000000E+00  0.00000000E+00
  0.00000000E+00  0.00000000E+00  1.00000000E+00  0.00000000E+00  0.00000000E+00
  0.00000000E+00  0.00000000E+00  1.00000000E+00  0.00000000E+00  0.00000000E+00
  0.00000000E+00  0.00000000E+00  1.00000000E+00  0.00000000E+00  0.00000000E+00
  0.00000000E+00  0.00000000E+00  1.00000000E+00  0.00000000E+00  0.00000000E+00
  0.00000000E+00  0.00000000E+00  0.00000000E+00  1.00000000E+00  1.00000000E+00
  0.00000000E+00  1.00000000E+00  0.00000000E+00  0.00000000E+00  0.00000000E+00
  0.00000000E+00  0.00000000E+00  0.00000000E+00  0.00000000E+00  0.00000000E+00
  0.00000000E+00  0.00000000E+00
ECP-MxAtEC                                 I           250000
ECP-MaxLECP                                I               10
ECP-MaxAtL                                 I          2250000
ECP-MxTECP                                 I         11250000
ECP-LenNCZ                                 I                0
ECP-KFirst                                 I   N=          40
           0           0           0           0           0           0
           0           0           0           0           0           0
           0           0           0           0           0           0
           0           0           0           0           0           0
           0           0           0           0           0           0
           0           0           0           0           0           0
           0           0           0           0
ECP-KLast                                  I   N=          40
           0           0           0           0           0           0
           0           0           0           0           0           0
           0           0           0           0           0           0
           0           0           0           0           0           0
           0           0           0           0           0           0
           0           0           0           0           0           0
           0           0           0           0
ECP-LMax                                   I   N=           4
           0           0           0           0
ECP-LPSkip                                 I   N=           4
           1           1           1           1
ECP-RNFroz                                 R   N=           4
  0.00000000E+00  0.00000000E+00  0.00000000E+00  0.00000000E+00
ECP-NLP                                    I                0
ECP-CLP1                                   R      0.000000000000000E+00
ECP-CLP2                                   R      0.000000000000000E+00
ECP-ZLP                                    R      0.000000000000000E+00
MxBond                                     I                2
NBond                                      I   N=           4
           2           2           1           1
IBond                                      I   N=           8
           2           3           1           4           1           0
           2           0
RBond                                      R   N=           8
  1.00000000E+00  1.00000000E+00  1.00000000E+00  1.00000000E+00  1.00000000E+00
  0.00000000E+00  1.00000000E+00  0.00000000E+00
Virial Ratio                               R      2.003028330036908E+00
SCF Energy                                 R     -1.516011533379086E+02
Total Energy                               R     -1.516011533379086E+02
RMS Force                                  R      2.014905024185793E-07
RMS Density                                R      1.607023475064399E-09
NImag                                      I                0
Job Status                                 I                1
Nuclear derivative order                   I                2
External E-field                           R   N=          35
  0.00000000E+00  0.00000000E+00  0.00000000E+00  0.00000000E+00  0.00000000E+00
  0.00000000E+00  0.00000000E+00  0.00000000E+00  0.00000000E+00  0.00000000E+00
  0.00000000E+00  0.00000000E+00  0.00000000E+00  0.00000000E+00  0.00000000E+00
  0.00000000E+00  0.00000000E+00  0.00000000E+00  0.00000000E+00  0.00000000E+00
  0.00000000E+00  0.00000000E+00  0.00000000E+00  0.00000000E+00  0.00000000E+00
  0.00000000E+00  0.00000000E+00  0.00000000E+00  0.00000000E+00  0.00000000E+00
  0.00000000E+00  0.00000000E+00  0.00000000E+00  0.00000000E+00  0.00000000E+00
IOpCl                                      I                0
IROHF                                      I                0
Alpha Orbital Energies                     R   N=          74
 -1.88319079E+01 -1.88318816E+01 -1.00799837E+00 -8.19190640E-01 -4.73600456E-01
 -4.33089983E-01 -3.65460569E-01 -2.75571225E-01 -2.30759067E-01 -6.02423690E-02
 -3.87477845E-03  3.97287623E-02  3.37335056E-01  3.44360141E-01  3.51630305E-01
  3.72608185E-01  4.12633144E-01  4.42589734E-01  4.65341114E-01  5.21624700E-01
  5.87151029E-01  6.69370607E-01  1.01235733E+00  1.08036005E+00  1.18428513E+00
  1.22455305E+00  1.52033719E+00  1.53379503E+00  1.60220838E+00  1.64643783E+00
  1.74219232E+00  1.85057881E+00  1.95600977E+00  2.01696451E+00  2.07156588E+00
  2.09660578E+00  2.18525901E+00  2.22927692E+00  2.38636128E+00  2.40250368E+00
  2.42996355E+00  2.56750489E+00  2.56845908E+00  2.67555786E+00  2.71775843E+00
  3.56622314E+00  3.61227788E+00  3.84754011E+00  4.66006030E+00  4.72028511E+00
  4.74320381E+00  4.84242394E+00  4.94501711E+00  5.18817880E+00  5.25146834E+00
  5.25900239E+00  5.28247660E+00  5.56627642E+00  5.59257885E+00  5.85124363E+00
  5.95036464E+00  6.09805888E+00  6.11597873E+00  6.17029027E+00  6.19552110E+00
  6.25125568E+00  6.51497514E+00  6.61498453E+00  6.75450099E+00  6.81630600E+00
  7.02385816E+00  7.71457984E+00  4.26673046E+01  4.31422287E+01
Alpha MO coefficients                      R   N=        5476
 -3.06902471E-01 -4.50148526E-01 -2.71700150E-02  1.95081110E-02 -9.24309056E-03
  1.30126652E-03  6.70029171E-04 -7.09443259E-04 -2.52216732E-03 -1.75866543E-03
  1.84785027E-03  1.22475511E-03  1.11910879E-03 -1.23387553E-03 -4.87788281E-05
  3.29778744E-05  2.42482473E-04 -2.34504113E-05 -6.24128152E-05  3.34715278E-04
 -2.48118345E-04 -1.40311732E-03  6.91518232E-06  3.56353805E-04  3.99218018E-05
 -9.17844942E-05 -3.79785588E-04 -3.43048213E-04  2.70121096E-04  1.12286842E-06
  9.86796974E-05  3.08857940E-01  4.53018006E-01  2.73307016E-02 -1.96091942E-02
  9.28468504E-03  6.38412419E-04  1.48307486E-03 -2.49277333E-04 -1.39265845E-03
 -3.13857830E-03  1.05929488E-03  7.37529529E-04  1.71719225E-03 -8.92371600E-04
  1.22354866E-04 -3.10376493E-05 -1.40587839E-04 -1.17496578E-04  1.32673516E-04
 -6.97365901E-04  2.54810773E-04  9.08845874E-04  6.38269395E-04 -6.93105022E-04
 -3.06614471E-05 -1.91141705E-04 -4.79547922E-04 -2.06241642E-04  1.20949805E-04
  1.63406460E-04  6.44257632E-05 -5.99642740E-04 -1.01661151E-03  1.35809879E-03
 -7.51795190E-04  2.99854948E-04 -4.98316302E-04  6.03879684E-04  1.02299394E-03
 -1.37152586E-03 -2.28752820E-04 -3.39131226E-04 -8.63621728E-04  3.08836108E-01
  4.53189609E-01  2.53842423E-02 -1.59770008E-02  6.57968190E-03 -1.17690476E-03
 -2.54902095E-04  2.32397574E-04  1.82937394E-03 -2.19985742E-04  4.20564347E-04
 -1.12941103E-03  5.64376527E-05 -1.59650475E-04  9.39861486E-06  4.58965545E-05
 -1.33201745E-04  5.94042734E-05 -2.05723075E-05  2.13848810E-04 -4.57440769E-04
 -3.52025727E-05 -4.71195708E-04  2.94256856E-04 -6.62734046E-05 -1.64314344E-05
 -1.62133780E-06  1.17507157E-04 -6.32673822E-05  8.91088737E-05 -7.63793076E-05
  3.06880502E-01  4.50321222E-01  2.52111536E-02 -1.58527691E-02  6.52083744E-03
  4.73217096E-04  1.09246041E-03  2.51023351E-04 -5.91833389E-04 -1.24753163E-03
 -1.27351298E-03  3.84682336E-04  8.28552383E-04  6.74992600E-04  1.19066892E-04
  1.89100361E-05 -2.47320329E-06 -6.60231884E-05  6.77752079E-05 -2.77103368E-04
 -3.24315214E-04 -6.12759079E-04  5.34530969E-05 -9.42292834E-05 -2.55677079E-05
 -9.21943899E-05 -1.24779284E-04  5.46945317E-05 -7.94955902E-05  3.73439192E-05
 -1.84817526E-06  6.68856014E-04  1.00766181E-03 -2.11918806E-03  8.31295043E-04
 -9.00291323E-05  2.31494549E-04  6.65031276E-04  1.00118739E-03 -2.11051481E-03
 -2.98610806E-04 -5.50928595E-04 -5.91883277E-04 -7.00414814E-02 -1.63023505E-01
  2.39251034E-01  3.12640979E-01  9.68193779E-02 -6.00274407E-02 -3.37201767E-02
  3.89131565E-02 -4.89059442E-02 -2.88986498E-02  3.52050372E-02 -5.24188001E-03
 -2.33853293E-03  5.63737518E-03  4.09787010E-04 -1.33808639E-04 -3.79896270E-03
  1.11990142E-03  6.87785979E-04  3.02264109E-03 -2.15291671E-03 -1.06071783E-02
  2.46068743E-03  3.07713849E-03  6.20734407E-04 -2.24071933E-04 -1.93983468E-03
 -2.01583981E-03  1.76799322E-03 -5.26673430E-04  5.45769800E-04 -7.00413623E-02
 -1.63023222E-01  2.39250589E-01  3.12640603E-01  9.68191317E-02  2.87277446E-02
  7.16100922E-02 -1.73577537E-02  2.29390931E-02  6.03329280E-02 -1.73221365E-02
  9.60266684E-04  7.52161642E-03 -2.68864393E-03  2.11570081E-03 -1.11140272E-04
 -1.42792313E-03 -2.11424957E-03  2.31248688E-03  4.80922896E-03 -2.27962304E-04
 -6.55344427E-03 -6.44764473E-03  5.84011165E-03  2.59229540E-04  1.07692675E-03
  2.87532240E-03  8.57949480E-04 -5.96665286E-05 -1.24918285E-03 -4.10538150E-04
  6.08470189E-02  4.42265452E-02  3.91673776E-03  9.98373889E-03 -3.60666267E-03
  6.28064097E-03  6.08467183E-02  4.42263749E-02  3.91669863E-03 -3.16380717E-03
 -4.64923657E-03 -1.09773750E-02 -7.14363508E-02 -1.67230408E-01  2.54064071E-01
  3.26836430E-01  1.40927504E-01 -7.00798243E-02  3.22842203E-02 -5.64689434E-02
 -5.62234251E-02  2.28485390E-02 -4.12609322E-02 -9.43628340E-03  8.68577029E-03
 -1.06031838E-02 -1.95626686E-03  2.63188118E-03  3.61502115E-05  3.26769416E-03
 -1.23001482E-03 -4.17619541E-03  6.34284764E-03 -4.23338550E-04  7.10568773E-03
 -2.59940670E-03  1.07831292E-03  5.56406310E-04  9.57066082E-04 -1.14875914E-03
  7.28601210E-04 -1.37578003E-03  8.89738032E-04  7.14364817E-02  1.67230707E-01
 -2.54064477E-01 -3.26837239E-01 -1.40927811E-01 -2.22714147E-02 -2.55907950E-02
 -8.93933543E-02 -1.84875567E-02 -2.28331748E-02 -6.72487749E-02 -8.31033799E-04
 -1.73143351E-03 -1.65294786E-02 -1.33152532E-03 -1.84709817E-03 -3.92145357E-03
  5.59507289E-04 -1.43872779E-03 -3.55008693E-03 -4.19836574E-03 -8.45906933E-03
  1.01615672E-03 -3.50449384E-03 -5.89825261E-04 -9.68801770E-04 -1.05105647E-03
  1.31933840E-03 -1.57596020E-03  4.92191599E-04 -2.55898851E-04  9.09108982E-02
  7.46271505E-02  1.02326806E-02  1.41928071E-02 -1.77096278E-03  4.28349297E-03
 -9.09105199E-02 -7.46269150E-02 -1.02326420E-02  5.08541844E-03  9.25403699E-03
  1.05555575E-02  1.73963141E-03  4.01160087E-03 -4.50712053E-03 -2.06500332E-02
 -1.21329439E-02 -1.21173963E-01  2.08498280E-01 -1.99738335E-01 -8.69004918E-02
  1.67763265E-01 -1.57890580E-01 -4.27098918E-02  7.59133269E-02 -7.07932965E-02
 -1.82117264E-03  4.51068953E-03  3.13098472E-03  5.17864332E-03 -3.51394145E-03
 -3.29070793E-03  1.05443075E-02  9.28766654E-03  1.24559533E-02 -1.23502281E-02
  2.47065338E-03 -1.03986405E-06  2.59859229E-03  1.00437904E-03  2.65215397E-04
 -1.99178128E-03  9.29198284E-04  1.73924473E-03  4.01068605E-03 -4.50566024E-03
 -2.06482014E-02 -1.21305365E-02 -3.93955833E-02 -1.41214901E-02  3.10319382E-01
 -3.64101906E-02 -1.84898824E-02  2.42812362E-01 -1.56986519E-02 -5.20693375E-03
  1.11018017E-01  1.21250883E-03  4.35619881E-03  7.18660103E-03 -7.05185172E-06
 -7.33440664E-04  3.57918785E-03  1.06594731E-02  1.88557201E-02 -6.37281591E-04
 -5.79421023E-03  1.66877279E-03 -6.12470990E-05 -4.66965699E-04 -1.85249429E-03
  3.40145900E-03  7.41247338E-04 -4.57004860E-04  1.06956198E-01  1.30665262E-01
  4.78402381E-02  1.32717391E-02  6.04185281E-03 -1.25644105E-03  1.06955474E-01
  1.30664388E-01  4.78401071E-02 -8.62981497E-03 -1.16611756E-02 -1.94025846E-03
 -3.01894673E-02 -7.13559984E-02  1.11715341E-01  1.53965148E-01  1.54079423E-01
  2.53994228E-01  5.84575054E-02  1.01918587E-01  1.89374978E-01  4.61587786E-02
  8.18844589E-02  1.02014670E-01  4.32157652E-02  3.63054587E-02  3.40669981E-03
 -1.39974933E-03  2.61934344E-04 -3.62468235E-03 -1.15362814E-03  1.55388790E-02
  2.43221923E-03 -2.72517576E-04 -7.47445022E-03 -9.46907074E-03  1.31703517E-03
  1.34882992E-05 -1.42472778E-03  1.32013134E-03 -2.36054117E-03  5.88816080E-04
  4.71947671E-04  3.01896045E-02  7.13563226E-02 -1.11715866E-01 -1.53965799E-01
 -1.54080151E-01  1.77090488E-01  1.51554742E-01  1.54882701E-01  1.36918044E-01
  1.09661428E-01  1.18011995E-01  8.52127394E-02  6.35557173E-02  4.78772252E-02
 -5.49049894E-04  1.13338493E-03  3.45853017E-03 -9.09083139E-04  3.70530615E-03
 -9.46187981E-03 -2.97406620E-03  8.20460060E-03 -2.23827636E-03  1.49090314E-02
  1.56507662E-03  1.64153355E-03 -3.95872507E-04 -5.62465038E-04 -3.68429709E-04
 -2.36688746E-03  5.41976938E-04 -9.35082003E-02 -1.34736705E-01 -5.01465202E-02
 -7.05582854E-03  8.59714546E-03 -5.57734137E-03  9.35091313E-02  1.34738207E-01
  5.01470699E-02  2.21163002E-03 -2.62182554E-03 -1.19598911E-02  2.13222831E-02
  5.05786782E-02 -8.11375898E-02 -1.00002414E-01 -1.31434794E-01 -2.38653171E-01
  1.34672286E-02  2.15599595E-01 -1.82661257E-01  7.91430273E-03  1.74411669E-01
 -1.18528892E-01  1.60767774E-02  1.19495333E-01  2.85189912E-04 -2.52565637E-03
 -1.15217982E-03  3.39891380E-03  5.07457558E-04  3.20869866E-03 -1.67447032E-02
 -1.97719013E-04  1.26640664E-02  2.02832514E-03  1.23714902E-03 -2.06653185E-04
 -2.59466468E-03  8.70805575E-04  2.22403162E-03 -9.84562638E-04 -4.28201688E-04
  2.13221882E-02  5.05784497E-02 -8.11371905E-02 -1.00002100E-01 -1.31433896E-01
 -3.58194300E-02  3.18794999E-01 -2.65750502E-02 -2.98465798E-02  2.49336669E-01
 -2.80611513E-02 -3.13393201E-02  1.65345932E-01 -1.62837227E-02 -1.10229565E-03
  9.19543257E-04 -2.19446454E-04 -4.02930488E-03  1.11973218E-03 -1.05229425E-02
  2.63193344E-03 -3.12620994E-03 -1.81041946E-02 -1.29931432E-04  5.37105857E-04
 -1.14838420E-03  1.85151104E-03  1.47329308E-03  6.05409693E-04 -1.53306854E-03
 -2.28909061E-03  4.31762371E-02  6.42162735E-02  9.74164036E-03 -1.65180216E-03
 -8.52899271E-04  1.44599143E-02  4.31760669E-02  6.42160865E-02  9.74155536E-03
 -5.54462463E-03  9.56442109E-03 -9.50385002E-03  1.28247076E-02  3.05509094E-02
 -5.03545759E-02 -5.32983044E-02 -1.21713319E-01 -1.49430704E-01 -2.69370465E-01
 -1.59400687E-01 -1.07704842E-01 -2.15756492E-01 -1.19164628E-01 -7.37105297E-02
 -1.71769235E-01 -1.05596128E-01 -1.36457943E-03  3.63567453E-03 -1.15872907E-03
  1.47859041E-03  9.67040982E-04 -1.74212207E-03  1.34150215E-02 -2.43226970E-03
  6.71860086E-05  6.78079380E-03 -6.22905303E-04  3.16301156E-04  1.20564186E-04
 -3.68967426E-03 -7.60593282E-04 -1.10641299E-03 -1.74239741E-04  1.28246717E-02
  3.05508267E-02 -5.03544897E-02 -5.32978540E-02 -1.21713739E-01  3.44301093E-01
  3.34688133E-02  2.51950564E-02  2.67955252E-01  2.17641634E-02  8.80141252E-03
  2.14503804E-01  1.33059255E-03  8.63355937E-03  1.93673110E-03  1.60675843E-03
  1.71748926E-03  1.23933573E-03  2.95395529E-03  5.53736869E-03  5.61010646E-03
  1.15817736E-03  9.21347957E-03  9.30220639E-03 -1.56881812E-03  2.80904171E-03
  1.05250146E-03 -1.15281707E-04  4.40580826E-04 -9.07195242E-04  1.85986563E-03
  6.14234564E-02  1.09454809E-01  2.68886007E-02  7.15496324E-03 -1.42153373E-02
 -5.90096298E-03  6.14235243E-02  1.09455045E-01  2.68883386E-02  1.21849865E-02
 -9.19697069E-03 -7.41832034E-03  8.58587339E-03  2.03473965E-02 -3.18548451E-02
 -5.00771840E-02 -5.45887005E-02 -1.23990393E-01  2.74888387E-01  2.03593397E-01
 -9.14830605E-02  2.14572764E-01  1.60551009E-01 -7.33427096E-02  1.89635655E-01
  1.55316079E-01 -8.54703295E-04  2.09582474E-04 -8.63811035E-04  1.53519118E-03
 -3.42922268E-03 -3.15659782E-03 -1.81775007E-03 -3.23231074E-03 -5.42534243E-04
 -1.57944539E-02  1.50163478E-03  1.67565833E-03 -1.41102758E-03  6.24373894E-04
  3.72207751E-04 -5.29274605E-04  2.09900282E-03 -8.58584625E-03 -2.03473256E-02
  3.18546529E-02  5.00773605E-02  5.45880728E-02  2.82149088E-01 -2.16764857E-01
 -7.61100882E-02  2.22698758E-01 -1.65760808E-01 -5.58224902E-02  2.05506649E-01
 -1.47926671E-01 -3.67243271E-02 -1.97175798E-03  3.85142651E-04 -2.54235732E-03
  1.98704312E-03  1.09036088E-03 -7.87577229E-03  7.03748240E-03 -7.66851024E-03
  5.87370367E-03  8.28339395E-03  3.82989995E-04  1.28587526E-03 -2.40959768E-03
  1.57089075E-03 -4.81157569E-04 -4.01370408E-04  1.34218552E-03  4.00369450E-02
  6.90099911E-02  3.54461084E-02  2.41729322E-03  1.52167925E-02  1.14595633E-02
 -4.00368820E-02 -6.90097450E-02 -3.54462316E-02  1.86742398E-02 -4.46305613E-03
  2.63511372E-04 -3.18229371E-02 -7.68439961E-02  1.40091149E-01  1.57268248E-01
  4.99465490E-01 -1.30495048E-01 -2.25692223E-01  2.62079291E-01 -9.91761629E-02
 -1.79093671E-01  2.18685854E-01 -1.89793175E-01 -2.84888107E-01  2.98140960E-01
 -2.50645224E-03 -5.55226978E-04  4.38221648E-03  2.33018031E-03  7.26808007E-04
 -1.04634874E-02 -3.93892675E-03  1.61150628E-02  1.06970750E-02  4.27134835E-03
  9.45866176E-05  2.05016075E-03  2.95487784E-04  5.66866014E-04 -2.05031614E-03
 -1.74007750E-03 -7.79287827E-04  3.18228703E-02  7.68438270E-02 -1.40090759E-01
 -1.57268414E-01 -4.99463373E-01 -1.04796343E-01 -2.56801361E-01  2.44381922E-01
 -7.67386219E-02 -2.06255148E-01  2.03234219E-01 -1.55608047E-01 -3.26269971E-01
  2.74599597E-01  4.23344430E-03 -1.24630619E-03 -3.48900017E-03 -3.05845050E-04
 -1.00624200E-04  1.77694508E-02 -4.71068602E-03 -1.31858795E-02  8.53188645E-04
 -2.19645099E-03  2.55731217E-03  7.71709303E-04  1.00718282E-03  1.28583103E-03
 -1.59467454E-03  3.12216073E-04 -1.26823663E-04 -1.66941253E-02 -3.99508305E-02
 -2.92103544E-01  1.15661360E-03 -1.41368317E-02  1.84175474E-02  1.66938234E-02
  3.99500008E-02  2.92101711E-01 -2.64371850E-03 -9.53615319E-03  2.10347904E-02
  2.26329461E-02  5.60980348E-02 -1.22580583E-01 -2.27030851E-02 -6.44949911E-01
  1.26296681E-01 -4.72627150E-02  6.56225019E-02  8.07773107E-02 -3.83800017E-02
  4.70492494E-02  2.61506820E-01 -6.11567361E-02  1.19283330E-01 -8.88711539E-04
  1.40302206E-03  7.20521847E-04  3.07628510E-04 -3.40313244E-04 -3.48467599E-03
  7.49721810E-03  5.42717866E-03  1.72588207E-03 -2.47389136E-03 -4.24661889E-04
  1.05886925E-03  9.38170052E-04  2.00838992E-04 -1.28499816E-03  9.34194907E-05
 -2.15676442E-05  2.26330425E-02  5.60982693E-02 -1.22581048E-01 -2.27032696E-02
 -6.44954225E-01 -3.21955683E-02 -6.66539904E-02 -1.30430753E-01 -1.62578240E-02
 -3.97263985E-02 -9.14850344E-02 -8.91180073E-02 -1.47534267E-01 -2.38007198E-01
  2.53996708E-04  4.53905734E-04  1.51214470E-03  9.41728221E-04  2.09604187E-04