 Entering Gaussian System, Link 0=g16
 Initial command:
 /util/academic/gaussian/g16.A03/x86-64-SSE4_2/g16/l1.exe "/scratch/2822603/Gau-8623.inp" -scrdir="/scratch/2822603/"
 Entering Link 1 = /util/academic/gaussian/g16.A03/x86-64-SSE4_2/g16/l1.exe PID=      8624.
  
 Copyright (c) 1988,1990,1992,1993,1995,1998,2003,2009,2016,
            Gaussian, Inc.  All Rights Reserved.
  
 This is part of the Gaussian(R) 16 program.  It is based on
 the Gaussian(R) 09 system (copyright 2009, Gaussian, Inc.),
 the Gaussian(R) 03 system (copyright 2003, Gaussian, Inc.),
 the Gaussian(R) 98 system (copyright 1998, Gaussian, Inc.),
 the Gaussian(R) 94 system (copyright 1995, Gaussian, Inc.),
 the Gaussian 92(TM) system (copyright 1992, Gaussian, Inc.),
 the Gaussian 90(TM) system (copyright 1990, Gaussian, Inc.),
 the Gaussian 88(TM) system (copyright 1988, Gaussian, Inc.),
 the Gaussian 86(TM) system (copyright 1986, Carnegie Mellon
 University), and the Gaussian 82(TM) system (copyright 1983,
 Carnegie Mellon University). Gaussian is a federally registered
 trademark of Gaussian, Inc.
  
 This software contains proprietary and confidential information,
 including trade secrets, belonging to Gaussian, Inc.
  
 This software is provided under written license and may be
 used, copied, transmitted, or stored only in accord with that
 written license.
  
 The following legend is applicable only to US Government
 contracts under FAR:
  
                    RESTRICTED RIGHTS LEGEND
  
 Use, reproduction and disclosure by the US Government is
 subject to restrictions as set forth in subparagraphs (a)
 and (c) of the Commercial Computer Software - Restricted
 Rights clause in FAR 52.227-19.
  
 Gaussian, Inc.
 340 Quinnipiac St., Bldg. 40, Wallingford CT 06492
  
  
 ---------------------------------------------------------------
 Warning -- This program may not be used in any manner that
 competes with the business of Gaussian, Inc. or will provide
 assistance to any competitor of Gaussian, Inc.  The licensee
 of this program is prohibited from giving any competitor of
 Gaussian, Inc. access to this program.  By using this program,
 the user acknowledges that Gaussian, Inc. is engaged in the
 business of creating and licensing software in the field of
 computational chemistry and represents and warrants to the
 licensee that it is not a competitor of Gaussian, Inc. and that
 it will not use this program in any manner prohibited above.
 ---------------------------------------------------------------
  

 Cite this work as:
 Gaussian 16, Revision A.03,
 M. J. Frisch, G. W. Trucks, H. B. Schlegel, G. E. Scuseria, 
 M. A. Robb, J. R. Cheeseman, G. Scalmani, V. Barone, 
 G. A. Petersson, H. Nakatsuji, X. Li, M. Caricato, A. V. Marenich, 
 J. Bloino, B. G. Janesko, R. Gomperts, B. Mennucci, H. P. Hratchian, 
 J. V. Ortiz, A. F. Izmaylov, J. L. Sonnenberg, D. Williams-Young, 
 F. Ding, F. Lipparini, F. Egidi, J. Goings, B. Peng, A. Petrone, 
 T. Henderson, D. Ranasinghe, V. G. Zakrzewski, J. Gao, N. Rega, 
 G. Zheng, W. Liang, M. Hada, M. Ehara, K. Toyota, R. Fukuda, 
 J. Hasegawa, M. Ishida, T. Nakajima, Y. Honda, O. Kitao, H. Nakai, 
 T. Vreven, K. Throssell, J. A. Montgomery, Jr., J. E. Peralta, 
 F. Ogliaro, M. J. Bearpark, J. J. Heyd, E. N. Brothers, K. N. Kudin, 
 V. N. Staroverov, T. A. Keith, R. Kobayashi, J. Normand, 
 K. Raghavachari, A. P. Rendell, J. C. Burant, S. S. Iyengar, 
 J. Tomasi, M. Cossi, J. M. Millam, M. Klene, C. Adamo, R. Cammi, 
 J. W. Ochterski, R. L. Martin, K. Morokuma, O. Farkas, 
 J. B. Foresman, and D. J. Fox, Gaussian, Inc., Wallingford CT, 2016.
 
 ******************************************
 Gaussian 16:  ES64L-G16RevA.03 25-Dec-2016
                19-Mar-2019 
 ******************************************
 %Mem=1GB
 %Chk=chk.chk
 %NProc=2
 Will use up to    2 processors via shared memory.
 -----------------------------------------------------
 #P PBE1PBE/cc-pVDZ NMR SCF=Tight Int=UltraFine NoSymm
 -----------------------------------------------------
 1/38=1,172=1/1;
 2/12=2,15=1,17=6,18=5,40=1/2;
 3/5=16,11=2,25=1,30=1,74=-13,75=-5/1,2,3,8;
 4//1;
 5/5=2,32=2,38=5/2;
 8/6=1,10=90,11=11/1;
 10/13=100,31=1,45=16/2;
 6/7=2,8=2,9=2,10=2,28=1/1;
 99/9=1/99;
 Leave Link    1 at Tue Mar 19 17:22:34 2019, MaxMem=   134217728 cpu:               0.1 elap:               0.0
 (Enter /util/academic/gaussian/g16.A03/x86-64-SSE4_2/g16/l101.exe)
 ----------------------------------------------------
 nitromal_prop_00.inp -- generated by exatomic.v0.4.1
 ----------------------------------------------------
 Symbolic Z-matrix:
 Charge =  0 Multiplicity = 1
 H                     0.11323  -2.24615   0. 
 H                    -3.11444  -1.15305   0. 
 H                    -2.6042    0.55132   0. 
 H                     3.33139  -0.30337   0. 
 H                     2.38471   1.19597   0. 
 C                     1.33814  -0.55741   0. 
 O                     1.43928  -1.81537   0. 
 N                     2.45109   0.1875    0. 
 C                     0.        0.05406   0. 
 C                    -1.13069  -0.83284   0. 
 O                    -0.93765  -2.12      0. 
 N                    -0.18957   1.45427   0. 
 O                     0.79664   2.20992   0. 
 O                    -1.34554   1.92097   0. 
 N                    -2.40112  -0.44058   0. 
 
 ITRead=  0  0  0  0  0  0  0  0  0  0  0  0  0  0  0
 MicOpt= -1 -1 -1 -1 -1 -1 -1 -1 -1 -1 -1 -1 -1 -1 -1
 NAtoms=     15 NQM=       15 NQMF=       0 NMMI=      0 NMMIF=      0
                NMic=       0 NMicF=      0.
                    Isotopes and Nuclear Properties:
 (Nuclear quadrupole moments (NQMom) in fm**2, nuclear magnetic moments (NMagM)
  in nuclear magnetons)

  Atom         1           2           3           4           5           6           7           8           9          10
 IAtWgt=           1           1           1           1           1          12          16          14          12          12
 AtmWgt=   1.0078250   1.0078250   1.0078250   1.0078250   1.0078250  12.0000000  15.9949146  14.0030740  12.0000000  12.0000000
 NucSpn=           1           1           1           1           1           0           0           2           0           0
 AtZEff=  -0.0000000  -0.0000000  -0.0000000  -0.0000000  -0.0000000  -0.0000000  -0.0000000  -0.0000000  -0.0000000  -0.0000000
 NQMom=    0.0000000   0.0000000   0.0000000   0.0000000   0.0000000   0.0000000   0.0000000   2.0440000   0.0000000   0.0000000
 NMagM=    2.7928460   2.7928460   2.7928460   2.7928460   2.7928460   0.0000000   0.0000000   0.4037610   0.0000000   0.0000000
 AtZNuc=   1.0000000   1.0000000   1.0000000   1.0000000   1.0000000   6.0000000   8.0000000   7.0000000   6.0000000   6.0000000

  Atom        11          12          13          14          15
 IAtWgt=          16          14          16          16          14
 AtmWgt=  15.9949146  14.0030740  15.9949146  15.9949146  14.0030740
 NucSpn=           0           2           0           0           2
 AtZEff=  -0.0000000  -0.0000000  -0.0000000  -0.0000000  -0.0000000
 NQMom=    0.0000000   2.0440000   0.0000000   0.0000000   2.0440000
 NMagM=    0.0000000   0.4037610   0.0000000   0.0000000   0.4037610
 AtZNuc=   8.0000000   7.0000000   8.0000000   8.0000000   7.0000000
 Leave Link  101 at Tue Mar 19 17:22:34 2019, MaxMem=   134217728 cpu:               0.2 elap:               0.1
 (Enter /util/academic/gaussian/g16.A03/x86-64-SSE4_2/g16/l202.exe)
                          Input orientation:                          
 ---------------------------------------------------------------------
 Center     Atomic      Atomic             Coordinates (Angstroms)
 Number     Number       Type             X           Y           Z
 ---------------------------------------------------------------------
      1          1           0        0.113225   -2.246153    0.000000
      2          1           0       -3.114439   -1.153049    0.000000
      3          1           0       -2.604195    0.551321    0.000000
      4          1           0        3.331386   -0.303365    0.000000
      5          1           0        2.384715    1.195970    0.000000
      6          6           0        1.338138   -0.557407    0.000000
      7          8           0        1.439276   -1.815370    0.000000
      8          7           0        2.451087    0.187500    0.000000
      9          6           0        0.000000    0.054058    0.000000
     10          6           0       -1.130692   -0.832839    0.000000
     11          8           0       -0.937651   -2.120000    0.000000
     12          7           0       -0.189571    1.454266    0.000000
     13          8           0        0.796638    2.209915    0.000000
     14          8           0       -1.345536    1.920966    0.000000
     15          7           0       -2.401115   -0.440578    0.000000
 ---------------------------------------------------------------------
                    Distance matrix (angstroms):
                    1          2          3          4          5
     1  H    0.000000
     2  H    3.407740   0.000000
     3  H    3.900030   1.779108   0.000000
     4  H    3.759120   6.501586   5.996800   0.000000
     5  H    4.124061   5.979848   5.030387   1.773187   0.000000
     6  C    2.086211   4.492241   4.095274   2.009372   2.041973
     7  O    1.394269   4.601629   4.685177   2.422032   3.156267
     8  N    3.374650   5.724697   5.068357   1.007906   1.010652
     9  C    2.302996   3.340185   2.651245   3.350505   2.644018
    10  C    1.882760   2.009424   2.021660   4.493382   4.058836
    11  O    1.058421   2.381890   3.148543   4.639487   4.694015
    12  N    3.712787   3.918283   2.577929   3.935277   2.587212
    13  O    4.508170   5.158105   3.783728   3.569527   1.884164
    14  O    4.415072   3.546630   1.860148   5.178923   3.800052
    15  N    3.095482   1.008189   1.012475   5.734143   5.057910
                    6          7          8          9         10
     6  C    0.000000
     7  O    1.262022   0.000000
     8  N    1.339232   2.243936   0.000000
     9  C    1.471225   2.359296   2.454717   0.000000
    10  C    2.484147   2.751382   3.724276   1.437028   0.000000
    11  O    2.760600   2.396368   4.099768   2.367640   1.301556
    12  N    2.526009   3.652898   2.928783   1.412983   2.473168
    13  O    2.819804   4.076261   2.612922   2.298337   3.601799
    14  O    3.653004   4.659977   4.173638   2.301263   2.762173
    15  N    3.741078   4.079051   4.892683   2.451534   1.329603
                   11         12         13         14         15
    11  O    0.000000
    12  N    3.651712   0.000000
    13  O    4.664324   1.242422   0.000000
    14  O    4.061499   1.246621   2.161574   0.000000
    15  N    2.227596   2.912278   4.153401   2.586723   0.000000
 Symmetry turned off by external request.
 Stoichiometry    C3H5N3O4
 Framework group  CS[SG(C3H5N3O4)]
 Deg. of freedom    27
 Full point group                 CS      NOp   2
 Rotational constants (GHZ):           1.6050188           1.5692402           0.7934639
 Leave Link  202 at Tue Mar 19 17:22:34 2019, MaxMem=   134217728 cpu:               0.0 elap:               0.0
 (Enter /util/academic/gaussian/g16.A03/x86-64-SSE4_2/g16/l301.exe)
 Standard basis: CC-pVDZ (5D, 7F)
 Ernie: Thresh=  0.10000D-02 Tol=  0.10000D-05 Strict=F.
 Ernie:  20 primitive shells out of 245 were deleted.
   165 basis functions,   365 primitive gaussians,   175 cartesian basis functions
    38 alpha electrons       38 beta electrons
       nuclear repulsion energy       565.2086308894 Hartrees.
 IExCor= 1009 DFT=T Ex+Corr=PBE1PBE ExCW=0 ScaHFX=  0.250000
 ScaDFX=  0.750000  0.750000  1.000000  1.000000 ScalE2=  1.000000  1.000000
 IRadAn=      5 IRanWt=     -1 IRanGd=            0 ICorTp=0 IEmpDi=  4
 NAtoms=   15 NActive=   15 NUniq=   15 SFac= 1.00D+00 NAtFMM=   60 NAOKFM=F Big=F
 Integral buffers will be    131072 words long.
 Raffenetti 2 integral format.
 Two-electron integral symmetry is turned off.
 Leave Link  301 at Tue Mar 19 17:22:34 2019, MaxMem=   134217728 cpu:               0.1 elap:               0.1
 (Enter /util/academic/gaussian/g16.A03/x86-64-SSE4_2/g16/l302.exe)
 NPDir=0 NMtPBC=     1 NCelOv=     1 NCel=       1 NClECP=     1 NCelD=      1
         NCelK=      1 NCelE2=     1 NClLst=     1 CellRange=     0.0.
 One-electron integrals computed using PRISM.
 NBasis=   165 RedAO= T EigKep=  1.06D-03  NBF=   165
 NBsUse=   165 1.00D-06 EigRej= -1.00D+00 NBFU=   165
 Precomputing XC quadrature grid using
 IXCGrd= 4 IRadAn=           5 IRanWt=          -1 IRanGd=           0 AccXCQ= 0.00D+00.
 Generated NRdTot=       0 NPtTot=           0 NUsed=           0 NTot=          32
 NSgBfM=   175   175   175   175   175 MxSgAt=    15 MxSgA2=    15.
 Leave Link  302 at Tue Mar 19 17:22:34 2019, MaxMem=   134217728 cpu:               0.9 elap:               0.5
 (Enter /util/academic/gaussian/g16.A03/x86-64-SSE4_2/g16/l303.exe)
 DipDrv:  MaxL=1.
 Leave Link  303 at Tue Mar 19 17:22:34 2019, MaxMem=   134217728 cpu:               0.1 elap:               0.1
 (Enter /util/academic/gaussian/g16.A03/x86-64-SSE4_2/g16/l308.exe)
 Leave Link  308 at Tue Mar 19 17:22:35 2019, MaxMem=   134217728 cpu:               0.1 elap:               0.3
 (Enter /util/academic/gaussian/g16.A03/x86-64-SSE4_2/g16/l401.exe)
 ExpMin= 1.22D-01 ExpMax= 1.17D+04 ExpMxC= 4.01D+02 IAcc=3 IRadAn=         5 AccDes= 0.00D+00
 Harris functional with IExCor= 1009 and IRadAn=       5 diagonalized for initial guess.
 HarFok:  IExCor= 1009 AccDes= 0.00D+00 IRadAn=         5 IDoV= 1 UseB2=F ITyADJ=14
 ICtDFT=  3500011 ScaDFX=  1.000000  1.000000  1.000000  1.000000
 FoFCou: FMM=F IPFlag=           0 FMFlag=      100000 FMFlg1=           0
         NFxFlg=           0 DoJE=T BraDBF=F KetDBF=T FulRan=T
         wScrn=  0.000000 ICntrl=       500 IOpCl=  0 I1Cent=   200000004 NGrid=           0
         NMat0=    1 NMatS0=      1 NMatT0=    0 NMatD0=    1 NMtDS0=    0 NMtDT0=    0
 Symmetry not used in FoFCou.
 Harris En= -581.952146694567    
 JPrj=0 DoOrth=F DoCkMO=F.
 Leave Link  401 at Tue Mar 19 17:22:39 2019, MaxMem=   134217728 cpu:               8.3 elap:               4.2
 (Enter /util/academic/gaussian/g16.A03/x86-64-SSE4_2/g16/l502.exe)
 Keep R1 ints in memory in canonical form, NReq=96509839.
 FoFCou: FMM=F IPFlag=           0 FMFlag=           0 FMFlg1=           0
         NFxFlg=           0 DoJE=F BraDBF=F KetDBF=F FulRan=T
         wScrn=  0.000000 ICntrl=       600 IOpCl=  0 I1Cent=           0 NGrid=           0
         NMat0=    1 NMatS0=  13695 NMatT0=    0 NMatD0=    1 NMtDS0=    0 NMtDT0=    0
 Symmetry not used in FoFCou.
 Two-electron integral symmetry not used.
 Closed shell SCF:
 Using DIIS extrapolation, IDIIS=  1040.
 NGot=   134217728 LenX=    40370586 LenY=    40339520
 Requested convergence on RMS density matrix=1.00D-08 within 128 cycles.
 Requested convergence on MAX density matrix=1.00D-06.
 Requested convergence on             energy=1.00D-06.
 No special actions if energy rises.
 Integral accuracy reduced to 1.0D-05 until final iterations.

 Cycle   1  Pass 0  IDiag  1:
 E= -581.605609058213    
 DIIS: error= 5.27D-02 at cycle   1 NSaved=   1.
 NSaved= 1 IEnMin= 1 EnMin= -581.605609058213     IErMin= 1 ErrMin= 5.27D-02
 ErrMax= 5.27D-02  0.00D+00 EMaxC= 1.00D-01 BMatC= 3.60D-01 BMatP= 3.60D-01
 IDIUse=3 WtCom= 4.73D-01 WtEn= 5.27D-01
 Coeff-Com:  0.100D+01
 Coeff-En:   0.100D+01
 Coeff:      0.100D+01
 Gap=     0.144 Goal=   None    Shift=    0.000
 GapD=    0.144 DampG=1.000 DampE=0.500 DampFc=0.5000 IDamp=-1.
 Damping current iteration by 5.00D-01
 RMSDP=7.32D-03 MaxDP=2.11D-01              OVMax= 2.94D-01

 Cycle   2  Pass 0  IDiag  1:
 E= -581.665388741814     Delta-E=       -0.059779683601 Rises=F Damp=T
 DIIS: error= 1.57D-02 at cycle   2 NSaved=   2.
 NSaved= 2 IEnMin= 2 EnMin= -581.665388741814     IErMin= 2 ErrMin= 1.57D-02
 ErrMax= 1.57D-02  0.00D+00 EMaxC= 1.00D-01 BMatC= 5.15D-02 BMatP= 3.60D-01
 IDIUse=3 WtCom= 8.43D-01 WtEn= 1.57D-01
 Coeff-Com:  0.235D+00 0.765D+00
 Coeff-En:   0.386D+00 0.614D+00
 Coeff:      0.259D+00 0.741D+00
 Gap=     0.239 Goal=   None    Shift=    0.000
 RMSDP=1.83D-03 MaxDP=6.66D-02 DE=-5.98D-02 OVMax= 1.82D-01

 Cycle   3  Pass 0  IDiag  1:
 E= -581.849393086019     Delta-E=       -0.184004344204 Rises=F Damp=F
 DIIS: error= 9.42D-03 at cycle   3 NSaved=   3.
 NSaved= 3 IEnMin= 3 EnMin= -581.849393086019     IErMin= 3 ErrMin= 9.42D-03
 ErrMax= 9.42D-03  0.00D+00 EMaxC= 1.00D-01 BMatC= 1.62D-02 BMatP= 5.15D-02
 IDIUse=3 WtCom= 9.06D-01 WtEn= 9.42D-02
 Coeff-Com:  0.895D-01 0.377D+00 0.533D+00
 Coeff-En:   0.000D+00 0.000D+00 0.100D+01
 Coeff:      0.811D-01 0.342D+00 0.577D+00
 Gap=     0.211 Goal=   None    Shift=    0.000
 RMSDP=9.23D-04 MaxDP=3.71D-02 DE=-1.84D-01 OVMax= 5.07D-02

 Cycle   4  Pass 0  IDiag  1:
 E= -581.862001669783     Delta-E=       -0.012608583764 Rises=F Damp=F
 DIIS: error= 3.91D-03 at cycle   4 NSaved=   4.
 NSaved= 4 IEnMin= 4 EnMin= -581.862001669783     IErMin= 4 ErrMin= 3.91D-03
 ErrMax= 3.91D-03  0.00D+00 EMaxC= 1.00D-01 BMatC= 2.86D-03 BMatP= 1.62D-02
 IDIUse=3 WtCom= 9.61D-01 WtEn= 3.91D-02
 Coeff-Com:  0.186D-01 0.734D-01 0.307D+00 0.601D+00
 Coeff-En:   0.000D+00 0.000D+00 0.124D+00 0.876D+00
 Coeff:      0.179D-01 0.705D-01 0.299D+00 0.612D+00
 Gap=     0.204 Goal=   None    Shift=    0.000
 RMSDP=3.65D-04 MaxDP=1.04D-02 DE=-1.26D-02 OVMax= 1.94D-02

 Cycle   5  Pass 0  IDiag  1:
 E= -581.864170285674     Delta-E=       -0.002168615892 Rises=F Damp=F
 DIIS: error= 1.19D-03 at cycle   5 NSaved=   5.
 NSaved= 5 IEnMin= 5 EnMin= -581.864170285674     IErMin= 5 ErrMin= 1.19D-03
 ErrMax= 1.19D-03  0.00D+00 EMaxC= 1.00D-01 BMatC= 3.28D-04 BMatP= 2.86D-03
 IDIUse=3 WtCom= 9.88D-01 WtEn= 1.19D-02
 Coeff-Com:  0.147D-02-0.335D-03 0.111D+00 0.347D+00 0.541D+00
 Coeff-En:   0.000D+00 0.000D+00 0.000D+00 0.333D-01 0.967D+00
 Coeff:      0.145D-02-0.331D-03 0.110D+00 0.343D+00 0.546D+00
 Gap=     0.205 Goal=   None    Shift=    0.000
 RMSDP=1.11D-04 MaxDP=3.96D-03 DE=-2.17D-03 OVMax= 6.80D-03

 Cycle   6  Pass 0  IDiag  1:
 E= -581.864424922439     Delta-E=       -0.000254636765 Rises=F Damp=F
 DIIS: error= 2.92D-04 at cycle   6 NSaved=   6.
 NSaved= 6 IEnMin= 6 EnMin= -581.864424922439     IErMin= 6 ErrMin= 2.92D-04
 ErrMax= 2.92D-04  0.00D+00 EMaxC= 1.00D-01 BMatC= 2.39D-05 BMatP= 3.28D-04
 IDIUse=3 WtCom= 9.97D-01 WtEn= 2.92D-03
 Coeff-Com:  0.567D-04-0.258D-02 0.498D-01 0.166D+00 0.316D+00 0.471D+00
 Coeff-En:   0.000D+00 0.000D+00 0.000D+00 0.000D+00 0.000D+00 0.100D+01
 Coeff:      0.566D-04-0.257D-02 0.497D-01 0.165D+00 0.315D+00 0.473D+00
 Gap=     0.205 Goal=   None    Shift=    0.000
 RMSDP=3.06D-05 MaxDP=9.85D-04 DE=-2.55D-04 OVMax= 1.52D-03

 Cycle   7  Pass 0  IDiag  1:
 E= -581.864442273604     Delta-E=       -0.000017351165 Rises=F Damp=F
 DIIS: error= 8.06D-05 at cycle   7 NSaved=   7.
 NSaved= 7 IEnMin= 7 EnMin= -581.864442273604     IErMin= 7 ErrMin= 8.06D-05
 ErrMax= 8.06D-05  0.00D+00 EMaxC= 1.00D-01 BMatC= 1.88D-06 BMatP= 2.39D-05
 IDIUse=1 WtCom= 1.00D+00 WtEn= 0.00D+00
 Coeff-Com: -0.261D-03-0.161D-02 0.133D-01 0.463D-01 0.108D+00 0.264D+00
 Coeff-Com:  0.571D+00
 Coeff:     -0.261D-03-0.161D-02 0.133D-01 0.463D-01 0.108D+00 0.264D+00
 Coeff:      0.571D+00
 Gap=     0.205 Goal=   None    Shift=    0.000
 RMSDP=9.23D-06 MaxDP=3.85D-04 DE=-1.74D-05 OVMax= 5.00D-04

 Initial convergence to 1.0D-05 achieved.  Increase integral accuracy.
 Cycle   8  Pass 1  IDiag  1:
 E= -581.864458457595     Delta-E=       -0.000016183990 Rises=F Damp=F
 DIIS: error= 6.28D-05 at cycle   1 NSaved=   1.
 NSaved= 1 IEnMin= 1 EnMin= -581.864458457595     IErMin= 1 ErrMin= 6.28D-05
 ErrMax= 6.28D-05  0.00D+00 EMaxC= 1.00D-01 BMatC= 3.63D-07 BMatP= 3.63D-07
 IDIUse=1 WtCom= 1.00D+00 WtEn= 0.00D+00
 Coeff-Com:  0.100D+01
 Coeff:      0.100D+01
 Gap=     0.205 Goal=   None    Shift=    0.000
 RMSDP=9.23D-06 MaxDP=3.85D-04 DE=-1.62D-05 OVMax= 8.03D-04

 Cycle   9  Pass 1  IDiag  1:
 E= -581.864457062707     Delta-E=        0.000001394887 Rises=F Damp=F
 DIIS: error= 1.63D-04 at cycle   2 NSaved=   2.
 NSaved= 2 IEnMin= 1 EnMin= -581.864458457595     IErMin= 1 ErrMin= 6.28D-05
 ErrMax= 1.63D-04  0.00D+00 EMaxC= 1.00D-01 BMatC= 2.10D-06 BMatP= 3.63D-07
 IDIUse=3 WtCom= 4.39D-01 WtEn= 5.61D-01
 Coeff-Com:  0.709D+00 0.291D+00
 Coeff-En:   0.792D+00 0.208D+00
 Coeff:      0.756D+00 0.244D+00
 Gap=     0.205 Goal=   None    Shift=    0.000
 RMSDP=5.82D-06 MaxDP=2.49D-04 DE= 1.39D-06 OVMax= 5.13D-04

 Cycle  10  Pass 1  IDiag  1:
 E= -581.864458720823     Delta-E=       -0.000001658116 Rises=F Damp=F
 DIIS: error= 1.97D-05 at cycle   3 NSaved=   3.
 NSaved= 3 IEnMin= 3 EnMin= -581.864458720823     IErMin= 3 ErrMin= 1.97D-05
 ErrMax= 1.97D-05  0.00D+00 EMaxC= 1.00D-01 BMatC= 4.73D-08 BMatP= 3.63D-07
 IDIUse=1 WtCom= 1.00D+00 WtEn= 0.00D+00
 Coeff-Com:  0.366D+00 0.728D-01 0.561D+00
 Coeff:      0.366D+00 0.728D-01 0.561D+00
 Gap=     0.205 Goal=   None    Shift=    0.000
 RMSDP=1.07D-06 MaxDP=3.21D-05 DE=-1.66D-06 OVMax= 6.57D-05

 Cycle  11  Pass 1  IDiag  1:
 E= -581.864458761350     Delta-E=       -0.000000040527 Rises=F Damp=F
 DIIS: error= 1.16D-06 at cycle   4 NSaved=   4.
 NSaved= 4 IEnMin= 4 EnMin= -581.864458761350     IErMin= 4 ErrMin= 1.16D-06
 ErrMax= 1.16D-06  0.00D+00 EMaxC= 1.00D-01 BMatC= 3.38D-10 BMatP= 4.73D-08
 IDIUse=1 WtCom= 1.00D+00 WtEn= 0.00D+00
 Coeff-Com:  0.376D-01-0.774D-02 0.172D+00 0.798D+00
 Coeff:      0.376D-01-0.774D-02 0.172D+00 0.798D+00
 Gap=     0.205 Goal=   None    Shift=    0.000
 RMSDP=1.36D-07 MaxDP=4.83D-06 DE=-4.05D-08 OVMax= 1.04D-05

 Cycle  12  Pass 1  IDiag  1:
 E= -581.864458761563     Delta-E=       -0.000000000213 Rises=F Damp=F
 DIIS: error= 1.16D-06 at cycle   5 NSaved=   5.
 NSaved= 5 IEnMin= 5 EnMin= -581.864458761563     IErMin= 4 ErrMin= 1.16D-06
 ErrMax= 1.16D-06  0.00D+00 EMaxC= 1.00D-01 BMatC= 1.40D-10 BMatP= 3.38D-10
 IDIUse=1 WtCom= 1.00D+00 WtEn= 0.00D+00
 Coeff-Com: -0.199D-01-0.140D-01 0.446D-01 0.489D+00 0.500D+00
 Coeff:     -0.199D-01-0.140D-01 0.446D-01 0.489D+00 0.500D+00
 Gap=     0.205 Goal=   None    Shift=    0.000
 RMSDP=5.51D-08 MaxDP=2.31D-06 DE=-2.13D-10 OVMax= 3.06D-06

 Cycle  13  Pass 1  IDiag  1:
 E= -581.864458761670     Delta-E=       -0.000000000107 Rises=F Damp=F
 DIIS: error= 1.16D-07 at cycle   6 NSaved=   6.
 NSaved= 6 IEnMin= 6 EnMin= -581.864458761670     IErMin= 6 ErrMin= 1.16D-07
 ErrMax= 1.16D-07  0.00D+00 EMaxC= 1.00D-01 BMatC= 3.76D-12 BMatP= 1.40D-10
 IDIUse=1 WtCom= 1.00D+00 WtEn= 0.00D+00
 Coeff-Com: -0.121D-01-0.638D-02 0.109D-01 0.185D+00 0.221D+00 0.602D+00
 Coeff:     -0.121D-01-0.638D-02 0.109D-01 0.185D+00 0.221D+00 0.602D+00
 Gap=     0.205 Goal=   None    Shift=    0.000
 RMSDP=1.34D-08 MaxDP=3.62D-07 DE=-1.07D-10 OVMax= 5.30D-07

 Cycle  14  Pass 1  IDiag  1:
 E= -581.864458761675     Delta-E=       -0.000000000004 Rises=F Damp=F
 DIIS: error= 6.85D-08 at cycle   7 NSaved=   7.
 NSaved= 7 IEnMin= 7 EnMin= -581.864458761675     IErMin= 7 ErrMin= 6.85D-08
 ErrMax= 6.85D-08  0.00D+00 EMaxC= 1.00D-01 BMatC= 6.84D-13 BMatP= 3.76D-12
 IDIUse=1 WtCom= 1.00D+00 WtEn= 0.00D+00
 Coeff-Com: -0.282D-02-0.117D-02 0.107D-03 0.272D-01 0.339D-01 0.305D+00
 Coeff-Com:  0.638D+00
 Coeff:     -0.282D-02-0.117D-02 0.107D-03 0.272D-01 0.339D-01 0.305D+00
 Coeff:      0.638D+00
 Gap=     0.205 Goal=   None    Shift=    0.000
 RMSDP=6.27D-09 MaxDP=2.03D-07 DE=-4.09D-12 OVMax= 5.78D-07

 SCF Done:  E(RPBE1PBE) =  -581.864458762     A.U. after   14 cycles
            NFock= 14  Conv=0.63D-08     -V/T= 2.0051
 KE= 5.788983468151D+02 PE=-2.496415609175D+03 EE= 7.704441727088D+02
 Leave Link  502 at Tue Mar 19 17:23:37 2019, MaxMem=   134217728 cpu:             111.8 elap:              58.0
 (Enter /util/academic/gaussian/g16.A03/x86-64-SSE4_2/g16/l801.exe)
 DoSCS=F DFT=T ScalE2(SS,OS)=  1.000000  1.000000
 Range of M.O.s used for correlation:     1   165
 NBasis=   165 NAE=    38 NBE=    38 NFC=     0 NFV=     0
 NROrb=    165 NOA=    38 NOB=    38 NVA=   127 NVB=   127
 Leave Link  801 at Tue Mar 19 17:23:38 2019, MaxMem=   134217728 cpu:               0.1 elap:               0.2
 (Enter /util/academic/gaussian/g16.A03/x86-64-SSE4_2/g16/l1002.exe)
 Minotr:  Closed shell wavefunction.
          Direct CPHF calculation.
          Differentiating once with respect to magnetic field using GIAOs.
          Electric field/nuclear overlap derivatives assumed to be zero.
          Requested convergence is 1.0D-08 RMS, and 1.0D-07 maximum.
          Secondary convergence is 1.0D-12 RMS, and 1.0D-12 maximum.
          NewPWx=T KeepS1=F KeepF1=F KeepIn=T MapXYZ=F SortEE=F KeepMc=T.
         4492 words used for storage of precomputed grid.
 Keep R3 ints in memory in canonical form, NReq=97824841.
 FoFCou: FMM=F IPFlag=           0 FMFlag=           0 FMFlg1=           0
         NFxFlg=           0 DoJE=F BraDBF=F KetDBF=F FulRan=T
         wScrn=  0.000000 ICntrl=       600 IOpCl=  0 I1Cent=           0 NGrid=           0
         NMat0=    1 NMatS0=  13695 NMatT0=    0 NMatD0=    1 NMtDS0=    0 NMtDT0=    0
 Symmetry not used in FoFCou.
 Two-electron integral symmetry not used.
          MDV=     134217728 using IRadAn=       1.
          Solving linear equations simultaneously, MaxMat=       0.
 FoFJK:  IHMeth= 1 ICntrl=    6127 DoSepK=F KAlg= 0 I1Cent=           0 FoldK=F
 IRaf=         1 NMat=       1 IRICut=       1 DoRegI=T DoRafI=F ISym2E= 0 IDoP0=0 IntGTp=1.
          There are     3 degrees of freedom in the 1st order CPHF.  IDoFFX=0 NUNeed=     3.
      3 vectors produced by pass  0 Test12= 1.61D-13 3.33D-08 XBig12= 1.39D+01 1.10D+00.
 AX will form     3 AO Fock derivatives at one time.
      3 vectors produced by pass  1 Test12= 1.61D-13 3.33D-08 XBig12= 4.30D-02 1.24D-01.
      3 vectors produced by pass  2 Test12= 1.61D-13 3.33D-08 XBig12= 5.50D-04 8.44D-03.
      3 vectors produced by pass  3 Test12= 1.61D-13 3.33D-08 XBig12= 2.78D-06 5.19D-04.
      3 vectors produced by pass  4 Test12= 1.61D-13 3.33D-08 XBig12= 1.56D-08 4.88D-05.
      3 vectors produced by pass  5 Test12= 1.61D-13 3.33D-08 XBig12= 8.76D-11 3.33D-06.
      2 vectors produced by pass  6 Test12= 1.61D-13 3.33D-08 XBig12= 4.06D-13 1.20D-07.
 InvSVY:  IOpt=1 It=  1 EMax= 8.88D-16
 Solved reduced A of dimension    20 with     3 vectors.
 Calculating GIAO nuclear magnetic shielding tensors.
 SCF GIAO Magnetic shielding tensor (ppm):
      1  H    Isotropic =    13.9329   Anisotropy =    31.1859
   XX=    34.6653   YX=     1.4601   ZX=     0.0000
   XY=     0.8847   YY=    11.1106   ZY=     0.0000
   XZ=    -0.0000   YZ=     0.0000   ZZ=    -3.9772
   Eigenvalues:    -3.9772    11.0524    34.7235
      2  H    Isotropic =    26.7955   Anisotropy =    10.0014
   XX=    32.2493   YX=     5.0895   ZX=    -0.0000
   XY=     1.1175   YY=    25.5282   ZY=     0.0000
   XZ=     0.0000   YZ=     0.0000   ZZ=    22.6090
   Eigenvalues:    22.6090    24.3144    33.4631
      3  H    Isotropic =    22.3511   Anisotropy =    12.6359
   XX=    23.0907   YX=    -2.6522   ZX=     0.0000
   XY=     0.7870   YY=    30.6619   ZY=    -0.0000
   XZ=    -0.0000   YZ=     0.0000   ZZ=    13.3008
   Eigenvalues:    13.3008    22.9775    30.7750
      4  H    Isotropic =    26.8884   Anisotropy =    10.2646
   XX=    33.6138   YX=    -3.3507   ZX=     0.0000
   XY=     1.1923   YY=    23.8380   ZY=     0.0000
   XZ=    -0.0000   YZ=    -0.0000   ZZ=    23.2134
   Eigenvalues:    23.2134    23.7203    33.7315
      5  H    Isotropic =    22.7602   Anisotropy =    11.3976
   XX=    23.7022   YX=     0.9313   ZX=     0.0000
   XY=    -1.7284   YY=    30.3347   ZY=     0.0000
   XZ=    -0.0000   YZ=    -0.0000   ZZ=    14.2438
   Eigenvalues:    14.2438    23.6783    30.3586
      6  C    Isotropic =    31.3926   Anisotropy =   127.5276
   XX=   -27.3042   YX=    16.0592   ZX=    -0.0000
   XY=    -2.9115   YY=     5.0711   ZY=    -0.0000
   XZ=    -0.0000   YZ=     0.0000   ZZ=   116.4110
   Eigenvalues:   -28.5881     6.3550   116.4110
      7  O    Isotropic =    73.0153   Anisotropy =   352.1123
   XX=   -18.7261   YX=     4.7368   ZX=    -0.0000
   XY=   -25.7927   YY=   -69.9848   ZY=    -0.0000
   XZ=    -0.0000   YZ=    -0.0000   ZZ=   307.7568
   Eigenvalues:   -72.0629   -16.6480   307.7568
      8  N    Isotropic =   165.5536   Anisotropy =    93.2066
   XX=   191.3091   YX=    47.7484   ZX=     0.0000
   XY=    81.4630   YY=   112.9679   ZY=    -0.0000
   XZ=     0.0000   YZ=    -0.0000   ZZ=   192.3839
   Eigenvalues:    76.5856   192.3839   227.6913
      9  C    Isotropic =    87.5105   Anisotropy =    70.4650
   XX=    38.1664   YX=    -4.0432   ZX=     0.0000
   XY=    -5.6059   YY=    89.8780   ZY=     0.0000
   XZ=    -0.0000   YZ=     0.0000   ZZ=   134.4872
   Eigenvalues:    37.7201    90.3242   134.4872
     10  C    Isotropic =    29.6644   Anisotropy =   137.8287
   XX=    -5.8998   YX=    -9.0175   ZX=    -0.0000
   XY=    16.1567   YY=   -26.6571   ZY=    -0.0000
   XZ=    -0.0000   YZ=     0.0000   ZZ=   121.5502
   Eigenvalues:   -27.2539    -5.3031   121.5502
     11  O    Isotropic =   157.4955   Anisotropy =   205.5767
   XX=    64.1242   YX=   -10.6503   ZX=    -0.0000
   XY=    16.6619   YY=   113.8158   ZY=    -0.0000
   XZ=    -0.0000   YZ=     0.0000   ZZ=   294.5467
   Eigenvalues:    63.9430   113.9969   294.5467
     12  N    Isotropic =  -114.2724   Anisotropy =   276.6250
   XX=  -193.6342   YX=     5.7553   ZX=    -0.0000
   XY=    10.5620   YY=  -219.3272   ZY=    -0.0000
   XZ=    -0.0000   YZ=     0.0000   ZZ=    70.1443
   Eigenvalues:  -221.6990  -191.2624    70.1443
     13  O    Isotropic =  -215.3039   Anisotropy =   550.3567
   XX=  -437.6739   YX=    44.5481   ZX=     0.0000
   XY=  -138.1401   YY=  -359.8385   ZY=    -0.0000
   XZ=     0.0000   YZ=    -0.0000   ZZ=   151.6005
   Eigenvalues:  -459.6204  -337.8920   151.6005
     14  O    Isotropic =  -204.8217   Anisotropy =   523.0782
   XX=  -424.6617   YX=   -92.6394   ZX=    -0.0000
   XY=   111.9247   YY=  -333.7005   ZY=     0.0000
   XZ=    -0.0000   YZ=     0.0000   ZZ=   143.8971
   Eigenvalues:  -425.6726  -332.6896   143.8971
     15  N    Isotropic =   168.6442   Anisotropy =    77.0410
   XX=   209.7158   YX=   -21.9662   ZX=    -0.0000
   XY=   -49.4038   YY=    96.2408   ZY=    -0.0000
   XZ=     0.0000   YZ=     0.0000   ZZ=   199.9759
   Eigenvalues:    85.9517   199.9759   220.0049
 End of Minotr F.D. properties file   721 does not exist.
 End of Minotr F.D. properties file   722 does not exist.
 End of Minotr F.D. properties file   788 does not exist.
 Leave Link 1002 at Tue Mar 19 17:24:15 2019, MaxMem=   134217728 cpu:              73.2 elap:              37.3
 (Enter /util/academic/gaussian/g16.A03/x86-64-SSE4_2/g16/l601.exe)
 Copying SCF densities to generalized density rwf, IOpCl= 0 IROHF=0.

 **********************************************************************

            Population analysis using the SCF density.

 **********************************************************************

 Alpha  occ. eigenvalues --  -19.25737 -19.23488 -19.23466 -19.21181 -14.62540
 Alpha  occ. eigenvalues --  -14.44467 -14.42541 -10.38552 -10.36701 -10.29001
 Alpha  occ. eigenvalues --   -1.24903  -1.14006  -1.08650  -1.06676  -0.97726
 Alpha  occ. eigenvalues --   -0.94799  -0.86253  -0.71139  -0.67721  -0.65517
 Alpha  occ. eigenvalues --   -0.59171  -0.58687  -0.56047  -0.54708  -0.53247
 Alpha  occ. eigenvalues --   -0.52293  -0.50086  -0.47590  -0.45454  -0.43966
 Alpha  occ. eigenvalues --   -0.42690  -0.33448  -0.32446  -0.31643  -0.31433
 Alpha  occ. eigenvalues --   -0.29878  -0.28972  -0.26361
 Alpha virt. eigenvalues --   -0.05849  -0.00754   0.06764   0.08600   0.11100
 Alpha virt. eigenvalues --    0.11278   0.14934   0.16337   0.18541   0.20593
 Alpha virt. eigenvalues --    0.25037   0.30081   0.33382   0.36223   0.36921
 Alpha virt. eigenvalues --    0.39873   0.41450   0.45862   0.45979   0.47716
 Alpha virt. eigenvalues --    0.49191   0.49388   0.51177   0.53484   0.54099
 Alpha virt. eigenvalues --    0.57766   0.60684   0.61375   0.63636   0.69044
 Alpha virt. eigenvalues --    0.70318   0.71876   0.73041   0.77964   0.79884
 Alpha virt. eigenvalues --    0.82907   0.83882   0.88728   0.89748   0.92252
 Alpha virt. eigenvalues --    0.92325   0.95311   0.96152   0.98040   0.98479
 Alpha virt. eigenvalues --    1.00867   1.01527   1.02829   1.06165   1.06990
 Alpha virt. eigenvalues --    1.11475   1.14537   1.15314   1.15571   1.16150
 Alpha virt. eigenvalues --    1.18826   1.20582   1.24354   1.34552   1.35030
 Alpha virt. eigenvalues --    1.40382   1.42728   1.44666   1.46391   1.48498
 Alpha virt. eigenvalues --    1.51321   1.52228   1.52914   1.54344   1.58619
 Alpha virt. eigenvalues --    1.64420   1.65639   1.65859   1.67343   1.67685
 Alpha virt. eigenvalues --    1.73406   1.75719   1.77692   1.77718   1.81966
 Alpha virt. eigenvalues --    1.84445   1.87046   1.97885   1.98284   1.99086
 Alpha virt. eigenvalues --    2.04884   2.12348   2.16494   2.19669   2.20989
 Alpha virt. eigenvalues --    2.21432   2.23022   2.25225   2.27188   2.29857
 Alpha virt. eigenvalues --    2.29934   2.33985   2.41356   2.44065   2.51365
 Alpha virt. eigenvalues --    2.52222   2.59597   2.63013   2.63057   2.65093
 Alpha virt. eigenvalues --    2.67208   2.71911   2.80707   2.92489   2.92924
 Alpha virt. eigenvalues --    2.95210   2.98334   3.01436   3.02901   3.05279
 Alpha virt. eigenvalues --    3.09588   3.18236   3.22170   3.24849   3.32540
 Alpha virt. eigenvalues --    3.37290   3.40267   3.45506   3.55735   3.63521
 Alpha virt. eigenvalues --    3.66612   3.89942
          Condensed to atoms (all electrons):
               1          2          3          4          5          6
     1  H    0.387431   0.000199  -0.000222  -0.000026  -0.000246  -0.020572
     2  H    0.000199   0.532178  -0.020978  -0.000001  -0.000000  -0.000192
     3  H   -0.000222  -0.020978   0.485227  -0.000000  -0.000030   0.001210
     4  H   -0.000026  -0.000001  -0.000000   0.540228  -0.021659  -0.011945
     5  H   -0.000246  -0.000000  -0.000030  -0.021659   0.499227  -0.012561
     6  C   -0.020572  -0.000192   0.001210  -0.011945  -0.012561   4.599904
     7  O    0.146298   0.000066   0.000020   0.004652   0.002809   0.615274
     8  N    0.001920   0.000002   0.000001   0.356979   0.371715   0.532785
     9  C   -0.009830   0.011823  -0.010330   0.012578  -0.008840   0.184816
    10  C   -0.023401  -0.013898  -0.010473  -0.000290   0.001388  -0.099516
    11  O    0.305123   0.002799   0.002582   0.000043   0.000016  -0.007395
    12  N   -0.000082  -0.000105  -0.007478  -0.000145  -0.007689  -0.012656
    13  O    0.000053   0.000011   0.000660   0.001038   0.045012  -0.014722
    14  O    0.000044   0.001249   0.048561   0.000010   0.000639   0.002129
    15  N    0.001571   0.360693   0.371185   0.000001   0.000001   0.002879
               7          8          9         10         11         12
     1  H    0.146298   0.001920  -0.009830  -0.023401   0.305123  -0.000082
     2  H    0.000066   0.000002   0.011823  -0.013898   0.002799  -0.000105
     3  H    0.000020   0.000001  -0.010330  -0.010473   0.002582  -0.007478
     4  H    0.004652   0.356979   0.012578  -0.000290   0.000043  -0.000145
     5  H    0.002809   0.371715  -0.008840   0.001388   0.000016  -0.007689
     6  C    0.615274   0.532785   0.184816  -0.099516  -0.007395  -0.012656
     7  O    7.799173  -0.067197  -0.076987  -0.008525  -0.061265   0.001338
     8  N   -0.067197   5.977458  -0.076617   0.002924  -0.000043  -0.002388
     9  C   -0.076987  -0.076617   5.856639   0.207079  -0.071421   0.214778
    10  C   -0.008525   0.002924   0.207079   4.653322   0.535619  -0.016154
    11  O   -0.061265  -0.000043  -0.071421   0.535619   7.572213   0.001138
    12  N    0.001338  -0.002388   0.214778  -0.016154   0.001138   5.915395
    13  O    0.000007  -0.018162  -0.070202   0.002982  -0.000010   0.370596
    14  O   -0.000011  -0.000006  -0.071785  -0.013431   0.000007   0.366225
    15  N    0.000044  -0.000025  -0.073756   0.548708  -0.062096  -0.002737
              13         14         15
     1  H    0.000053   0.000044   0.001571
     2  H    0.000011   0.001249   0.360693
     3  H    0.000660   0.048561   0.371185
     4  H    0.001038   0.000010   0.000001
     5  H    0.045012   0.000639   0.000001
     6  C   -0.014722   0.002129   0.002879
     7  O    0.000007  -0.000011   0.000044
     8  N   -0.018162  -0.000006  -0.000025
     9  C   -0.070202  -0.071785  -0.073756
    10  C    0.002982  -0.013431   0.548708
    11  O   -0.000010   0.000007  -0.062096
    12  N    0.370596   0.366225  -0.002737
    13  O    8.084955  -0.084799   0.000002
    14  O   -0.084799   8.100741  -0.020061
    15  N    0.000002  -0.020061   5.937264
 Mulliken charges:
               1
     1  H    0.211740
     2  H    0.126154
     3  H    0.140066
     4  H    0.118536
     5  H    0.130219
     6  C    0.240563
     7  O   -0.355696
     8  N   -0.079347
     9  C   -0.017945
    10  C    0.233668
    11  O   -0.217310
    12  N    0.179963
    13  O   -0.317421
    14  O   -0.329514
    15  N   -0.063675
 Sum of Mulliken charges =  -0.00000
 Mulliken charges with hydrogens summed into heavy atoms:
               1
     6  C    0.240563
     7  O   -0.355696
     8  N    0.169408
     9  C   -0.017945
    10  C    0.233668
    11  O   -0.005570
    12  N    0.179963
    13  O   -0.317421
    14  O   -0.329514
    15  N    0.202545
 Electronic spatial extent (au):  <R**2>=           1333.0181
 Charge=             -0.0000 electrons
 Dipole moment (field-independent basis, Debye):
    X=             -0.6824    Y=             -1.3457    Z=             -0.0000  Tot=              1.5088
 Quadrupole moment (field-independent basis, Debye-Ang):
   XX=            -39.3649   YY=            -68.3719   ZZ=            -56.5084
   XY=              5.2390   XZ=             -0.0000   YZ=              0.0000
 Traceless Quadrupole moment (field-independent basis, Debye-Ang):
   XX=             15.3835   YY=            -13.6235   ZZ=             -1.7600
   XY=              5.2390   XZ=             -0.0000   YZ=              0.0000
 Octapole moment (field-independent basis, Debye-Ang**2):
  XXX=             -2.6656  YYY=            -11.2631  ZZZ=             -0.0000  XYY=             -2.2443
  XXY=             -2.6852  XXZ=             -0.0000  XZZ=             -0.5784  YZZ=              1.6562
  YYZ=             -0.0000  XYZ=             -0.0000
 Hexadecapole moment (field-independent basis, Debye-Ang**3):
 XXXX=           -534.0941 YYYY=           -778.3979 ZZZZ=            -47.3825 XXXY=             35.2377
 XXXZ=              0.0000 YYYX=              8.5024 YYYZ=              0.0000 ZZZX=              0.0000
 ZZZY=             -0.0000 XXYY=           -256.8705 XXZZ=           -148.8281 YYZZ=           -123.2897
 XXYZ=              0.0000 YYXZ=             -0.0000 ZZXY=             -2.8868
 N-N= 5.652086308894D+02 E-N=-2.496415610245D+03  KE= 5.788983468151D+02
 Calculating spin-rotation constants.
 Leave Link  601 at Tue Mar 19 17:24:19 2019, MaxMem=   134217728 cpu:               3.6 elap:               3.4
 (Enter /util/academic/gaussian/g16.A03/x86-64-SSE4_2/g16/l9999.exe)
 1\1\GINC-CPN-F11-18-02\SP\RPBE1PBE\CC-pVDZ\C3H5N3O4\HERBERTL\19-Mar-20
 19\0\\#P PBE1PBE/cc-pVDZ NMR SCF=Tight Int=UltraFine NoSymm\\nitromal_
 prop_00.inp -- generated by exatomic.v0.4.1\\0,1\H,0,0.113225,-2.24615
 3,0.\H,0,-3.114439,-1.153049,0.\H,0,-2.604195,0.551321,0.\H,0,3.331386
 ,-0.303365,0.\H,0,2.384715,1.19597,0.\C,0,1.338138,-0.557407,0.\O,0,1.
 439276,-1.81537,0.\N,0,2.451087,0.1875,0.\C,0,0.,0.054058,0.\C,0,-1.13
 0692,-0.832839,0.\O,0,-0.937651,-2.12,0.\N,0,-0.189571,1.454266,0.\O,0
 ,0.796638,2.209915,0.\O,0,-1.345536,1.920966,0.\N,0,-2.401115,-0.44057
 8,0.\\Version=ES64L-G16RevA.03\HF=-581.8644588\RMSD=6.267e-09\Dipole=-
 0.2684776,-0.5294195,0.\Quadrupole=11.4372526,-10.128747,-1.3085056,3.
 8950348,0.,0.\PG=CS [SG(C3H5N3O4)]\\@


 BREAD HAS TO MOLD IN ORDER TO GET PENICILLIN.
          -- JERRY BOATZ
 Job cpu time:       0 days  0 hours  3 minutes 18.7 seconds.
 Elapsed time:       0 days  0 hours  1 minutes 44.2 seconds.
 File lengths (MBytes):  RWF=     18 Int=      0 D2E=      0 Chk=      3 Scr=      1
 Normal termination of Gaussian 16 at Tue Mar 19 17:24:19 2019.
