 Entering Gaussian System, Link 0=g16
 Initial command:
 /util/academic/gaussian/g16.A03/x86-64-SSE4_2/g16/l1.exe "/scratch/2819090/Gau-22901.inp" -scrdir="/scratch/2819090/"
 Entering Link 1 = /util/academic/gaussian/g16.A03/x86-64-SSE4_2/g16/l1.exe PID=     22902.
  
 Copyright (c) 1988,1990,1992,1993,1995,1998,2003,2009,2016,
            Gaussian, Inc.  All Rights Reserved.
  
 This is part of the Gaussian(R) 16 program.  It is based on
 the Gaussian(R) 09 system (copyright 2009, Gaussian, Inc.),
 the Gaussian(R) 03 system (copyright 2003, Gaussian, Inc.),
 the Gaussian(R) 98 system (copyright 1998, Gaussian, Inc.),
 the Gaussian(R) 94 system (copyright 1995, Gaussian, Inc.),
 the Gaussian 92(TM) system (copyright 1992, Gaussian, Inc.),
 the Gaussian 90(TM) system (copyright 1990, Gaussian, Inc.),
 the Gaussian 88(TM) system (copyright 1988, Gaussian, Inc.),
 the Gaussian 86(TM) system (copyright 1986, Carnegie Mellon
 University), and the Gaussian 82(TM) system (copyright 1983,
 Carnegie Mellon University). Gaussian is a federally registered
 trademark of Gaussian, Inc.
  
 This software contains proprietary and confidential information,
 including trade secrets, belonging to Gaussian, Inc.
  
 This software is provided under written license and may be
 used, copied, transmitted, or stored only in accord with that
 written license.
  
 The following legend is applicable only to US Government
 contracts under FAR:
  
                    RESTRICTED RIGHTS LEGEND
  
 Use, reproduction and disclosure by the US Government is
 subject to restrictions as set forth in subparagraphs (a)
 and (c) of the Commercial Computer Software - Restricted
 Rights clause in FAR 52.227-19.
  
 Gaussian, Inc.
 340 Quinnipiac St., Bldg. 40, Wallingford CT 06492
  
  
 ---------------------------------------------------------------
 Warning -- This program may not be used in any manner that
 competes with the business of Gaussian, Inc. or will provide
 assistance to any competitor of Gaussian, Inc.  The licensee
 of this program is prohibited from giving any competitor of
 Gaussian, Inc. access to this program.  By using this program,
 the user acknowledges that Gaussian, Inc. is engaged in the
 business of creating and licensing software in the field of
 computational chemistry and represents and warrants to the
 licensee that it is not a competitor of Gaussian, Inc. and that
 it will not use this program in any manner prohibited above.
 ---------------------------------------------------------------
  

 Cite this work as:
 Gaussian 16, Revision A.03,
 M. J. Frisch, G. W. Trucks, H. B. Schlegel, G. E. Scuseria, 
 M. A. Robb, J. R. Cheeseman, G. Scalmani, V. Barone, 
 G. A. Petersson, H. Nakatsuji, X. Li, M. Caricato, A. V. Marenich, 
 J. Bloino, B. G. Janesko, R. Gomperts, B. Mennucci, H. P. Hratchian, 
 J. V. Ortiz, A. F. Izmaylov, J. L. Sonnenberg, D. Williams-Young, 
 F. Ding, F. Lipparini, F. Egidi, J. Goings, B. Peng, A. Petrone, 
 T. Henderson, D. Ranasinghe, V. G. Zakrzewski, J. Gao, N. Rega, 
 G. Zheng, W. Liang, M. Hada, M. Ehara, K. Toyota, R. Fukuda, 
 J. Hasegawa, M. Ishida, T. Nakajima, Y. Honda, O. Kitao, H. Nakai, 
 T. Vreven, K. Throssell, J. A. Montgomery, Jr., J. E. Peralta, 
 F. Ogliaro, M. J. Bearpark, J. J. Heyd, E. N. Brothers, K. N. Kudin, 
 V. N. Staroverov, T. A. Keith, R. Kobayashi, J. Normand, 
 K. Raghavachari, A. P. Rendell, J. C. Burant, S. S. Iyengar, 
 J. Tomasi, M. Cossi, J. M. Millam, M. Klene, C. Adamo, R. Cammi, 
 J. W. Ochterski, R. L. Martin, K. Morokuma, O. Farkas, 
 J. B. Foresman, and D. J. Fox, Gaussian, Inc., Wallingford CT, 2016.
 
 ******************************************
 Gaussian 16:  ES64L-G16RevA.03 25-Dec-2016
                16-Mar-2019 
 ******************************************
 %NProc=12
 Will use up to   12 processors via shared memory.
 %chk=chk.chk
 ----------------------------------------------------------------------
 #P blyp/def2TZVP SCF=Tight Int=UltraFine NoSymm FREQ=(SaveNormalModes)
 ----------------------------------------------------------------------
 1/10=4,30=1,38=1/1,3;
 2/12=2,15=1,17=6,18=5,40=1/2;
 3/5=44,7=101,11=2,25=1,30=1,71=2,74=402,75=-5,140=1/1,2,3;
 4//1;
 5/5=2,32=2,38=5,98=1/2;
 8/6=4,10=90,11=11/1;
 11/6=1,8=1,9=11,15=111,16=1,31=1/1,2,10;
 10/6=1,31=1/2;
 6/7=2,8=2,9=2,10=2,28=1/1;
 7/8=1,10=1,25=1,30=1,92=1/1,2,3,16;
 1/10=4,30=1/3;
 99//99;
 Leave Link    1 at Sat Mar 16 14:07:31 2019, MaxMem=           0 cpu:               0.7 elap:               0.1
 (Enter /util/academic/gaussian/g16.A03/x86-64-SSE4_2/g16/l101.exe)
 ----
 freq
 ----
 Symbolic Z-matrix:
 Charge =  0 Multiplicity = 1
 O                    -0.87911  -0.18029   0.20526 
 C                     0.5742   -0.15765   0.12259 
 C                    -0.18552   1.08835   0.34012 
 C                     1.18542  -0.52041  -1.21142 
 H                     1.0586   -0.60387   0.99812 
 H                    -0.22805   1.53808   1.33555 
 H                    -0.32535   1.78243  -0.49315 
 H                     2.24164  -0.2161   -1.24573 
 H                     1.14247  -1.60613  -1.37427 
 H                     0.6518   -0.02726  -2.03333 
 
 ITRead=  0  0  0  0  0  0  0  0  0  0
 MicOpt= -1 -1 -1 -1 -1 -1 -1 -1 -1 -1
 NAtoms=     10 NQM=       10 NQMF=       0 NMMI=      0 NMMIF=      0
                NMic=       0 NMicF=      0.
                    Isotopes and Nuclear Properties:
 (Nuclear quadrupole moments (NQMom) in fm**2, nuclear magnetic moments (NMagM)
  in nuclear magnetons)

  Atom         1           2           3           4           5           6           7           8           9          10
 IAtWgt=          16          12          12          12           1           1           1           1           1           1
 AtmWgt=  15.9949146  12.0000000  12.0000000  12.0000000   1.0078250   1.0078250   1.0078250   1.0078250   1.0078250   1.0078250
 NucSpn=           0           0           0           0           1           1           1           1           1           1
 AtZEff=  -0.0000000  -0.0000000  -0.0000000  -0.0000000  -0.0000000  -0.0000000  -0.0000000  -0.0000000  -0.0000000  -0.0000000
 NQMom=    0.0000000   0.0000000   0.0000000   0.0000000   0.0000000   0.0000000   0.0000000   0.0000000   0.0000000   0.0000000
 NMagM=    0.0000000   0.0000000   0.0000000   0.0000000   2.7928460   2.7928460   2.7928460   2.7928460   2.7928460   2.7928460
 AtZNuc=   8.0000000   6.0000000   6.0000000   6.0000000   1.0000000   1.0000000   1.0000000   1.0000000   1.0000000   1.0000000
 Leave Link  101 at Sat Mar 16 14:07:31 2019, MaxMem=   104857600 cpu:               1.4 elap:               0.1
 (Enter /util/academic/gaussian/g16.A03/x86-64-SSE4_2/g16/l103.exe)

 GradGradGradGradGradGradGradGradGradGradGradGradGradGradGradGradGradGrad
 Berny optimization.
 Initialization pass.
 Trust Radius=3.00D-01 FncErr=1.00D-07 GrdErr=1.00D-07 EigMax=2.50D+02 EigMin=1.00D-04
 Number of steps in this run=      2 maximum allowed number of steps=      2.
 GradGradGradGradGradGradGradGradGradGradGradGradGradGradGradGradGradGrad

 Leave Link  103 at Sat Mar 16 14:07:31 2019, MaxMem=   104857600 cpu:               0.5 elap:               0.1
 (Enter /util/academic/gaussian/g16.A03/x86-64-SSE4_2/g16/l202.exe)
                          Input orientation:                          
 ---------------------------------------------------------------------
 Center     Atomic      Atomic             Coordinates (Angstroms)
 Number     Number       Type             X           Y           Z
 ---------------------------------------------------------------------
      1          8           0       -0.879112   -0.180294    0.205257
      2          6           0        0.574200   -0.157646    0.122588
      3          6           0       -0.185517    1.088353    0.340116
      4          6           0        1.185420   -0.520407   -1.211416
      5          1           0        1.058604   -0.603865    0.998120
      6          1           0       -0.228052    1.538075    1.335550
      7          1           0       -0.325346    1.782434   -0.493154
      8          1           0        2.241636   -0.216103   -1.245734
      9          1           0        1.142471   -1.606131   -1.374270
     10          1           0        0.651796   -0.027264   -2.033329
 ---------------------------------------------------------------------
                    Distance matrix (angstroms):
                    1          2          3          4          5
     1  O    0.000000
     2  C    1.455838   0.000000
     3  C    1.452145   1.475467   0.000000
     4  C    2.526842   1.511540   2.621989   0.000000
     5  H    2.136068   1.095589   2.201002   2.214745   0.000000
     6  H    2.157367   2.233910   1.093137   3.566832   2.521359
     7  H    2.155629   2.225361   1.093453   2.846294   3.135863
     8  H    3.441762   2.157792   3.179245   1.099714   2.566087
     9  H    2.935083   2.159080   3.458745   1.098710   2.576782
    10  H    2.716315   2.161249   2.752987   1.097035   3.112498
                    6          7          8          9         10
     6  H    0.000000
     7  H    1.847522   0.000000
     8  H    3.979890   3.339150   0.000000
     9  H    4.371211   3.796475   1.776756   0.000000
    10  H    3.817560   2.569426   1.784253   1.779871   0.000000
 Symmetry turned off by external request.
 Stoichiometry    C3H6O
 Framework group  C1[X(C3H6O)]
 Deg. of freedom    24
 Full point group                 C1      NOp   1
 Rotational constants (GHZ):          17.8144869           6.5499209           5.8199200
 Leave Link  202 at Sat Mar 16 14:07:31 2019, MaxMem=   104857600 cpu:               0.3 elap:               0.0
 (Enter /util/academic/gaussian/g16.A03/x86-64-SSE4_2/g16/l301.exe)
 Standard basis: def2TZVP (5D, 7F)
 Ernie: Thresh=  0.10000D-02 Tol=  0.10000D-05 Strict=F.
   160 basis functions,   252 primitive gaussians,   180 cartesian basis functions
    16 alpha electrons       16 beta electrons
       nuclear repulsion energy       123.5339212950 Hartrees.
 IExCor=  402 DFT=T Ex=B Corr=LYP ExCW=0 ScaHFX=  0.000000
 ScaDFX=  1.000000  1.000000  1.000000  1.000000 ScalE2=  1.000000  1.000000
 IRadAn=      5 IRanWt=     -1 IRanGd=            0 ICorTp=0 IEmpDi=  4
 NAtoms=   10 NActive=   10 NUniq=   10 SFac= 1.00D+00 NAtFMM=   60 NAOKFM=F Big=F
 Integral buffers will be    131072 words long.
 Raffenetti 2 integral format.
 Two-electron integral symmetry is turned off.
 Leave Link  301 at Sat Mar 16 14:07:31 2019, MaxMem=   104857600 cpu:               0.7 elap:               0.1
 (Enter /util/academic/gaussian/g16.A03/x86-64-SSE4_2/g16/l302.exe)
 NPDir=0 NMtPBC=     1 NCelOv=     1 NCel=       1 NClECP=     1 NCelD=      1
         NCelK=      1 NCelE2=     1 NClLst=     1 CellRange=     0.0.
 One-electron integrals computed using PRISM.
   1 Symmetry operations used in ECPInt.
 ECPInt:  NShTT=    2346 NPrTT=    6892 LenC2=    2340 LenP2D=    5993.
 LDataN:  DoStor=T MaxTD1= 6 Len=  172
 NBasis=   160 RedAO= T EigKep=  2.99D-04  NBF=   160
 NBsUse=   160 1.00D-06 EigRej= -1.00D+00 NBFU=   160
 Precomputing XC quadrature grid using
 IXCGrd= 4 IRadAn=           5 IRanWt=          -1 IRanGd=           0 AccXCQ= 0.00D+00.
 Generated NRdTot=       0 NPtTot=           0 NUsed=           0 NTot=          32
 NSgBfM=   180   180   180   180   180 MxSgAt=    10 MxSgA2=    10.
 Leave Link  302 at Sat Mar 16 14:07:31 2019, MaxMem=   104857600 cpu:               3.0 elap:               0.3
 (Enter /util/academic/gaussian/g16.A03/x86-64-SSE4_2/g16/l303.exe)
 DipDrv:  MaxL=1.
 Leave Link  303 at Sat Mar 16 14:07:31 2019, MaxMem=   104857600 cpu:               0.9 elap:               0.1
 (Enter /util/academic/gaussian/g16.A03/x86-64-SSE4_2/g16/l401.exe)
 ExpMin= 9.52D-02 ExpMax= 2.70D+04 ExpMxC= 9.22D+02 IAcc=3 IRadAn=         5 AccDes= 0.00D+00
 Harris functional with IExCor=  402 and IRadAn=       5 diagonalized for initial guess.
 HarFok:  IExCor=  402 AccDes= 0.00D+00 IRadAn=         5 IDoV= 1 UseB2=F ITyADJ=14
 ICtDFT=  3500011 ScaDFX=  1.000000  1.000000  1.000000  1.000000
 FoFCou: FMM=F IPFlag=           0 FMFlag=      100000 FMFlg1=           0
         NFxFlg=           0 DoJE=T BraDBF=F KetDBF=T FulRan=T
         wScrn=  0.000000 ICntrl=       500 IOpCl=  0 I1Cent=   200000004 NGrid=           0
         NMat0=    1 NMatS0=      1 NMatT0=    0 NMatD0=    1 NMtDS0=    0 NMtDT0=    0
 Symmetry not used in FoFCou.
 Harris En= -193.210612229280    
 JPrj=0 DoOrth=F DoCkMO=F.
 Leave Link  401 at Sat Mar 16 14:07:32 2019, MaxMem=   104857600 cpu:               9.2 elap:               0.8
 (Enter /util/academic/gaussian/g16.A03/x86-64-SSE4_2/g16/l502.exe)
 Keep J ints in memory in canonical form, NReq=95053554.
 FoFCou: FMM=F IPFlag=           0 FMFlag=           0 FMFlg1=           0
         NFxFlg=           0 DoJE=F BraDBF=F KetDBF=F FulRan=T
         wScrn=  0.000000 ICntrl=       600 IOpCl=  0 I1Cent=           0 NGrid=           0
         NMat0=    1 NMatS0=  12880 NMatT0=    0 NMatD0=    1 NMtDS0=    0 NMtDT0=    0
 Symmetry not used in FoFCou.
 CoulSu:  requested number of processors reduced to:  10 ShMem   1 Linda.
 Two-electron integral symmetry not used.
 Closed shell SCF:
 Using DIIS extrapolation, IDIIS=  1040.
 NGot=   104857600 LenX=    21835618 LenY=    21802777
 Requested convergence on RMS density matrix=1.00D-08 within 128 cycles.
 Requested convergence on MAX density matrix=1.00D-06.
 Requested convergence on             energy=1.00D-06.
 No special actions if energy rises.
 Integral accuracy reduced to 1.0D-05 until final iterations.

 Cycle   1  Pass 0  IDiag  1:
 E= -192.997282734916    
 DIIS: error= 2.39D-02 at cycle   1 NSaved=   1.
 NSaved= 1 IEnMin= 1 EnMin= -192.997282734916     IErMin= 1 ErrMin= 2.39D-02
 ErrMax= 2.39D-02  0.00D+00 EMaxC= 1.00D-01 BMatC= 1.10D-01 BMatP= 1.10D-01
 IDIUse=3 WtCom= 7.61D-01 WtEn= 2.39D-01
 Coeff-Com:  0.100D+01
 Coeff-En:   0.100D+01
 Coeff:      0.100D+01
 Gap=     0.238 Goal=   None    Shift=    0.000
 GapD=    0.238 DampG=1.000 DampE=0.500 DampFc=0.5000 IDamp=-1.
 Damping current iteration by 5.00D-01
 RMSDP=6.59D-03 MaxDP=1.43D-01              OVMax= 1.91D-01

 Cycle   2  Pass 0  IDiag  1:
 E= -193.024495696550     Delta-E=       -0.027212961634 Rises=F Damp=T
 DIIS: error= 7.57D-03 at cycle   2 NSaved=   2.
 NSaved= 2 IEnMin= 2 EnMin= -193.024495696550     IErMin= 2 ErrMin= 7.57D-03
 ErrMax= 7.57D-03  0.00D+00 EMaxC= 1.00D-01 BMatC= 1.78D-02 BMatP= 1.10D-01
 IDIUse=3 WtCom= 9.24D-01 WtEn= 7.57D-02
 Coeff-Com:  0.244D+00 0.756D+00
 Coeff-En:   0.376D+00 0.624D+00
 Coeff:      0.254D+00 0.746D+00
 Gap=     0.262 Goal=   None    Shift=    0.000
 RMSDP=1.94D-03 MaxDP=5.91D-02 DE=-2.72D-02 OVMax= 1.45D-01

 Cycle   3  Pass 0  IDiag  1:
 E= -193.099291485811     Delta-E=       -0.074795789261 Rises=F Damp=F
 DIIS: error= 7.45D-03 at cycle   3 NSaved=   3.
 NSaved= 3 IEnMin= 3 EnMin= -193.099291485811     IErMin= 3 ErrMin= 7.45D-03
 ErrMax= 7.45D-03  0.00D+00 EMaxC= 1.00D-01 BMatC= 1.33D-02 BMatP= 1.78D-02
 IDIUse=3 WtCom= 9.26D-01 WtEn= 7.45D-02
 Coeff-Com:  0.114D+00 0.471D+00 0.416D+00
 Coeff-En:   0.000D+00 0.000D+00 0.100D+01
 Coeff:      0.105D+00 0.435D+00 0.459D+00
 Gap=     0.238 Goal=   None    Shift=    0.000
 RMSDP=6.83D-04 MaxDP=1.82D-02 DE=-7.48D-02 OVMax= 3.93D-02

 Cycle   4  Pass 0  IDiag  1:
 E= -193.106178824561     Delta-E=       -0.006887338750 Rises=F Damp=F
 DIIS: error= 4.40D-03 at cycle   4 NSaved=   4.
 NSaved= 4 IEnMin= 4 EnMin= -193.106178824561     IErMin= 4 ErrMin= 4.40D-03
 ErrMax= 4.40D-03  0.00D+00 EMaxC= 1.00D-01 BMatC= 4.19D-03 BMatP= 1.33D-02
 IDIUse=3 WtCom= 9.56D-01 WtEn= 4.40D-02
 Coeff-Com:  0.232D-01 0.127D+00 0.349D+00 0.500D+00
 Coeff-En:   0.000D+00 0.000D+00 0.294D+00 0.706D+00
 Coeff:      0.221D-01 0.121D+00 0.347D+00 0.510D+00
 Gap=     0.246 Goal=   None    Shift=    0.000
 RMSDP=2.68D-04 MaxDP=6.58D-03 DE=-6.89D-03 OVMax= 1.23D-02

 Cycle   5  Pass 0  IDiag  1:
 E= -193.109258482083     Delta-E=       -0.003079657521 Rises=F Damp=F
 DIIS: error= 5.89D-04 at cycle   5 NSaved=   5.
 NSaved= 5 IEnMin= 5 EnMin= -193.109258482083     IErMin= 5 ErrMin= 5.89D-04
 ErrMax= 5.89D-04  0.00D+00 EMaxC= 1.00D-01 BMatC= 6.83D-05 BMatP= 4.19D-03
 IDIUse=3 WtCom= 9.94D-01 WtEn= 5.89D-03
 Coeff-Com:  0.430D-02 0.316D-01 0.137D+00 0.237D+00 0.589D+00
 Coeff-En:   0.000D+00 0.000D+00 0.000D+00 0.000D+00 0.100D+01
 Coeff:      0.428D-02 0.314D-01 0.137D+00 0.236D+00 0.592D+00
 Gap=     0.245 Goal=   None    Shift=    0.000
 RMSDP=4.86D-05 MaxDP=1.28D-03 DE=-3.08D-03 OVMax= 3.42D-03

 Cycle   6  Pass 0  IDiag  1:
 E= -193.109303218995     Delta-E=       -0.000044736912 Rises=F Damp=F
 DIIS: error= 2.95D-04 at cycle   6 NSaved=   6.
 NSaved= 6 IEnMin= 6 EnMin= -193.109303218995     IErMin= 6 ErrMin= 2.95D-04
 ErrMax= 2.95D-04  0.00D+00 EMaxC= 1.00D-01 BMatC= 1.54D-05 BMatP= 6.83D-05
 IDIUse=3 WtCom= 9.97D-01 WtEn= 2.95D-03
 Coeff-Com:  0.822D-03 0.834D-02 0.554D-01 0.105D+00 0.376D+00 0.455D+00
 Coeff-En:   0.000D+00 0.000D+00 0.000D+00 0.000D+00 0.187D+00 0.813D+00
 Coeff:      0.819D-03 0.831D-02 0.552D-01 0.104D+00 0.376D+00 0.456D+00
 Gap=     0.245 Goal=   None    Shift=    0.000
 RMSDP=1.82D-05 MaxDP=5.91D-04 DE=-4.47D-05 OVMax= 1.57D-03

 Cycle   7  Pass 0  IDiag  1:
 E= -193.109317181587     Delta-E=       -0.000013962592 Rises=F Damp=F
 DIIS: error= 3.05D-05 at cycle   7 NSaved=   7.
 NSaved= 7 IEnMin= 7 EnMin= -193.109317181587     IErMin= 7 ErrMin= 3.05D-05
 ErrMax= 3.05D-05  0.00D+00 EMaxC= 1.00D-01 BMatC= 2.65D-07 BMatP= 1.54D-05
 IDIUse=1 WtCom= 1.00D+00 WtEn= 0.00D+00
 Coeff-Com:  0.230D-03 0.188D-02 0.165D-01 0.325D-01 0.130D+00 0.200D+00
 Coeff-Com:  0.619D+00
 Coeff:      0.230D-03 0.188D-02 0.165D-01 0.325D-01 0.130D+00 0.200D+00
 Coeff:      0.619D+00
 Gap=     0.245 Goal=   None    Shift=    0.000
 RMSDP=3.99D-06 MaxDP=6.52D-05 DE=-1.40D-05 OVMax= 2.19D-04

 Initial convergence to 1.0D-05 achieved.  Increase integral accuracy.
 Cycle   8  Pass 1  IDiag  1:
 E= -193.109317439839     Delta-E=       -0.000000258252 Rises=F Damp=F
 DIIS: error= 1.36D-05 at cycle   1 NSaved=   1.
 NSaved= 1 IEnMin= 1 EnMin= -193.109317439839     IErMin= 1 ErrMin= 1.36D-05
 ErrMax= 1.36D-05  0.00D+00 EMaxC= 1.00D-01 BMatC= 3.42D-08 BMatP= 3.42D-08
 IDIUse=1 WtCom= 1.00D+00 WtEn= 0.00D+00
 Coeff-Com:  0.100D+01
 Coeff:      0.100D+01
 Gap=     0.245 Goal=   None    Shift=    0.000
 RMSDP=3.99D-06 MaxDP=6.52D-05 DE=-2.58D-07 OVMax= 1.30D-04

 Cycle   9  Pass 1  IDiag  1:
 E= -193.109317391588     Delta-E=        0.000000048251 Rises=F Damp=F
 DIIS: error= 2.25D-05 at cycle   2 NSaved=   2.
 NSaved= 2 IEnMin= 1 EnMin= -193.109317439839     IErMin= 1 ErrMin= 1.36D-05
 ErrMax= 2.25D-05  0.00D+00 EMaxC= 1.00D-01 BMatC= 8.41D-08 BMatP= 3.42D-08
 IDIUse=1 WtCom= 1.00D+00 WtEn= 0.00D+00
 Coeff-Com:  0.613D+00 0.387D+00
 Coeff:      0.613D+00 0.387D+00
 Gap=     0.245 Goal=   None    Shift=    0.000
 RMSDP=1.46D-06 MaxDP=3.22D-05 DE= 4.83D-08 OVMax= 8.67D-05

 Cycle  10  Pass 1  IDiag  1:
 E= -193.109317473840     Delta-E=       -0.000000082252 Rises=F Damp=F
 DIIS: error= 1.50D-06 at cycle   3 NSaved=   3.
 NSaved= 3 IEnMin= 3 EnMin= -193.109317473840     IErMin= 3 ErrMin= 1.50D-06
 ErrMax= 1.50D-06  0.00D+00 EMaxC= 1.00D-01 BMatC= 6.46D-10 BMatP= 3.42D-08
 IDIUse=1 WtCom= 1.00D+00 WtEn= 0.00D+00
 Coeff-Com:  0.235D+00 0.165D+00 0.600D+00
 Coeff:      0.235D+00 0.165D+00 0.600D+00
 Gap=     0.245 Goal=   None    Shift=    0.000
 RMSDP=1.76D-07 MaxDP=4.77D-06 DE=-8.23D-08 OVMax= 1.19D-05

 Cycle  11  Pass 1  IDiag  1:
 E= -193.109317474294     Delta-E=       -0.000000000454 Rises=F Damp=F
 DIIS: error= 9.33D-07 at cycle   4 NSaved=   4.
 NSaved= 4 IEnMin= 4 EnMin= -193.109317474294     IErMin= 4 ErrMin= 9.33D-07
 ErrMax= 9.33D-07  0.00D+00 EMaxC= 1.00D-01 BMatC= 1.77D-10 BMatP= 6.46D-10
 IDIUse=1 WtCom= 1.00D+00 WtEn= 0.00D+00
 Coeff-Com:  0.532D-01 0.438D-01 0.360D+00 0.543D+00
 Coeff:      0.532D-01 0.438D-01 0.360D+00 0.543D+00
 Gap=     0.245 Goal=   None    Shift=    0.000
 RMSDP=7.45D-08 MaxDP=2.01D-06 DE=-4.54D-10 OVMax= 5.23D-06

 Cycle  12  Pass 1  IDiag  1:
 E= -193.109317474450     Delta-E=       -0.000000000156 Rises=F Damp=F
 DIIS: error= 3.12D-07 at cycle   5 NSaved=   5.
 NSaved= 5 IEnMin= 5 EnMin= -193.109317474450     IErMin= 5 ErrMin= 3.12D-07
 ErrMax= 3.12D-07  0.00D+00 EMaxC= 1.00D-01 BMatC= 1.20D-11 BMatP= 1.77D-10
 IDIUse=1 WtCom= 1.00D+00 WtEn= 0.00D+00
 Coeff-Com:  0.759D-03 0.425D-02 0.113D+00 0.276D+00 0.606D+00
 Coeff:      0.759D-03 0.425D-02 0.113D+00 0.276D+00 0.606D+00
 Gap=     0.245 Goal=   None    Shift=    0.000
 RMSDP=2.45D-08 MaxDP=3.94D-07 DE=-1.56D-10 OVMax= 1.11D-06

 Cycle  13  Pass 1  IDiag  1:
 E= -193.109317474457     Delta-E=       -0.000000000007 Rises=F Damp=F
 DIIS: error= 8.85D-08 at cycle   6 NSaved=   6.
 NSaved= 6 IEnMin= 6 EnMin= -193.109317474457     IErMin= 6 ErrMin= 8.85D-08
 ErrMax= 8.85D-08  0.00D+00 EMaxC= 1.00D-01 BMatC= 1.93D-12 BMatP= 1.20D-11
 IDIUse=1 WtCom= 1.00D+00 WtEn= 0.00D+00
 Coeff-Com: -0.109D-02 0.151D-02 0.633D-01 0.164D+00 0.402D+00 0.370D+00
 Coeff:     -0.109D-02 0.151D-02 0.633D-01 0.164D+00 0.402D+00 0.370D+00
 Gap=     0.245 Goal=   None    Shift=    0.000
 RMSDP=7.60D-09 MaxDP=1.80D-07 DE=-6.71D-12 OVMax= 3.36D-07

 SCF Done:  E(RB-LYP) =  -193.109317474     A.U. after   13 cycles
            NFock= 13  Conv=0.76D-08     -V/T= 2.0039
 KE= 1.923570623095D+02 PE=-6.980420838274D+02 EE= 1.890417827484D+02
 Leave Link  502 at Sat Mar 16 14:07:40 2019, MaxMem=   104857600 cpu:              73.1 elap:               7.7
 (Enter /util/academic/gaussian/g16.A03/x86-64-SSE4_2/g16/l801.exe)
 DoSCS=F DFT=T ScalE2(SS,OS)=  1.000000  1.000000
 Range of M.O.s used for correlation:     1   160
 NBasis=   160 NAE=    16 NBE=    16 NFC=     0 NFV=     0
 NROrb=    160 NOA=    16 NOB=    16 NVA=   144 NVB=   144

 **** Warning!!: The largest alpha MO coefficient is  0.16459817D+02

 Leave Link  801 at Sat Mar 16 14:07:40 2019, MaxMem=   104857600 cpu:               0.7 elap:               0.1
 (Enter /util/academic/gaussian/g16.A03/x86-64-SSE4_2/g16/l1101.exe)
 Using compressed storage, NAtomX=    10.
 Will process     11 centers per pass.
   1 Symmetry operations used in ECPInt.
 ECPInt:  NShTT=    2346 NPrTT=    6892 LenC2=    2340 LenP2D=    5993.
 LDataN:  DoStor=T MaxTD1= 7 Len=  274
 Leave Link 1101 at Sat Mar 16 14:07:40 2019, MaxMem=   104857600 cpu:               3.2 elap:               0.3
 (Enter /util/academic/gaussian/g16.A03/x86-64-SSE4_2/g16/l1102.exe)
 Symmetrizing basis deriv contribution to polar:
 IMax=3 JMax=2 DiffMx= 0.00D+00
 Leave Link 1102 at Sat Mar 16 14:07:40 2019, MaxMem=   104857600 cpu:               0.7 elap:               0.1
 (Enter /util/academic/gaussian/g16.A03/x86-64-SSE4_2/g16/l1110.exe)
 Forming Gx(P) for the SCF density, NAtomX=    10.
 Integral derivatives from FoFJK, PRISM(SPDF).
 Do as many integral derivatives as possible in FoFJK.
 G2DrvN: MDV=     104856744.
 G2DrvN: will do    11 centers at a time, making    1 passes.
 Calling FoFCou, ICntrl=  3507 FMM=F I1Cent=   0 AccDes= 0.00D+00.
 FoFJK:  IHMeth= 1 ICntrl=    3507 DoSepK=F KAlg= 0 I1Cent=           0 FoldK=F
 IRaf=         0 NMat=       1 IRICut=       1 DoRegI=T DoRafI=F ISym2E= 0 IDoP0=0 IntGTp=1.
 FoFCou: FMM=F IPFlag=           0 FMFlag=      100000 FMFlg1=           0
         NFxFlg=           0 DoJE=F BraDBF=F KetDBF=F FulRan=T
         wScrn=  0.000000 ICntrl=      3507 IOpCl=  0 I1Cent=           0 NGrid=           0
         NMat0=    1 NMatS0=      1 NMatT0=    0 NMatD0=    1 NMtDS0=    0 NMtDT0=    0
 Symmetry not used in FoFCou.
 End of G2Drv F.D. properties file   721 does not exist.
 End of G2Drv F.D. properties file   722 does not exist.
 End of G2Drv F.D. properties file   788 does not exist.
 Leave Link 1110 at Sat Mar 16 14:07:57 2019, MaxMem=   104857600 cpu:             193.4 elap:              16.2
 (Enter /util/academic/gaussian/g16.A03/x86-64-SSE4_2/g16/l1002.exe)
 Minotr:  Closed shell wavefunction.
          IDoAtm=1111111111
          Direct CPHF calculation.
          Differentiating once with respect to electric field.
                with respect to dipole field.
          Differentiating once with respect to nuclear coordinates.
          Requested convergence is 1.0D-08 RMS, and 1.0D-07 maximum.
          Secondary convergence is 1.0D-12 RMS, and 1.0D-12 maximum.
          NewPWx=T KeepS1=F KeepF1=F KeepIn=T MapXYZ=F SortEE=F KeepMc=T.
         2960 words used for storage of precomputed grid.
 Keep J ints in memory in canonical form, NReq=95021292.
 FoFCou: FMM=F IPFlag=           0 FMFlag=           0 FMFlg1=           0
         NFxFlg=           0 DoJE=F BraDBF=F KetDBF=F FulRan=T
         wScrn=  0.000000 ICntrl=       600 IOpCl=  0 I1Cent=           0 NGrid=           0
         NMat0=    1 NMatS0=  12880 NMatT0=    0 NMatD0=    1 NMtDS0=    0 NMtDT0=    0
 Symmetry not used in FoFCou.
 CoulSu:  requested number of processors reduced to:  10 ShMem   1 Linda.
 Two-electron integral symmetry not used.
          MDV=     104857600 using IRadAn=       1.
          Solving linear equations simultaneously, MaxMat=       0.
 CalDSu:  requested number of processors reduced to:  11 ShMem   1 Linda.
          There are    33 degrees of freedom in the 1st order CPHF.  IDoFFX=6 NUNeed=     3.
     30 vectors produced by pass  0 Test12= 6.98D-15 3.03D-09 XBig12= 3.92D+01 2.55D+00.
 AX will form    30 AO Fock derivatives at one time.
 CalDSu:  requested number of processors reduced to:  11 ShMem   1 Linda.
     30 vectors produced by pass  1 Test12= 6.98D-15 3.03D-09 XBig12= 1.48D+01 7.16D-01.
 CalDSu:  requested number of processors reduced to:  11 ShMem   1 Linda.
     30 vectors produced by pass  2 Test12= 6.98D-15 3.03D-09 XBig12= 5.93D-02 3.45D-02.
 CalDSu:  requested number of processors reduced to:  11 ShMem   1 Linda.
     30 vectors produced by pass  3 Test12= 6.98D-15 3.03D-09 XBig12= 9.28D-05 1.54D-03.
 CalDSu:  requested number of processors reduced to:  11 ShMem   1 Linda.
     24 vectors produced by pass  4 Test12= 6.98D-15 3.03D-09 XBig12= 3.09D-08 2.03D-05.
      6 vectors produced by pass  5 Test12= 6.98D-15 3.03D-09 XBig12= 1.04D-11 3.92D-07.
      2 vectors produced by pass  6 Test12= 6.98D-15 3.03D-09 XBig12= 2.56D-15 5.55D-09.
 InvSVY:  IOpt=1 It=  1 EMax= 6.22D-15
 Solved reduced A of dimension   152 with    33 vectors.
 FullF1:  Do perturbations      1 to       3.
 Isotropic polarizability for W=    0.000000       40.74 Bohr**3.
 End of Minotr F.D. properties file   721 does not exist.
 End of Minotr F.D. properties file   722 does not exist.
 End of Minotr F.D. properties file   788 does not exist.
 Leave Link 1002 at Sat Mar 16 14:08:18 2019, MaxMem=   104857600 cpu:             238.4 elap:              21.2
 (Enter /util/academic/gaussian/g16.A03/x86-64-SSE4_2/g16/l601.exe)
 Copying SCF densities to generalized density rwf, IOpCl= 0 IROHF=0.

 **********************************************************************

            Population analysis using the SCF density.

 **********************************************************************

 Alpha  occ. eigenvalues --  -18.77971  -9.96323  -9.95559  -9.90797  -0.96245
 Alpha  occ. eigenvalues --   -0.66978  -0.58980  -0.52994  -0.44772  -0.41359
 Alpha  occ. eigenvalues --   -0.37684  -0.35601  -0.32909  -0.32119  -0.26342
 Alpha  occ. eigenvalues --   -0.21966
 Alpha virt. eigenvalues --    0.02570   0.04282   0.05007   0.05091   0.06466
 Alpha virt. eigenvalues --    0.08605   0.09141   0.10254   0.13895   0.17035
 Alpha virt. eigenvalues --    0.19742   0.20206   0.23635   0.24754   0.26869
 Alpha virt. eigenvalues --    0.27784   0.30096   0.33742   0.36255   0.37205
 Alpha virt. eigenvalues --    0.38492   0.39476   0.40158   0.41535   0.42685
 Alpha virt. eigenvalues --    0.44708   0.45952   0.46914   0.50805   0.53696
 Alpha virt. eigenvalues --    0.65781   0.67430   0.70750   0.76118   0.79436
 Alpha virt. eigenvalues --    0.83210   0.85440   0.87143   0.92020   0.96124
 Alpha virt. eigenvalues --    0.99198   1.01225   1.04167   1.07885   1.10532
 Alpha virt. eigenvalues --    1.14723   1.21509   1.34865   1.41570   1.43274
 Alpha virt. eigenvalues --    1.44318   1.44659   1.47419   1.47783   1.51243
 Alpha virt. eigenvalues --    1.54228   1.57705   1.59768   1.64186   1.69503
 Alpha virt. eigenvalues --    1.70110   1.78961   1.81554   1.84239   1.86731
 Alpha virt. eigenvalues --    1.92088   1.99124   1.99448   2.08964   2.09716
 Alpha virt. eigenvalues --    2.16629   2.20002   2.22929   2.24376   2.26661
 Alpha virt. eigenvalues --    2.28313   2.35062   2.38738   2.45089   2.47359
 Alpha virt. eigenvalues --    2.48357   2.52550   2.53261   2.55955   2.59876
 Alpha virt. eigenvalues --    2.64941   2.66819   2.71622   2.73971   2.80658
 Alpha virt. eigenvalues --    2.83170   2.86193   2.89880   2.96065   2.96591
 Alpha virt. eigenvalues --    2.98860   3.00740   3.03466   3.06896   3.14637
 Alpha virt. eigenvalues --    3.16711   3.19028   3.27850   3.29301   3.31668
 Alpha virt. eigenvalues --    3.35413   3.37323   3.43046   3.45653   3.56426
 Alpha virt. eigenvalues --    3.57230   3.63635   3.76651   3.78474   3.88096
 Alpha virt. eigenvalues --    3.89768   3.98775   4.04857   4.14527   4.19657
 Alpha virt. eigenvalues --    4.26085   4.28846   4.33840   4.46955   4.56124
 Alpha virt. eigenvalues --    4.57250   4.73814   4.77076   5.18193   5.34675
 Alpha virt. eigenvalues --    5.57767   5.60385   5.66717   5.76371   5.90909
 Alpha virt. eigenvalues --    6.46466   6.50715   6.67647   6.84213   7.05563
 Alpha virt. eigenvalues --   21.94076  21.98212  22.10131  43.41417
          Condensed to atoms (all electrons):
               1          2          3          4          5          6
     1  O    8.072089   0.182615   0.219113  -0.038102  -0.030415  -0.036617
     2  C    0.182615   4.855874   0.315508   0.326542   0.400766  -0.036348
     3  C    0.219113   0.315508   4.798409  -0.047080  -0.036946   0.392422
     4  C   -0.038102   0.326542  -0.047080   4.952665  -0.064830  -0.001531
     5  H   -0.030415   0.400766  -0.036946  -0.064830   0.633091   0.002341
     6  H   -0.036617  -0.036348   0.392422  -0.001531   0.002341   0.653464
     7  H   -0.041622  -0.018459   0.377031   0.008640   0.000753  -0.063216
     8  H    0.008013  -0.034326  -0.004263   0.367245   0.004722   0.001597
     9  H   -0.005074  -0.039097   0.010945   0.402865  -0.006129  -0.000667
    10  H    0.007961  -0.052588   0.004440   0.394847   0.008407   0.000945
               7          8          9         10
     1  O   -0.041622   0.008013  -0.005074   0.007961
     2  C   -0.018459  -0.034326  -0.039097  -0.052588
     3  C    0.377031  -0.004263   0.010945   0.004440
     4  C    0.008640   0.367245   0.402865   0.394847
     5  H    0.000753   0.004722  -0.006129   0.008407
     6  H   -0.063216   0.001597  -0.000667   0.000945
     7  H    0.655291  -0.002530   0.000163  -0.000695
     8  H   -0.002530   0.618812  -0.033850  -0.019764
     9  H    0.000163  -0.033850   0.590133  -0.027569
    10  H   -0.000695  -0.019764  -0.027569   0.577841
 Mulliken charges:
               1
     1  O   -0.337960
     2  C    0.099513
     3  C   -0.029579
     4  C   -0.301262
     5  H    0.088240
     6  H    0.087609
     7  H    0.084643
     8  H    0.094344
     9  H    0.108279
    10  H    0.106174
 Sum of Mulliken charges =  -0.00000
 Mulliken charges with hydrogens summed into heavy atoms:
               1
     1  O   -0.337960
     2  C    0.187753
     3  C    0.142672
     4  C    0.007535
 APT charges:
               1
     1  O   -0.534673
     2  C    0.371669
     3  C    0.268200
     4  C    0.036895
     5  H   -0.051230
     6  H   -0.029658
     7  H   -0.022971
     8  H   -0.015202
     9  H   -0.016756
    10  H   -0.006276
 Sum of APT charges =   0.00000
 APT charges with hydrogens summed into heavy atoms:
               1
     1  O   -0.534673
     2  C    0.320440
     3  C    0.215571
     4  C   -0.001338
 Electronic spatial extent (au):  <R**2>=            281.1537
 Charge=             -0.0000 electrons
 Dipole moment (field-independent basis, Debye):
    X=              1.7548    Y=              0.8279    Z=             -0.1453  Tot=              1.9457
 Quadrupole moment (field-independent basis, Debye-Ang):
   XX=            -26.9358   YY=            -23.9917   ZZ=            -24.4761
   XY=             -1.4948   XZ=              0.2050   YZ=              0.3365
 Traceless Quadrupole moment (field-independent basis, Debye-Ang):
   XX=             -1.8013   YY=              1.1429   ZZ=              0.6584
   XY=             -1.4948   XZ=              0.2050   YZ=              0.3365
 Octapole moment (field-independent basis, Debye-Ang**2):
  XXX=            -18.1078  YYY=             -4.6781  ZZZ=             16.0047  XYY=             -7.4189
  XXY=             -1.5776  XXZ=              4.6853  XZZ=             -6.6829  YZZ=             -0.5753
  YYZ=              4.9965  XYZ=             -0.3666
 Hexadecapole moment (field-independent basis, Debye-Ang**3):
 XXXX=           -143.2734 YYYY=           -108.1944 ZZZZ=           -126.3340 XXXY=             20.9599
 XXXZ=             36.2706 YYYX=             19.2128 YYYZ=            -20.8729 ZZZX=             38.6404
 ZZZY=            -22.0611 XXYY=            -44.1342 XXZZ=            -46.6687 YYZZ=            -38.0869
 XXYZ=             -7.9084 YYXZ=             12.3608 ZZXY=              5.9064
 N-N= 1.235339212950D+02 E-N=-6.980420753832D+02  KE= 1.923570623095D+02
  Exact polarizability:  39.678  -4.846  42.503  -2.893   2.969  40.029
 Approx polarizability:  67.437  -3.508  69.472  -1.567   2.352  59.075
 No NMR shielding tensors so no spin-rotation constants.
 Leave Link  601 at Sat Mar 16 14:08:18 2019, MaxMem=   104857600 cpu:               3.3 elap:               0.3
 (Enter /util/academic/gaussian/g16.A03/x86-64-SSE4_2/g16/l701.exe)
 ... and contract with generalized density number  0.
 Compute integral second derivatives.
   1 Symmetry operations used in ECPInt.
 ECPInt:  NShTT=    2346 NPrTT=    6892 LenC2=    2340 LenP2D=    5993.
 LDataN:  DoStor=T MaxTD1= 8 Len=  415
 Leave Link  701 at Sat Mar 16 14:08:19 2019, MaxMem=   104857600 cpu:               3.5 elap:               0.3
 (Enter /util/academic/gaussian/g16.A03/x86-64-SSE4_2/g16/l702.exe)
 L702 exits ... SP integral derivatives will be done elsewhere.
 Leave Link  702 at Sat Mar 16 14:08:19 2019, MaxMem=   104857600 cpu:               0.3 elap:               0.0
 (Enter /util/academic/gaussian/g16.A03/x86-64-SSE4_2/g16/l703.exe)
 Integral derivatives from FoFJK, PRISM(SPDF).
 Compute integral second derivatives, UseDBF=F ICtDFT=           0.
 Calling FoFJK, ICntrl=    100527 FMM=F ISym2X=0 I1Cent= 0 IOpClX= 0 NMat=1 NMatS=1 NMatT=0.
 FoFJK:  IHMeth= 1 ICntrl=  100527 DoSepK=F KAlg= 0 I1Cent=           0 FoldK=F
 IRaf=         0 NMat=       1 IRICut=       1 DoRegI=T DoRafI=F ISym2E= 0 IDoP0=0 IntGTp=1.
 FoFCou: FMM=F IPFlag=           0 FMFlag=      100000 FMFlg1=         800
         NFxFlg=           0 DoJE=F BraDBF=F KetDBF=F FulRan=T
         wScrn=  0.000000 ICntrl=    100527 IOpCl=  0 I1Cent=           0 NGrid=           0
         NMat0=    1 NMatS0=      1 NMatT0=    0 NMatD0=    1 NMtDS0=    0 NMtDT0=    0
 Symmetry not used in FoFCou.
 Leave Link  703 at Sat Mar 16 14:08:50 2019, MaxMem=   104857600 cpu:             375.0 elap:              31.3
 (Enter /util/academic/gaussian/g16.A03/x86-64-SSE4_2/g16/l716.exe)
 Dipole        = 6.90404151D-01 3.25709557D-01-5.71487639D-02
 Polarizability= 3.96781436D+01-4.84554692D+00 4.25025608D+01
                -2.89328806D+00 2.96918868D+00 4.00292467D+01
 Full mass-weighted force constant matrix:
 Low frequencies ---   -2.6205   -0.0007    0.0003    0.0010    4.0307    7.5442
 Low frequencies ---  202.1285  355.3692  399.4567
 Diagonal vibrational polarizability:
        3.2333344       1.3508020       1.4153042
 Harmonic frequencies (cm**-1), IR intensities (KM/Mole), Raman scattering
 activities (A**4/AMU), depolarization ratios for plane and unpolarized
 incident light, reduced masses (AMU), force constants (mDyne/A),
 and normal coordinates:
                      1                      2                      3
                      A                      A                      A
 Frequencies --    202.1285               355.3692               399.4567
 Red. masses --      1.0923                 2.3795                 2.4341
 Frc consts  --      0.0263                 0.1771                 0.2288
 IR Inten    --      0.3995                 3.7016                 4.0105
  Atom  AN      X      Y      Z        X      Y      Z        X      Y      Z
     1   8    -0.03   0.03  -0.02    -0.08   0.01   0.15     0.09  -0.04  -0.13
     2   6    -0.02  -0.04   0.00    -0.08  -0.15   0.02     0.08  -0.03   0.19
     3   6     0.04  -0.01   0.02     0.09  -0.04  -0.17     0.05  -0.02  -0.08
     4   6     0.01   0.00   0.00     0.04   0.13  -0.00    -0.17   0.08   0.08
     5   1    -0.06  -0.08   0.00    -0.06  -0.13   0.02     0.01  -0.05   0.21
     6   1     0.06  -0.03   0.03     0.17   0.23  -0.29    -0.26   0.09  -0.14
     7   1     0.09   0.02   0.03     0.17  -0.25  -0.35     0.32  -0.12  -0.20
     8   1    -0.15   0.54  -0.18     0.02   0.24   0.27    -0.18   0.06  -0.27
     9   1     0.54  -0.05   0.20     0.17   0.18  -0.36    -0.29   0.11  -0.07
    10   1    -0.35  -0.41  -0.01     0.16   0.37   0.07    -0.46   0.20   0.34
                      4                      5                      6
                      A                      A                      A
 Frequencies --    719.8958               798.6941               876.5361
 Red. masses --      4.5471                 3.1986                 1.4246
 Frc consts  --      1.3884                 1.2022                 0.6449
 IR Inten    --     10.1582                40.7777                 3.8151
  Atom  AN      X      Y      Z        X      Y      Z        X      Y      Z
     1   8    -0.16   0.21   0.06     0.22   0.08   0.02    -0.05  -0.08   0.02
     2   6     0.29   0.01   0.11    -0.12  -0.18   0.06    -0.03   0.06   0.03
     3   6    -0.20  -0.21   0.01    -0.16   0.15   0.06     0.06   0.05   0.06
     4   6     0.14  -0.05  -0.13     0.04  -0.08  -0.11     0.03   0.04  -0.08
     5   1    -0.03  -0.19   0.15    -0.15  -0.30   0.04    -0.05  -0.25  -0.12
     6   1    -0.29   0.05  -0.09    -0.65   0.25  -0.01    -0.45   0.28  -0.08
     7   1     0.19  -0.19  -0.08    -0.09  -0.01  -0.09     0.49  -0.16  -0.19
     8   1     0.14  -0.12  -0.58    -0.01   0.10   0.02     0.09  -0.17  -0.13
     9   1    -0.03  -0.03  -0.23     0.20  -0.05  -0.39    -0.10  -0.01   0.31
    10   1    -0.15   0.04   0.11     0.04   0.05  -0.04     0.10  -0.22  -0.28
                      7                      8                      9
                      A                      A                      A
 Frequencies --    930.8152              1008.3240              1090.8789
 Red. masses --      1.9859                 1.1614                 1.4745
 Frc consts  --      1.0138                 0.6957                 1.0339
 IR Inten    --     12.7853                 6.6599                 5.2374
  Atom  AN      X      Y      Z        X      Y      Z        X      Y      Z
     1   8     0.09   0.10   0.01    -0.03  -0.01   0.00    -0.04  -0.03  -0.06
     2   6     0.06  -0.01  -0.09     0.02   0.03   0.04     0.08   0.07   0.02
     3   6    -0.08  -0.14  -0.01     0.01  -0.00  -0.01     0.02   0.02   0.11
     4   6    -0.13   0.07   0.07    -0.06  -0.06  -0.05    -0.06  -0.08  -0.02
     5   1     0.13  -0.32  -0.30     0.35   0.43   0.07    -0.06  -0.17  -0.03
     6   1    -0.13  -0.02  -0.06    -0.30  -0.19   0.06     0.20   0.54  -0.11
     7   1     0.20  -0.16  -0.09     0.42   0.19   0.08    -0.30  -0.40  -0.18
     8   1    -0.09   0.01   0.52    -0.10   0.16   0.32    -0.12   0.19   0.29
     9   1     0.05   0.01   0.42     0.25  -0.04  -0.27     0.25  -0.05  -0.26
    10   1     0.24  -0.14  -0.29     0.17   0.09  -0.10     0.13   0.15  -0.01
                     10                     11                     12
                      A                      A                      A
 Frequencies --   1114.5786              1126.0977              1150.7720
 Red. masses --      1.3721                 1.5157                 1.6427
 Frc consts  --      1.0043                 1.1324                 1.2817
 IR Inten    --      1.6667                 3.2872                 0.2685
  Atom  AN      X      Y      Z        X      Y      Z        X      Y      Z
     1   8     0.05   0.00  -0.03     0.02  -0.05   0.04    -0.01  -0.04   0.01
     2   6    -0.08   0.01   0.06     0.02   0.09  -0.11     0.07   0.03   0.16
     3   6    -0.11  -0.04   0.04    -0.07   0.04  -0.01    -0.02   0.06  -0.10
     4   6     0.01   0.02  -0.05     0.01  -0.07   0.08    -0.05   0.01  -0.09
     5   1    -0.01   0.29   0.17    -0.35  -0.38  -0.16    -0.29  -0.52   0.08
     6   1     0.71   0.17  -0.01     0.10  -0.04   0.02     0.29  -0.27   0.06
     7   1     0.49  -0.13  -0.13     0.58   0.21   0.01    -0.13   0.39   0.19
     8   1     0.03  -0.07  -0.06    -0.06   0.17  -0.03    -0.02  -0.04   0.15
     9   1    -0.01   0.00   0.03     0.01  -0.01  -0.25     0.16  -0.02   0.07
    10   1     0.06  -0.09  -0.15    -0.13   0.20   0.32     0.23  -0.08  -0.32
                     13                     14                     15
                      A                      A                      A
 Frequencies --   1249.1507              1370.6982              1390.3147
 Red. masses --      1.7037                 1.2544                 1.6055
 Frc consts  --      1.5663                 1.3886                 1.8284
 IR Inten    --      4.9652                 3.6810                21.5943
  Atom  AN      X      Y      Z        X      Y      Z        X      Y      Z
     1   8    -0.07  -0.03  -0.02    -0.01  -0.01   0.00     0.02   0.03  -0.01
     2   6     0.08  -0.14  -0.00     0.06  -0.06  -0.04    -0.11   0.10   0.10
     3   6    -0.09   0.14   0.01    -0.01   0.02   0.01     0.01  -0.05  -0.03
     4   6     0.01   0.02   0.04     0.03   0.00  -0.11     0.08  -0.07  -0.07
     5   1     0.74  -0.18  -0.37    -0.24   0.17   0.24     0.44  -0.30  -0.39
     6   1     0.24   0.24  -0.01    -0.01   0.16  -0.04     0.08  -0.24   0.05
     7   1     0.09   0.24   0.05     0.04   0.12   0.07    -0.07  -0.16  -0.09
     8   1     0.04  -0.09  -0.01     0.01   0.08   0.56    -0.04   0.34   0.21
     9   1    -0.03   0.01   0.06    -0.18  -0.07   0.46    -0.33  -0.07   0.13
    10   1    -0.09  -0.04   0.07    -0.36   0.15   0.25    -0.18   0.14   0.22
                     16                     17                     18
                      A                      A                      A
 Frequencies --   1447.4342              1460.5020              1484.8707
 Red. masses --      1.0486                 1.0535                 1.2560
 Frc consts  --      1.2943                 1.3240                 1.6316
 IR Inten    --      4.9040                 5.6871                 3.4696
  Atom  AN      X      Y      Z        X      Y      Z        X      Y      Z
     1   8    -0.00  -0.00  -0.00     0.01   0.01   0.00     0.02   0.00  -0.00
     2   6     0.00  -0.04  -0.01    -0.04   0.02   0.01    -0.06   0.04   0.02
     3   6    -0.00  -0.00  -0.00     0.00  -0.00  -0.00     0.02  -0.12  -0.02
     4   6    -0.02  -0.05   0.00    -0.03  -0.00  -0.03     0.01   0.00  -0.00
     5   1    -0.01   0.06   0.05     0.08  -0.04  -0.09     0.07  -0.04  -0.09
     6   1    -0.00   0.12  -0.05     0.01  -0.10   0.03    -0.06   0.59  -0.32
     7   1     0.00   0.10   0.08     0.01  -0.08  -0.06    -0.04   0.50   0.47
     8   1    -0.15   0.42  -0.39     0.11  -0.44  -0.12     0.04  -0.11  -0.00
     9   1    -0.13  -0.08   0.41     0.61  -0.08   0.30     0.08   0.01  -0.08
    10   1     0.48   0.43  -0.04    -0.07   0.43   0.28    -0.08  -0.03   0.04
                     19                     20                     21
                      A                      A                      A
 Frequencies --   2958.2180              3000.1198              3006.2940
 Red. masses --      1.0354                 1.0489                 1.0879
 Frc consts  --      5.3385                 5.5622                 5.7929
 IR Inten    --     20.3473                32.6931                13.0123
  Atom  AN      X      Y      Z        X      Y      Z        X      Y      Z
     1   8     0.00  -0.00   0.00     0.00  -0.00  -0.00    -0.00   0.00   0.00
     2   6     0.00  -0.00   0.00     0.00  -0.00   0.01    -0.03   0.03  -0.06
     3   6     0.00   0.00  -0.00     0.01  -0.06  -0.01     0.00  -0.01   0.01
     4   6    -0.03   0.01   0.04    -0.00   0.00  -0.00     0.02  -0.01   0.02
     5   1    -0.02   0.02  -0.03    -0.07   0.06  -0.12     0.39  -0.37   0.73
     6   1    -0.00  -0.00  -0.01    -0.02   0.26   0.64    -0.01   0.02   0.05
     7   1     0.00  -0.01   0.02    -0.09   0.43  -0.55    -0.02   0.10  -0.13
     8   1     0.64   0.19  -0.01     0.01   0.00  -0.00    -0.13  -0.04   0.00
     9   1    -0.03  -0.57  -0.07    -0.00  -0.04  -0.01     0.01   0.03   0.01
    10   1    -0.23   0.21  -0.34     0.02  -0.02   0.03    -0.17   0.16  -0.25
                     22                     23                     24
                      A                      A                      A
 Frequencies --   3009.6944              3035.4230              3079.0413
 Red. masses --      1.0998                 1.1004                 1.1203
 Frc consts  --      5.8697                 5.9735                 6.2579
 IR Inten    --     23.5290                34.6835                35.3034
  Atom  AN      X      Y      Z        X      Y      Z        X      Y      Z
     1   8     0.00   0.00   0.00     0.00   0.00   0.00    -0.00  -0.00   0.00
     2   6    -0.00   0.00  -0.01    -0.01   0.01  -0.03    -0.00   0.00  -0.01
     3   6    -0.00  -0.00   0.00     0.00  -0.00   0.01    -0.00   0.01  -0.10
     4   6    -0.06  -0.07  -0.01    -0.05   0.05  -0.04    -0.00   0.00  -0.00
     5   1     0.04  -0.03   0.07     0.15  -0.15   0.29     0.04  -0.05   0.08
     6   1    -0.00   0.01   0.02     0.00  -0.02  -0.05    -0.04   0.29   0.65
     7   1    -0.00   0.02  -0.02    -0.00   0.03  -0.04     0.10  -0.43   0.52
     8   1     0.64   0.17  -0.02     0.26   0.09  -0.02     0.01   0.00  -0.00
     9   1     0.02   0.73   0.10    -0.03  -0.34  -0.06    -0.00  -0.01  -0.00
    10   1     0.01  -0.04   0.03     0.40  -0.37   0.61     0.02  -0.02   0.03

 -------------------
 - Thermochemistry -
 -------------------
 Temperature   298.150 Kelvin.  Pressure   1.00000 Atm.
 Atom     1 has atomic number  8 and mass  15.99491
 Atom     2 has atomic number  6 and mass  12.00000
 Atom     3 has atomic number  6 and mass  12.00000
 Atom     4 has atomic number  6 and mass  12.00000
 Atom     5 has atomic number  1 and mass   1.00783
 Atom     6 has atomic number  1 and mass   1.00783
 Atom     7 has atomic number  1 and mass   1.00783
 Atom     8 has atomic number  1 and mass   1.00783
 Atom     9 has atomic number  1 and mass   1.00783
 Atom    10 has atomic number  1 and mass   1.00783
 Molecular mass:    58.04186 amu.
 Principal axes and moments of inertia in atomic units:
                           1         2         3
     Eigenvalues --   101.30750 275.53633 310.09725
           X            0.69188   0.54096   0.47818
           Y           -0.42487   0.84053  -0.33614
           Z           -0.58376   0.02941   0.81139
 This molecule is an asymmetric top.
 Rotational symmetry number  1.
 Rotational temperatures (Kelvin)      0.85496     0.31435     0.27931
 Rotational constants (GHZ):          17.81449     6.54992     5.81992
 Zero-point vibrational energy     216914.7 (Joules/Mol)
                                   51.84386 (Kcal/Mol)
 Warning -- explicit consideration of   3 degrees of freedom as
           vibrations may cause significant error
 Vibrational temperatures:    290.82   511.30   574.73  1035.77  1149.14
          (Kelvin)           1261.14  1339.24  1450.75  1569.53  1603.63
                             1620.20  1655.70  1797.25  1972.13  2000.35
                             2082.53  2101.34  2136.40  4256.22  4316.50
                             4325.39  4330.28  4367.30  4430.05
 
 Zero-point correction=                           0.082618 (Hartree/Particle)
 Thermal correction to Energy=                    0.087139
 Thermal correction to Enthalpy=                  0.088084
 Thermal correction to Gibbs Free Energy=         0.056157
 Sum of electronic and zero-point Energies=           -193.026699
 Sum of electronic and thermal Energies=              -193.022178
 Sum of electronic and thermal Enthalpies=            -193.021234
 Sum of electronic and thermal Free Energies=         -193.053160
 
                     E (Thermal)             CV                S
                      KCal/Mol        Cal/Mol-Kelvin    Cal/Mol-Kelvin
 Total                   54.681             15.349             67.195
 Electronic               0.000              0.000              0.000
 Translational            0.889              2.981             38.096
 Rotational               0.889              2.981             23.674
 Vibrational             52.903              9.388              5.424
 Vibration     1          0.639              1.837              2.114
 Vibration     2          0.731              1.564              1.142
 Vibration     3          0.766              1.471              0.965
                       Q            Log10(Q)             Ln(Q)
 Total Bot       0.147731D-25        -25.830529        -59.476992
 Total V=0       0.148350D+13         12.171286         28.025422
 Vib (Bot)       0.255211D-37        -37.593100        -86.561312
 Vib (Bot)    1  0.985670D+00         -0.006268         -0.014433
 Vib (Bot)    2  0.517358D+00         -0.286209         -0.659020
 Vib (Bot)    3  0.446374D+00         -0.350301         -0.806599
 Vib (V=0)       0.256280D+01          0.408715          0.941102
 Vib (V=0)    1  0.160524D+01          0.205539          0.473271
 Vib (V=0)    2  0.121949D+01          0.086177          0.198429
 Vib (V=0)    3  0.117026D+01          0.068283          0.157227
 Electronic      0.100000D+01          0.000000          0.000000
 Translational   0.173806D+08          7.240066         16.670868
 Rotational      0.333046D+05          4.522505         10.413452
 
                                                                 freq
                                                             IR Spectrum
 
     333332                                                            111 11    1   1111  1                                         
     000009                                                            444 33    2   1110  0  9 8   7  7            3 3     2        
     731005                                                            864 97    4   5219  0  3 7   9  2            9 5     0        
     950608                                                            517 01    9   1651  8  1 7   9  0            9 5     2        
 
     XXXXXX                                                            XXX XX    X   XXXX  X  X X   X  X            X X     X        
     XXXXXX                                                            XXX XX    X    X X  X  X X   X  X            X X              
     XXXXXX                                                             X  X            X  X  X     X  X                             
     XXXXXX                                                                X                  X     X  X                             
     XXXXXX                                                                X                  X     X  X                             
     XXXXXX                                                                X                  X     X                                
     XXX XX                                                                X                        X                                
     XXX XX                                                                X                        X                                
     XXX XX                                                                X                        X                                
     XXX XX                                                                X                        X                                
     XXX X                                                                 X                        X                                
     XXX X                                                                                          X                                
     XX  X                                                                                          X                                
     XX  X                                                                                          X                                
     XX  X                                                                                          X                                
     XX  X                                                                                          X                                
     XX                                                                                             X                                
                                                                                                    X                                
                                                                                                    X                                
                                                                                                    X                                
 
 -------------------------------------------------------------------
 Center     Atomic                   Forces (Hartrees/Bohr)
 Number     Number              X              Y              Z
 -------------------------------------------------------------------
      1        8           0.000000368   -0.000000090   -0.000000504
      2        6          -0.000000928   -0.000000546    0.000000475
      3        6          -0.000000117    0.000001619    0.000000263
      4        6          -0.000000151   -0.000000600   -0.000000057
      5        1          -0.000000662    0.000000271   -0.000000046
      6        1          -0.000000258   -0.000000001   -0.000000987
      7        1           0.000000323   -0.000000094   -0.000000495
      8        1           0.000000484   -0.000000345    0.000000490
      9        1           0.000000148    0.000000182    0.000000529
     10        1           0.000000793   -0.000000396    0.000000331
 -------------------------------------------------------------------
 Cartesian Forces:  Max     0.000001619 RMS     0.000000536
 Z-matrix is all fixed cartesians, so copy forces.
 Force constants in Cartesian coordinates: 
                1             2             3             4             5 
      1  0.282341D+00
      2  0.878698D-01  0.202895D+00
      3  0.245489D-02  0.124277D-01  0.883745D-01
      4 -0.177116D+00 -0.296875D-01 -0.516999D-02  0.412534D+00
      5  0.145908D-01 -0.260041D-01  0.314425D-02 -0.183654D+00  0.405914D+00
      6  0.468646D-02  0.513136D-02 -0.580461D-01  0.208430D-01 -0.330965D-01
      7 -0.631259D-01 -0.538757D-01 -0.632982D-02 -0.634209D-01  0.968292D-01
      8 -0.996769D-01 -0.145267D+00 -0.574276D-02  0.151151D+00 -0.186320D+00
      9 -0.142675D-01 -0.962063D-02 -0.578213D-01  0.204805D-01 -0.180391D-01
     10 -0.263029D-01  0.123190D-01  0.307963D-01 -0.774000D-01  0.108551D-01
     11 -0.411544D-02  0.529485D-02  0.115586D-01  0.166422D-01 -0.819257D-01
     12  0.605373D-02 -0.711975D-03  0.460153D-02  0.342996D-01 -0.244706D-01
     13 -0.260960D-01  0.172734D-01 -0.192553D-01 -0.790363D-01  0.421392D-01
     14 -0.422683D-02  0.557850D-02 -0.114301D-01  0.476455D-01 -0.879106D-01
     15 -0.286777D-02 -0.177099D-02  0.714325D-02 -0.816185D-01  0.855949D-01
     16  0.229998D-02 -0.136655D-01 -0.222749D-01 -0.936824D-03  0.214964D-02
     17  0.479351D-03 -0.190650D-01 -0.189295D-01 -0.382016D-02 -0.846325D-02
     18 -0.222293D-02 -0.601873D-02  0.676826D-02 -0.215100D-02  0.179080D-02
     19  0.406714D-02 -0.196986D-01  0.183426D-01 -0.500922D-02  0.115717D-01
     20  0.202046D-02 -0.239118D-01  0.107397D-01 -0.272311D-02 -0.114622D-01
     21  0.237482D-02 -0.506434D-03  0.856091D-02  0.167605D-02 -0.447690D-02
     22  0.773279D-03  0.138797D-02  0.365406D-02 -0.128109D-01 -0.323237D-02
     23  0.201293D-02 -0.261552D-03 -0.265809D-02  0.800141D-02  0.124013D-02
     24  0.390549D-02 -0.197009D-02 -0.528706D-02  0.265667D-01  0.874910D-02
     25  0.182474D-02 -0.844019D-03 -0.143001D-02 -0.158341D-02  0.147919D-01
     26  0.145882D-02  0.921364D-03  0.113508D-03  0.114526D-02 -0.773292D-02
     27 -0.511831D-03  0.261953D-02  0.232061D-02  0.790876D-03 -0.323688D-01
     28  0.133485D-02 -0.107881D-02 -0.787814D-03  0.477979D-02 -0.604093D-02
     29 -0.412917D-03 -0.181002D-03  0.776657D-03 -0.470026D-02  0.266466D-02
     30  0.394619D-03  0.420219D-03  0.338537D-02 -0.157173D-01  0.131727D-01
                6             7             8             9            10 
      6  0.543674D+00
      7  0.124258D-01  0.224790D+00
      8 -0.231128D-01 -0.936579D-01  0.561720D+00
      9 -0.616779D-01  0.638118D-02 -0.128465D-03  0.607541D+00
     10  0.294361D-01 -0.694539D-02 -0.872745D-03 -0.617499D-03  0.518535D+00
     11 -0.247447D-01  0.994107D-02 -0.705732D-02 -0.294282D-01 -0.947614D-05
     12 -0.180574D+00  0.344960D-02 -0.207659D-02 -0.292274D-02  0.379597D-01
     13 -0.811478D-01 -0.661014D-02 -0.453465D-03  0.326576D-03  0.830773D-02
     14  0.852491D-01  0.117457D-01 -0.111497D-01  0.241269D-01 -0.245363D-02
     15 -0.218072D+00  0.330576D-02 -0.424143D-02  0.454833D-02 -0.108476D-01
     16  0.242232D-01 -0.404611D-01  0.124335D-01  0.151769D-01  0.119627D-02
     17 -0.118635D-01  0.705877D-02 -0.797702D-01 -0.841169D-01 -0.326052D-03
     18 -0.116021D-03  0.139733D-01 -0.860827D-01 -0.274347D+00 -0.113438D-04
     19 -0.223481D-01 -0.443552D-01  0.296259D-01 -0.308818D-01  0.568745D-03
     20  0.102061D-01  0.242817D-01 -0.135292D+00  0.118662D+00  0.515747D-03
     21  0.350584D-02 -0.309313D-01  0.120433D+00 -0.212302D+00  0.532563D-03
     22 -0.156491D-02 -0.939324D-03 -0.300643D-03 -0.167405D-03 -0.268900D+00
     23  0.921262D-03 -0.126227D-04  0.758657D-03  0.108879D-02 -0.665674D-01
     24  0.223910D-02  0.515668D-04  0.620465D-03  0.138043D-02  0.504838D-02
     25  0.256195D-02 -0.114555D-03  0.159248D-02  0.333727D-02 -0.437737D-01
     26 -0.216323D-02 -0.160968D-02  0.107212D-02 -0.149548D-02 -0.108411D-01
     27 -0.550138D-02 -0.642165D-03 -0.357167D-03 -0.501437D-02 -0.208925D-02
     28  0.108843D-01  0.118279D-02  0.158739D-03  0.231689D-03 -0.105287D+00
     29 -0.652700D-02 -0.700650D-03  0.130470D-02 -0.104924D-02  0.573806D-01
     30 -0.254317D-01 -0.168391D-02  0.688349D-03  0.614850D-03 -0.902074D-01
               11            12            13            14            15 
     11  0.525449D+00
     12 -0.225698D-01  0.474063D+00
     13 -0.455316D-02  0.102144D-01  0.102275D+00
     14  0.397218D-02 -0.729845D-02 -0.551404D-01  0.881308D-01
     15  0.115756D-01 -0.192430D-01  0.887121D-01 -0.885239D-01  0.227613D+00
     16  0.443939D-02 -0.716901D-03  0.118533D-03 -0.128339D-02 -0.894956D-03
     17 -0.965268D-03  0.810878D-03  0.655191D-03  0.674912D-03 -0.127612D-03
     18  0.828628D-05 -0.180923D-04 -0.336836D-03 -0.451459D-03  0.469379D-03
     19 -0.173296D-02 -0.624519D-03  0.943316D-03  0.361084D-02  0.134043D-02
     20  0.901029D-03  0.117924D-02 -0.675915D-03 -0.453481D-03 -0.413533D-03
     21 -0.206306D-03  0.835712D-03  0.246810D-03 -0.818085D-03  0.129951D-03
     22 -0.662735D-01  0.532337D-02  0.470727D-03 -0.227234D-04  0.581674D-03
     23 -0.622834D-01  0.178969D-02 -0.241199D-03  0.170250D-03  0.197859D-03
     24  0.183590D-02 -0.457446D-01 -0.141315D-02  0.339688D-03  0.287565D-03
     25 -0.114675D-01 -0.276174D-02  0.614257D-04 -0.560455D-03 -0.284101D-03
     26 -0.286314D+00 -0.320928D-01  0.104686D-03  0.504973D-03 -0.587251D-03
     27 -0.319252D-01 -0.492982D-01 -0.444440D-03  0.614046D-03  0.768029D-03
     28  0.571295D-01 -0.931972D-01 -0.433977D-03  0.685346D-03  0.257289D-02
     29 -0.970706D-01  0.854405D-01  0.891558D-03  0.482141D-03 -0.170371D-02
     30  0.838958D-01 -0.181700D+00  0.309768D-02 -0.180771D-02 -0.364460D-02
               16            17            18            19            20 
     16  0.365484D-01
     17 -0.420384D-02  0.977413D-01
     18 -0.119323D-01  0.993595D-01  0.283021D+00
     19  0.207921D-02 -0.431122D-04  0.250806D-02  0.413502D-01
     20 -0.350740D-03  0.964233D-02 -0.870852D-02 -0.228719D-01  0.160540D+00
     21 -0.463089D-02  0.158089D-01 -0.162104D-01  0.309554D-01 -0.130347D+00
     22  0.282034D-04  0.215190D-03  0.326640D-04 -0.854701D-04  0.154383D-03
     23 -0.126719D-03  0.982417D-04 -0.742222D-05  0.778187D-04 -0.495749D-04
     24 -0.146846D-03 -0.160643D-03 -0.111323D-03 -0.451797D-04 -0.403321D-03
     25 -0.875905D-03  0.107066D-03  0.121489D-03  0.294379D-03 -0.275322D-03
     26  0.595518D-03  0.160001D-03  0.404350D-04 -0.360566D-03  0.238950D-03
     27  0.134076D-02 -0.550849D-03  0.194425D-03  0.176368D-04 -0.172889D-03
     28  0.318653D-05 -0.122397D-03  0.188917D-04  0.146901D-03 -0.753353D-04
     29  0.121448D-04 -0.529868D-04  0.698193D-04 -0.179152D-03 -0.153844D-03
     30 -0.144149D-03 -0.230261D-03  0.350006D-03  0.735446D-03 -0.741825D-03
               21            22            23            24            25 
     21  0.215241D+00
     22  0.416330D-04  0.295644D+00
     23  0.000000D+00  0.730348D-01  0.647966D-01
     24 -0.465426D-04 -0.816087D-02 -0.632553D-03  0.465156D-01
     25 -0.399464D-04 -0.927475D-03 -0.301959D-01 -0.418777D-02  0.446300D-01
     26  0.593616D-04 -0.838772D-03 -0.825312D-02 -0.614974D-03  0.113939D-01
     27  0.764291D-04 -0.411787D-03  0.977521D-03 -0.628818D-03 -0.176986D-03
     28 -0.225214D-03 -0.132537D-01  0.140170D-01 -0.216183D-01  0.464427D-03
     29  0.528187D-04 -0.412426D-02  0.378381D-02 -0.776357D-02  0.154579D-01
     30  0.208253D-03  0.671568D-03 -0.167776D-02  0.139557D-02  0.285984D-02
               26            27            28            29            30 
     26  0.312525D+00
     27  0.383363D-01  0.534753D-01
     28 -0.104809D-02  0.212719D-02  0.111062D+00
     29 -0.131219D-01  0.228275D-01 -0.636249D-01  0.102345D+00
     30 -0.159587D-02  0.360793D-02  0.999935D-01 -0.921237D-01  0.201214D+00
 Leave Link  716 at Sat Mar 16 14:08:50 2019, MaxMem=   104857600 cpu:               0.5 elap:               0.1
 (Enter /util/academic/gaussian/g16.A03/x86-64-SSE4_2/g16/l103.exe)

 GradGradGradGradGradGradGradGradGradGradGradGradGradGradGradGradGradGrad
 Berny optimization.
 Search for a local minimum.
 Step number   1 out of a maximum of    2
 All quantities printed in internal units (Hartrees-Bohrs-Radians)
 Second derivative matrix not updated -- analytic derivatives used.
 ITU=  0
     Eigenvalues ---    0.00195   0.01065   0.01605   0.03864   0.04477
     Eigenvalues ---    0.05279   0.06352   0.08784   0.09668   0.10464
     Eigenvalues ---    0.11922   0.12454   0.14940   0.18155   0.22824
     Eigenvalues ---    0.24952   0.40680   0.44658   0.56514   0.69336
     Eigenvalues ---    0.70256   0.77634   0.85191   0.97146
 Angle between quadratic step and forces=  82.46 degrees.
 Linear search not attempted -- first point.
 B after Tr=     0.000001   -0.000002    0.000003
         Rot=    1.000000    0.000000   -0.000001   -0.000001 Ang=   0.00 deg.
 Variable       Old X    -DE/DX   Delta X   Delta X   Delta X     New X
                                 (Linear)    (Quad)   (Total)
    X1       -1.66128   0.00000   0.00000   0.00001   0.00001  -1.66127
    Y1       -0.34071  -0.00000   0.00000  -0.00001  -0.00001  -0.34072
    Z1        0.38788  -0.00000   0.00000   0.00001   0.00002   0.38790
    X2        1.08508  -0.00000   0.00000  -0.00000   0.00000   1.08508
    Y2       -0.29791  -0.00000   0.00000   0.00000   0.00000  -0.29791
    Z2        0.23166   0.00000   0.00000  -0.00000   0.00000   0.23166
    X3       -0.35058  -0.00000   0.00000  -0.00000  -0.00000  -0.35058
    Y3        2.05669   0.00000   0.00000   0.00000  -0.00000   2.05669
    Z3        0.64273   0.00000   0.00000  -0.00000   0.00000   0.64273
    X4        2.24012  -0.00000   0.00000  -0.00000  -0.00000   2.24012
    Y4       -0.98343  -0.00000   0.00000   0.00000   0.00000  -0.98342
    Z4       -2.28924  -0.00000   0.00000  -0.00000  -0.00000  -2.28925
    X5        2.00047  -0.00000   0.00000   0.00001   0.00001   2.00049
    Y5       -1.14114   0.00000   0.00000   0.00001   0.00001  -1.14113
    Z5        1.88617  -0.00000   0.00000  -0.00000  -0.00000   1.88617
    X6       -0.43096  -0.00000   0.00000  -0.00001  -0.00000  -0.43096
    Y6        2.90654  -0.00000   0.00000   0.00001   0.00001   2.90655
    Z6        2.52382  -0.00000   0.00000  -0.00001  -0.00001   2.52382
    X7       -0.61481   0.00000   0.00000  -0.00001  -0.00002  -0.61483
    Y7        3.36831  -0.00000   0.00000  -0.00001  -0.00001   3.36830
    Z7       -0.93193  -0.00000   0.00000  -0.00001  -0.00001  -0.93193
    X8        4.23608   0.00000   0.00000   0.00001   0.00001   4.23609
    Y8       -0.40838  -0.00000   0.00000  -0.00003  -0.00003  -0.40840
    Z8       -2.35410   0.00000   0.00000   0.00001   0.00001  -2.35408
    X9        2.15896   0.00000   0.00000  -0.00003  -0.00003   2.15893
    Y9       -3.03515   0.00000   0.00000   0.00001   0.00001  -3.03514
    Z9       -2.59699   0.00000   0.00000  -0.00001  -0.00001  -2.59701
   X10        1.23172   0.00000   0.00000   0.00003   0.00002   1.23174
   Y10       -0.05152  -0.00000   0.00000   0.00003   0.00003  -0.05150
   Z10       -3.84243   0.00000   0.00000  -0.00000  -0.00000  -3.84244
         Item               Value     Threshold  Converged?
 Maximum Force            0.000002     0.000450     YES
 RMS     Force            0.000001     0.000300     YES
 Maximum Displacement     0.000028     0.001800     YES
 RMS     Displacement     0.000012     0.001200     YES
 Predicted change in Energy=-1.752129D-12
 Optimization completed.
    -- Stationary point found.
 GradGradGradGradGradGradGradGradGradGradGradGradGradGradGradGradGradGrad

 Leave Link  103 at Sat Mar 16 14:08:50 2019, MaxMem=   104857600 cpu:               0.4 elap:               0.1
 (Enter /util/academic/gaussian/g16.A03/x86-64-SSE4_2/g16/l9999.exe)

 ----------------------------------------------------------------------

 Electric dipole moment (input orientation):
 (Debye = 10**-18 statcoulomb cm , SI units = C m)
                  (au)            (Debye)         (10**-30 SI)
   Tot        0.765513D+00      0.194574D+01      0.649029D+01
   x          0.690404D+00      0.175483D+01      0.585349D+01
   y          0.325710D+00      0.827871D+00      0.276148D+01
   z         -0.571488D-01     -0.145258D+00     -0.484527D+00

 Dipole polarizability, Alpha (input orientation).
 (esu units = cm**3 , SI units = C**2 m**2 J**-1)
 Alpha(0;0):
               (au)            (10**-24 esu)      (10**-40 SI)
   iso        0.407367D+02      0.603655D+01      0.671657D+01
   aniso      0.113626D+02      0.168376D+01      0.187344D+01
   xx         0.396781D+02      0.587969D+01      0.654204D+01
   yx        -0.484555D+01     -0.718036D+00     -0.798923D+00
   yy         0.425026D+02      0.629823D+01      0.700773D+01
   zx        -0.289329D+01     -0.428741D+00     -0.477039D+00
   zy         0.296919D+01      0.439988D+00      0.489553D+00
   zz         0.400292D+02      0.593172D+01      0.659993D+01

 ----------------------------------------------------------------------

 Dipole orientation:
     8         -0.40952138          0.24983195         -1.67220268
     6          0.04588756         -0.78816431          0.83456930
     6         -1.47496811          1.52623870          0.51091595
     6          2.74346725         -0.74596392          1.77280212
     1         -0.98586643         -2.54999376          1.17785207
     1         -3.53364998          1.44279331          0.65958480
     1         -0.63070098          3.36081754          0.94822541
     1          2.80496464         -1.08352689          3.82243895
     1          3.86203210         -2.23169405          0.84961485
     1          3.63581265          1.08265083          1.37579736

 Electric dipole moment (dipole orientation):
 (Debye = 10**-18 statcoulomb cm , SI units = C m)
                  (au)            (Debye)         (10**-30 SI)
   Tot        0.765513D+00      0.194574D+01      0.649029D+01
   x          0.000000D+00      0.000000D+00      0.000000D+00
   y          0.000000D+00      0.000000D+00      0.000000D+00
   z          0.765513D+00      0.194574D+01      0.649029D+01

 Dipole polarizability, Alpha (dipole orientation).
 (esu units = cm**3 , SI units = C**2 m**2 J**-1)
 Alpha(0;0):
               (au)            (10**-24 esu)      (10**-40 SI)
   iso        0.407367D+02      0.603655D+01      0.671657D+01
   aniso      0.113626D+02      0.168376D+01      0.187344D+01
   xx         0.437880D+02      0.648871D+01      0.721967D+01
   yx        -0.467546D+01     -0.692831D+00     -0.770879D+00
   yy         0.417483D+02      0.618647D+01      0.688337D+01
   zx         0.242018D+01      0.358634D+00      0.399034D+00
   zy        -0.137756D+01     -0.204134D+00     -0.227130D+00
   zz         0.366736D+02      0.543447D+01      0.604666D+01

 ----------------------------------------------------------------------
 1\1\GINC-CPN-F15-40\Freq\RBLYP\def2TZVP\C3H6O1\HERBERTL\16-Mar-2019\0\
 \#P blyp/def2TZVP SCF=Tight Int=UltraFine NoSymm FREQ=(SaveNormalModes
 )\\freq\\0,1\O,-0.879112,-0.180294,0.205257\C,0.5742,-0.157646,0.12258
 8\C,-0.185517,1.088353,0.340116\C,1.18542,-0.520407,-1.211416\H,1.0586
 04,-0.603865,0.99812\H,-0.228052,1.538075,1.33555\H,-0.325346,1.782434
 ,-0.493154\H,2.241636,-0.216103,-1.245734\H,1.142471,-1.606131,-1.3742
 7\H,0.651796,-0.027264,-2.033329\\Version=ES64L-G16RevA.03\HF=-193.109
 3175\RMSD=7.600e-09\RMSF=5.356e-07\ZeroPoint=0.0826185\Thermal=0.08713
 94\Dipole=0.6904042,0.3257096,-0.0571488\DipoleDeriv=-0.7629475,-0.161
 4551,0.0705196,-0.1944711,-0.4724226,-0.0313891,0.0471149,-0.0319165,-
 0.3686486,0.4846021,-0.1205404,-0.0958212,-0.0160128,0.2157751,0.01555
 ,-0.1023678,0.0325952,0.4146305,0.165967,0.1580576,0.0425603,0.0436015
 ,0.3335896,0.0002119,0.0319915,-0.0117897,0.3050441,0.0690938,0.030751
 9,0.0442699,0.0619843,0.0951593,-0.0259462,0.0691709,-0.0067035,-0.053
 5667,-0.0423728,0.0624232,-0.0265534,0.0869948,0.0131309,0.049634,-0.0
 609716,0.0437965,-0.1244468,0.06822,0.0159187,0.0131128,0.0073573,-0.0
 427343,-0.0601837,0.0038261,-0.106378,-0.1144586,0.0756814,0.0102005,-
 0.0082237,0.0036399,-0.0732863,0.04105,-0.0184318,0.1042824,-0.0713094
 ,-0.1331824,-0.0328274,0.0340875,-0.0635686,0.0521018,-0.0060222,0.007
 9757,-0.0294654,0.0354756,0.0613514,-0.0170942,0.0083663,0.0182183,-0.
 1382526,-0.0562954,0.0464792,-0.0300458,0.026634,0.013587,0.0545653,-0
 .0823182,0.0522563,0.0169392,0.0733907,-0.024787,0.0356248,-0.049354\P
 olar=39.6781436,-4.8455469,42.5025608,-2.8932881,2.9691887,40.0292467\
 Quadrupole=-1.3391931,0.8496869,0.4895061,-1.1113246,0.1524163,0.25019
 25\PG=C01 [X(C3H6O1)]\NImag=0\\0.28234085,0.08786977,0.20289546,0.0024
 5489,0.01242773,0.08837449,-0.17711609,-0.02968753,-0.00516999,0.41253
 383,0.01459075,-0.02600407,0.00314425,-0.18365424,0.40591375,0.0046864
 6,0.00513136,-0.05804612,0.02084299,-0.03309646,0.54367418,-0.06312589
 ,-0.05387566,-0.00632982,-0.06342095,0.09682924,0.01242579,0.22478978,
 -0.09967690,-0.14526672,-0.00574276,0.15115096,-0.18631969,-0.02311283
 ,-0.09365788,0.56171968,-0.01426747,-0.00962063,-0.05782125,0.02048051
 ,-0.01803911,-0.06167786,0.00638118,-0.00012847,0.60754147,-0.02630287
 ,0.01231899,0.03079629,-0.07739997,0.01085508,0.02943610,-0.00694539,-
 0.00087274,-0.00061750,0.51853544,-0.00411544,0.00529485,0.01155865,0.
 01664216,-0.08192575,-0.02474474,0.00994107,-0.00705732,-0.02942818,-0
 .00000948,0.52544854,0.00605373,-0.00071198,0.00460153,0.03429960,-0.0
 2447061,-0.18057368,0.00344960,-0.00207659,-0.00292274,0.03795968,-0.0
 2256982,0.47406261,-0.02609600,0.01727344,-0.01925530,-0.07903626,0.04
 213923,-0.08114782,-0.00661014,-0.00045346,0.00032658,0.00830773,-0.00
 455316,0.01021437,0.10227464,-0.00422683,0.00557850,-0.01143011,0.0476
 4553,-0.08791063,0.08524906,0.01174567,-0.01114968,0.02412690,-0.00245
 363,0.00397218,-0.00729845,-0.05514036,0.08813084,-0.00286777,-0.00177
 099,0.00714325,-0.08161847,0.08559493,-0.21807237,0.00330576,-0.004241
 43,0.00454833,-0.01084755,0.01157563,-0.01924301,0.08871210,-0.0885238
 9,0.22761347,0.00229998,-0.01366551,-0.02227492,-0.00093682,0.00214964
 ,0.02422323,-0.04046109,0.01243352,0.01517693,0.00119627,0.00443939,-0
 .00071690,0.00011853,-0.00128339,-0.00089496,0.03654844,0.00047935,-0.
 01906501,-0.01892950,-0.00382016,-0.00846325,-0.01186353,0.00705877,-0
 .07977023,-0.08411686,-0.00032605,-0.00096527,0.00081088,0.00065519,0.
 00067491,-0.00012761,-0.00420384,0.09774126,-0.00222293,-0.00601873,0.
 00676826,-0.00215100,0.00179080,-0.00011602,0.01397327,-0.08608268,-0.
 27434728,-0.00001134,0.00000829,-0.00001809,-0.00033684,-0.00045146,0.
 00046938,-0.01193226,0.09935948,0.28302100,0.00406714,-0.01969863,0.01
 834261,-0.00500922,0.01157174,-0.02234814,-0.04435524,0.02962593,-0.03
 088178,0.00056874,-0.00173296,-0.00062452,0.00094332,0.00361084,0.0013
 4043,0.00207921,-0.00004311,0.00250806,0.04135025,0.00202046,-0.023911
 82,0.01073965,-0.00272311,-0.01146225,0.01020611,0.02428175,-0.1352915
 2,0.11866227,0.00051575,0.00090103,0.00117924,-0.00067591,-0.00045348,
 -0.00041353,-0.00035074,0.00964233,-0.00870852,-0.02287191,0.16054018,
 0.00237482,-0.00050643,0.00856091,0.00167605,-0.00447690,0.00350584,-0
 .03093127,0.12043310,-0.21230157,0.00053256,-0.00020631,0.00083571,0.0
 0024681,-0.00081809,0.00012995,-0.00463089,0.01580889,-0.01621036,0.03
 095545,-0.13034717,0.21524137,0.00077328,0.00138797,0.00365406,-0.0128
 1090,-0.00323237,-0.00156491,-0.00093932,-0.00030064,-0.00016740,-0.26
 889971,-0.06627355,0.00532337,0.00047073,-0.00002272,0.00058167,0.0000
 2820,0.00021519,0.00003266,-0.00008547,0.00015438,0.00004163,0.2956443
 3,0.00201293,-0.00026155,-0.00265809,0.00800141,0.00124013,0.00092126,
 -0.00001262,0.00075866,0.00108879,-0.06656741,-0.06228343,0.00178969,-
 0.00024120,0.00017025,0.00019786,-0.00012672,0.00009824,-0.00000742,0.
 00007782,-0.00004957,0.00000071,0.07303477,0.06479658,0.00390549,-0.00
 197009,-0.00528706,0.02656670,0.00874910,0.00223910,0.00005157,0.00062
 046,0.00138043,0.00504838,0.00183590,-0.04574456,-0.00141315,0.0003396
 9,0.00028756,-0.00014685,-0.00016064,-0.00011132,-0.00004518,-0.000403
 32,-0.00004654,-0.00816087,-0.00063255,0.04651564,0.00182474,-0.000844
 02,-0.00143001,-0.00158341,0.01479186,0.00256195,-0.00011455,0.0015924
 8,0.00333727,-0.04377366,-0.01146750,-0.00276174,0.00006143,-0.0005604
 5,-0.00028410,-0.00087591,0.00010707,0.00012149,0.00029438,-0.00027532
 ,-0.00003995,-0.00092748,-0.03019593,-0.00418777,0.04463003,0.00145882
 ,0.00092136,0.00011351,0.00114526,-0.00773292,-0.00216323,-0.00160968,
 0.00107212,-0.00149548,-0.01084111,-0.28631424,-0.03209283,0.00010469,
 0.00050497,-0.00058725,0.00059552,0.00016000,0.00004044,-0.00036057,0.
 00023895,0.00005936,-0.00083877,-0.00825312,-0.00061497,0.01139394,0.3
 1252474,-0.00051183,0.00261953,0.00232061,0.00079088,-0.03236876,-0.00
 550138,-0.00064217,-0.00035717,-0.00501437,-0.00208925,-0.03192524,-0.
 04929817,-0.00044444,0.00061405,0.00076803,0.00134076,-0.00055085,0.00
 019443,0.00001764,-0.00017289,0.00007643,-0.00041179,0.00097752,-0.000
 62882,-0.00017699,0.03833634,0.05347532,0.00133485,-0.00107881,-0.0007
 8781,0.00477979,-0.00604093,0.01088434,0.00118279,0.00015874,0.0002316
 9,-0.10528658,0.05712946,-0.09319720,-0.00043398,0.00068535,0.00257289
 ,0.00000319,-0.00012240,0.00001889,0.00014690,-0.00007534,-0.00022521,
 -0.01325366,0.01401696,-0.02161832,0.00046443,-0.00104809,0.00212719,0
 .11106227,-0.00041292,-0.00018100,0.00077666,-0.00470026,0.00266466,-0
 .00652700,-0.00070065,0.00130470,-0.00104924,0.05738060,-0.09707059,0.
 08544048,0.00089156,0.00048214,-0.00170371,0.00001214,-0.00005299,0.00
 006982,-0.00017915,-0.00015384,0.00005282,-0.00412426,0.00378381,-0.00
 776357,0.01545788,-0.01312187,0.02282747,-0.06362495,0.10234498,0.0003
 9462,0.00042022,0.00338537,-0.01571727,0.01317274,-0.02543170,-0.00168
 391,0.00068835,0.00061485,-0.09020737,0.08389583,-0.18169960,0.0030976
 8,-0.00180771,-0.00364460,-0.00014415,-0.00023026,0.00035001,0.0007354
 5,-0.00074183,0.00020825,0.00067157,-0.00167776,0.00139557,0.00285984,
 -0.00159587,0.00360793,0.09999355,-0.09212371,0.20121392\\-0.00000037,
 0.00000009,0.00000050,0.00000093,0.00000055,-0.00000047,0.00000012,-0.
 00000162,-0.00000026,0.00000015,0.00000060,0.00000006,0.00000066,-0.00
 000027,0.00000005,0.00000026,0.,0.00000099,-0.00000032,0.00000009,0.00
 000049,-0.00000048,0.00000035,-0.00000049,-0.00000015,-0.00000018,-0.0
 0000053,-0.00000079,0.00000040,-0.00000033\\\@


 THE FIRST MORNING OF CREATION WROTE WHAT THE LAST DAWN OF
 RECKONING SHALL READ. -- OMAR KHAYYAM
 Job cpu time:       0 days  0 hours 15 minutes  9.8 seconds.
 Elapsed time:       0 days  0 hours  1 minutes 19.4 seconds.
 File lengths (MBytes):  RWF=     27 Int=      0 D2E=      0 Chk=      3 Scr=      1
 Normal termination of Gaussian 16 at Sat Mar 16 14:08:50 2019.
