nitromal_prop_00.inp -- generated by exatomic.v0.4.1                    
SP        RPBE1PBE                                                    CC-pVDZ             
Number of atoms                            I               15
Info1-9                                    I   N=           9
          24          24           0           0           0         110
           1          18        -302
Full Title                                 C   N=           5
nitromal_prop_00.inp -- generated by exatomic.v0.4.1        
Route                                      C   N=           5
#P PBE1PBE/cc-pVDZ NMR SCF=Tight Int=UltraFine NoSymm       
Charge                                     I                0
Multiplicity                               I                1
Number of electrons                        I               76
Number of alpha electrons                  I               38
Number of beta electrons                   I               38
Number of basis functions                  I              165
Number of independent functions            I              165
Number of point charges in /Mol/           I                0
Number of translation vectors              I                0
Atomic numbers                             I   N=          15
           1           1           1           1           1           6
           8           7           6           6           8           7
           8           8           7
Nuclear charges                            R   N=          15
  1.00000000E+00  1.00000000E+00  1.00000000E+00  1.00000000E+00  1.00000000E+00
  6.00000000E+00  8.00000000E+00  7.00000000E+00  6.00000000E+00  6.00000000E+00
  8.00000000E+00  7.00000000E+00  8.00000000E+00  8.00000000E+00  7.00000000E+00
Current cartesian coordinates              R   N=          45
  2.13964240E-01 -4.24461400E+00  0.00000000E+00 -5.88543674E+00 -2.17894682E+00
  0.00000000E+00 -4.92121532E+00  1.04184570E+00  0.00000000E+00  6.29540716E+00
 -5.73276766E-01  0.00000000E+00  4.50645824E+00  2.26005575E+00  0.00000000E+00
  2.52871434E+00 -1.05334657E+00  0.00000000E+00  2.71983746E+00 -3.43055211E+00
  0.00000000E+00  4.63188314E+00  3.54323648E-01  0.00000000E+00  0.00000000E+00
  1.02154815E-01  0.00000000E+00 -2.13669821E+00 -1.57383762E+00  0.00000000E+00
 -1.77190359E+00 -4.00621938E+00  0.00000000E+00 -3.58237271E-01  2.74816445E+00
  0.00000000E+00  1.50542764E+00  4.17613411E+00  0.00000000E+00 -2.54269453E+00
  3.63009963E+00  0.00000000E+00 -4.53744974E+00 -8.32571757E-01  0.00000000E+00
Number of symbols in /Mol/                 I                0
Force Field                                I                0
Atom Types                                 C   N=          15
                                                            
                                                            
                                                            
Int Atom Types                             I   N=          15
           0           0           0           0           0           0
           0           0           0           0           0           0
           0           0           0
MM charges                                 R   N=          15
  0.00000000E+00  0.00000000E+00  0.00000000E+00  0.00000000E+00  0.00000000E+00
  0.00000000E+00  0.00000000E+00  0.00000000E+00  0.00000000E+00  0.00000000E+00
  0.00000000E+00  0.00000000E+00  0.00000000E+00  0.00000000E+00  0.00000000E+00
Integer atomic weights                     I   N=          15
           1           1           1           1           1          12
          16          14          12          12          16          14
          16          16          14
Real atomic weights                        R   N=          15
  1.00782504E+00  1.00782504E+00  1.00782504E+00  1.00782504E+00  1.00782504E+00
  1.20000000E+01  1.59949146E+01  1.40030740E+01  1.20000000E+01  1.20000000E+01
  1.59949146E+01  1.40030740E+01  1.59949146E+01  1.59949146E+01  1.40030740E+01
Atom fragment info                         I   N=          15
           0           0           0           0           0           0
           0           0           0           0           0           0
           0           0           0
Atom residue num                           I   N=          15
           0           0           0           0           0           0
           0           0           0           0           0           0
           0           0           0
Nuclear spins                              I   N=          15
           1           1           1           1           1           0
           0           2           0           0           0           2
           0           0           2
Nuclear ZEff                               R   N=          15
 -1.00000000E+00 -1.00000000E+00 -1.00000000E+00 -1.00000000E+00 -1.00000000E+00
 -3.60000000E+00 -5.60000000E+00 -4.55000000E+00 -3.60000000E+00 -3.60000000E+00
 -5.60000000E+00 -4.55000000E+00 -5.60000000E+00 -5.60000000E+00 -4.55000000E+00
Nuclear ZNuc                               R   N=          15
  1.00000000E+00  1.00000000E+00  1.00000000E+00  1.00000000E+00  1.00000000E+00
  6.00000000E+00  8.00000000E+00  7.00000000E+00  6.00000000E+00  6.00000000E+00
  8.00000000E+00  7.00000000E+00  8.00000000E+00  8.00000000E+00  7.00000000E+00
Nuclear QMom                               R   N=          15
  0.00000000E+00  0.00000000E+00  0.00000000E+00  0.00000000E+00  0.00000000E+00
  0.00000000E+00  0.00000000E+00  2.04400000E+00  0.00000000E+00  0.00000000E+00
  0.00000000E+00  2.04400000E+00  0.00000000E+00  0.00000000E+00  2.04400000E+00
Nuclear GFac                               R   N=          15
  2.79284600E+00  2.79284600E+00  2.79284600E+00  2.79284600E+00  2.79284600E+00
  0.00000000E+00  0.00000000E+00  4.03761000E-01  0.00000000E+00  0.00000000E+00
  0.00000000E+00  4.03761000E-01  0.00000000E+00  0.00000000E+00  4.03761000E-01
MicOpt                                     I   N=          15
          -1          -1          -1          -1          -1          -1
          -1          -1          -1          -1          -1          -1
          -1          -1          -1
Number of residues                         I                0
Number of secondary structures             I                0
Number of contracted shells                I               75
Number of primitive shells                 I              225
Pure/Cartesian d shells                    I                0
Pure/Cartesian f shells                    I                0
Highest angular momentum                   I                2
Largest degree of contraction              I                7
Shell types                                I   N=          75
           0           0           1           0           0           1
           0           0           1           0           0           1
           0           0           1           0           0           0
           1           1          -2           0           0           0
           1           1          -2           0           0           0
           1           1          -2           0           0           0
           1           1          -2           0           0           0
           1           1          -2           0           0           0
           1           1          -2           0           0           0
           1           1          -2           0           0           0
           1           1          -2           0           0           0
           1           1          -2           0           0           0
           1           1          -2
Number of primitives per shell             I   N=          75
           3           1           1           3           1           1
           3           1           1           3           1           1
           3           1           1           7           7           1
           3           1           1           7           7           1
           3           1           1           7           7           1
           3           1           1           7           7           1
           3           1           1           7           7           1
           3           1           1           7           7           1
           3           1           1           7           7           1
           3           1           1           7           7           1
           3           1           1           7           7           1
           3           1           1           7           7           1
           3           1           1
Shell to atom map                          I   N=          75
           1           1           1           2           2           2
           3           3           3           4           4           4
           5           5           5           6           6           6
           6           6           6           7           7           7
           7           7           7           8           8           8
           8           8           8           9           9           9
           9           9           9          10          10          10
          10          10          10          11          11          11
          11          11          11          12          12          12
          12          12          12          13          13          13
          13          13          13          14          14          14
          14          14          14          15          15          15
          15          15          15
Primitive exponents                        R   N=         225
  1.30100000E+01  1.96200000E+00  4.44600000E-01  1.22000000E-01  7.27000000E-01
  1.30100000E+01  1.96200000E+00  4.44600000E-01  1.22000000E-01  7.27000000E-01
  1.30100000E+01  1.96200000E+00  4.44600000E-01  1.22000000E-01  7.27000000E-01
  1.30100000E+01  1.96200000E+00  4.44600000E-01  1.22000000E-01  7.27000000E-01
  1.30100000E+01  1.96200000E+00  4.44600000E-01  1.22000000E-01  7.27000000E-01
  6.66500000E+03  1.00000000E+03  2.28000000E+02  6.47100000E+01  2.10600000E+01
  7.49500000E+00  2.79700000E+00  6.66500000E+03  2.28000000E+02  6.47100000E+01
  2.10600000E+01  7.49500000E+00  2.79700000E+00  5.21500000E-01  1.59600000E-01
  9.43900000E+00  2.00200000E+00  5.45600000E-01  1.51700000E-01  5.50000000E-01
  1.17200000E+04  1.75900000E+03  4.00800000E+02  1.13700000E+02  3.70300000E+01
  1.32700000E+01  5.02500000E+00  1.17200000E+04  4.00800000E+02  1.13700000E+02
  3.70300000E+01  1.32700000E+01  5.02500000E+00  1.01300000E+00  3.02300000E-01
  1.77000000E+01  3.85400000E+00  1.04600000E+00  2.75300000E-01  1.18500000E+00
  9.04600000E+03  1.35700000E+03  3.09300000E+02  8.77300000E+01  2.85600000E+01
  1.02100000E+01  3.83800000E+00  9.04600000E+03  3.09300000E+02  8.77300000E+01
  2.85600000E+01  1.02100000E+01  3.83800000E+00  7.46600000E-01  2.24800000E-01
  1.35500000E+01  2.91700000E+00  7.97300000E-01  2.18500000E-01  8.17000000E-01
  6.66500000E+03  1.00000000E+03  2.28000000E+02  6.47100000E+01  2.10600000E+01
  7.49500000E+00  2.79700000E+00  6.66500000E+03  2.28000000E+02  6.47100000E+01
  2.10600000E+01  7.49500000E+00  2.79700000E+00  5.21500000E-01  1.59600000E-01
  9.43900000E+00  2.00200000E+00  5.45600000E-01  1.51700000E-01  5.50000000E-01
  6.66500000E+03  1.00000000E+03  2.28000000E+02  6.47100000E+01  2.10600000E+01
  7.49500000E+00  2.79700000E+00  6.66500000E+03  2.28000000E+02  6.47100000E+01
  2.10600000E+01  7.49500000E+00  2.79700000E+00  5.21500000E-01  1.59600000E-01
  9.43900000E+00  2.00200000E+00  5.45600000E-01  1.51700000E-01  5.50000000E-01
  1.17200000E+04  1.75900000E+03  4.00800000E+02  1.13700000E+02  3.70300000E+01
  1.32700000E+01  5.02500000E+00  1.17200000E+04  4.00800000E+02  1.13700000E+02
  3.70300000E+01  1.32700000E+01  5.02500000E+00  1.01300000E+00  3.02300000E-01
  1.77000000E+01  3.85400000E+00  1.04600000E+00  2.75300000E-01  1.18500000E+00
  9.04600000E+03  1.35700000E+03  3.09300000E+02  8.77300000E+01  2.85600000E+01
  1.02100000E+01  3.83800000E+00  9.04600000E+03  3.09300000E+02  8.77300000E+01
  2.85600000E+01  1.02100000E+01  3.83800000E+00  7.46600000E-01  2.24800000E-01
  1.35500000E+01  2.91700000E+00  7.97300000E-01  2.18500000E-01  8.17000000E-01
  1.17200000E+04  1.75900000E+03  4.00800000E+02  1.13700000E+02  3.70300000E+01
  1.32700000E+01  5.02500000E+00  1.17200000E+04  4.00800000E+02  1.13700000E+02
  3.70300000E+01  1.32700000E+01  5.02500000E+00  1.01300000E+00  3.02300000E-01
  1.77000000E+01  3.85400000E+00  1.04600000E+00  2.75300000E-01  1.18500000E+00
  1.17200000E+04  1.75900000E+03  4.00800000E+02  1.13700000E+02  3.70300000E+01
  1.32700000E+01  5.02500000E+00  1.17200000E+04  4.00800000E+02  1.13700000E+02
  3.70300000E+01  1.32700000E+01  5.02500000E+00  1.01300000E+00  3.02300000E-01
  1.77000000E+01  3.85400000E+00  1.04600000E+00  2.75300000E-01  1.18500000E+00
  9.04600000E+03  1.35700000E+03  3.09300000E+02  8.77300000E+01  2.85600000E+01
  1.02100000E+01  3.83800000E+00  9.04600000E+03  3.09300000E+02  8.77300000E+01
  2.85600000E+01  1.02100000E+01  3.83800000E+00  7.46600000E-01  2.24800000E-01
  1.35500000E+01  2.91700000E+00  7.97300000E-01  2.18500000E-01  8.17000000E-01
Contraction coefficients                   R   N=         225
  3.34987264E-02  2.34800801E-01  8.13682958E-01  1.00000000E+00  1.00000000E+00
  3.34987264E-02  2.34800801E-01  8.13682958E-01  1.00000000E+00  1.00000000E+00
  3.34987264E-02  2.34800801E-01  8.13682958E-01  1.00000000E+00  1.00000000E+00
  3.34987264E-02  2.34800801E-01  8.13682958E-01  1.00000000E+00  1.00000000E+00
  3.34987264E-02  2.34800801E-01  8.13682958E-01  1.00000000E+00  1.00000000E+00
  6.93516317E-04  5.34150243E-03  2.71366714E-02  1.01992385E-01  2.75508636E-01
  4.51086433E-01  2.87565745E-01  7.73354740E-06  2.78072137E-04 -2.57875654E-03
 -8.95087684E-03 -1.06058855E-01 -1.31517686E-01  1.09948660E+00  1.00000000E+00
  5.69792516E-02  3.13207212E-01  7.60376742E-01  1.00000000E+00  1.00000000E+00
  7.11864434E-04  5.48520199E-03  2.79099296E-02  1.05133208E-01  2.84002490E-01
  4.51673946E-01  2.73208126E-01  7.69030046E-06  3.13484579E-04 -2.96614853E-03
 -1.08753543E-02 -1.20753817E-01 -1.06275264E-01  1.09597548E+00  1.00000000E+00
  6.26791663E-02  3.33536566E-01  7.41239642E-01  1.00000000E+00  1.00000000E+00
  7.01708743E-04  5.40299880E-03  2.74729510E-02  1.03514580E-01  2.79586579E-01
  4.51317241E-01  2.80626875E-01  7.77446797E-06  3.00742072E-04 -2.80016549E-03
 -9.89708505E-03 -1.14331114E-01 -1.18162383E-01  1.09786885E+00  1.00000000E+00
  5.89056768E-02  3.20461107E-01  7.53042062E-01  1.00000000E+00  1.00000000E+00
  6.93516317E-04  5.34150243E-03  2.71366714E-02  1.01992385E-01  2.75508636E-01
  4.51086433E-01  2.87565745E-01  7.73354740E-06  2.78072137E-04 -2.57875654E-03
 -8.95087684E-03 -1.06058855E-01 -1.31517686E-01  1.09948660E+00  1.00000000E+00
  5.69792516E-02  3.13207212E-01  7.60376742E-01  1.00000000E+00  1.00000000E+00
  6.93516317E-04  5.34150243E-03  2.71366714E-02  1.01992385E-01  2.75508636E-01
  4.51086433E-01  2.87565745E-01  7.73354740E-06  2.78072137E-04 -2.57875654E-03
 -8.95087684E-03 -1.06058855E-01 -1.31517686E-01  1.09948660E+00  1.00000000E+00
  5.69792516E-02  3.13207212E-01  7.60376742E-01  1.00000000E+00  1.00000000E+00
  7.11864434E-04  5.48520199E-03  2.79099296E-02  1.05133208E-01  2.84002490E-01
  4.51673946E-01  2.73208126E-01  7.69030046E-06  3.13484579E-04 -2.96614853E-03
 -1.08753543E-02 -1.20753817E-01 -1.06275264E-01  1.09597548E+00  1.00000000E+00
  6.26791663E-02  3.33536566E-01  7.41239642E-01  1.00000000E+00  1.00000000E+00
  7.01708743E-04  5.40299880E-03  2.74729510E-02  1.03514580E-01  2.79586579E-01
  4.51317241E-01  2.80626875E-01  7.77446797E-06  3.00742072E-04 -2.80016549E-03
 -9.89708505E-03 -1.14331114E-01 -1.18162383E-01  1.09786885E+00  1.00000000E+00
  5.89056768E-02  3.20461107E-01  7.53042062E-01  1.00000000E+00  1.00000000E+00
  7.11864434E-04  5.48520199E-03  2.79099296E-02  1.05133208E-01  2.84002490E-01
  4.51673946E-01  2.73208126E-01  7.69030046E-06  3.13484579E-04 -2.96614853E-03
 -1.08753543E-02 -1.20753817E-01 -1.06275264E-01  1.09597548E+00  1.00000000E+00
  6.26791663E-02  3.33536566E-01  7.41239642E-01  1.00000000E+00  1.00000000E+00
  7.11864434E-04  5.48520199E-03  2.79099296E-02  1.05133208E-01  2.84002490E-01
  4.51673946E-01  2.73208126E-01  7.69030046E-06  3.13484579E-04 -2.96614853E-03
 -1.08753543E-02 -1.20753817E-01 -1.06275264E-01  1.09597548E+00  1.00000000E+00
  6.26791663E-02  3.33536566E-01  7.41239642E-01  1.00000000E+00  1.00000000E+00
  7.01708743E-04  5.40299880E-03  2.74729510E-02  1.03514580E-01  2.79586579E-01
  4.51317241E-01  2.80626875E-01  7.77446797E-06  3.00742072E-04 -2.80016549E-03
 -9.89708505E-03 -1.14331114E-01 -1.18162383E-01  1.09786885E+00  1.00000000E+00
  5.89056768E-02  3.20461107E-01  7.53042062E-01  1.00000000E+00  1.00000000E+00
Coordinates of each shell                  R   N=         225
  2.13964240E-01 -4.24461400E+00  0.00000000E+00  2.13964240E-01 -4.24461400E+00
  0.00000000E+00  2.13964240E-01 -4.24461400E+00  0.00000000E+00 -5.88543674E+00
 -2.17894682E+00  0.00000000E+00 -5.88543674E+00 -2.17894682E+00  0.00000000E+00
 -5.88543674E+00 -2.17894682E+00  0.00000000E+00 -4.92121532E+00  1.04184570E+00
  0.00000000E+00 -4.92121532E+00  1.04184570E+00  0.00000000E+00 -4.92121532E+00
  1.04184570E+00  0.00000000E+00  6.29540716E+00 -5.73276766E-01  0.00000000E+00
  6.29540716E+00 -5.73276766E-01  0.00000000E+00  6.29540716E+00 -5.73276766E-01
  0.00000000E+00  4.50645824E+00  2.26005575E+00  0.00000000E+00  4.50645824E+00
  2.26005575E+00  0.00000000E+00  4.50645824E+00  2.26005575E+00  0.00000000E+00
  2.52871434E+00 -1.05334657E+00  0.00000000E+00  2.52871434E+00 -1.05334657E+00
  0.00000000E+00  2.52871434E+00 -1.05334657E+00  0.00000000E+00  2.52871434E+00
 -1.05334657E+00  0.00000000E+00  2.52871434E+00 -1.05334657E+00  0.00000000E+00
  2.52871434E+00 -1.05334657E+00  0.00000000E+00  2.71983746E+00 -3.43055211E+00
  0.00000000E+00  2.71983746E+00 -3.43055211E+00  0.00000000E+00  2.71983746E+00
 -3.43055211E+00  0.00000000E+00  2.71983746E+00 -3.43055211E+00  0.00000000E+00
  2.71983746E+00 -3.43055211E+00  0.00000000E+00  2.71983746E+00 -3.43055211E+00
  0.00000000E+00  4.63188314E+00  3.54323648E-01  0.00000000E+00  4.63188314E+00
  3.54323648E-01  0.00000000E+00  4.63188314E+00  3.54323648E-01  0.00000000E+00
  4.63188314E+00  3.54323648E-01  0.00000000E+00  4.63188314E+00  3.54323648E-01
  0.00000000E+00  4.63188314E+00  3.54323648E-01  0.00000000E+00  0.00000000E+00
  1.02154815E-01  0.00000000E+00  0.00000000E+00  1.02154815E-01  0.00000000E+00
  0.00000000E+00  1.02154815E-01  0.00000000E+00  0.00000000E+00  1.02154815E-01
  0.00000000E+00  0.00000000E+00  1.02154815E-01  0.00000000E+00  0.00000000E+00
  1.02154815E-01  0.00000000E+00 -2.13669821E+00 -1.57383762E+00  0.00000000E+00
 -2.13669821E+00 -1.57383762E+00  0.00000000E+00 -2.13669821E+00 -1.57383762E+00
  0.00000000E+00 -2.13669821E+00 -1.57383762E+00  0.00000000E+00 -2.13669821E+00
 -1.57383762E+00  0.00000000E+00 -2.13669821E+00 -1.57383762E+00  0.00000000E+00
 -1.77190359E+00 -4.00621938E+00  0.00000000E+00 -1.77190359E+00 -4.00621938E+00
  0.00000000E+00 -1.77190359E+00 -4.00621938E+00  0.00000000E+00 -1.77190359E+00
 -4.00621938E+00  0.00000000E+00 -1.77190359E+00 -4.00621938E+00  0.00000000E+00
 -1.77190359E+00 -4.00621938E+00  0.00000000E+00 -3.58237271E-01  2.74816445E+00
  0.00000000E+00 -3.58237271E-01  2.74816445E+00  0.00000000E+00 -3.58237271E-01
  2.74816445E+00  0.00000000E+00 -3.58237271E-01  2.74816445E+00  0.00000000E+00
 -3.58237271E-01  2.74816445E+00  0.00000000E+00 -3.58237271E-01  2.74816445E+00
  0.00000000E+00  1.50542764E+00  4.17613411E+00  0.00000000E+00  1.50542764E+00
  4.17613411E+00  0.00000000E+00  1.50542764E+00  4.17613411E+00  0.00000000E+00
  1.50542764E+00  4.17613411E+00  0.00000000E+00  1.50542764E+00  4.17613411E+00
  0.00000000E+00  1.50542764E+00  4.17613411E+00  0.00000000E+00 -2.54269453E+00
  3.63009963E+00  0.00000000E+00 -2.54269453E+00  3.63009963E+00  0.00000000E+00
 -2.54269453E+00  3.63009963E+00  0.00000000E+00 -2.54269453E+00  3.63009963E+00
  0.00000000E+00 -2.54269453E+00  3.63009963E+00  0.00000000E+00 -2.54269453E+00
  3.63009963E+00  0.00000000E+00 -4.53744974E+00 -8.32571757E-01  0.00000000E+00
 -4.53744974E+00 -8.32571757E-01  0.00000000E+00 -4.53744974E+00 -8.32571757E-01
  0.00000000E+00 -4.53744974E+00 -8.32571757E-01  0.00000000E+00 -4.53744974E+00
 -8.32571757E-01  0.00000000E+00 -4.53744974E+00 -8.32571757E-01  0.00000000E+00
Num ILSW                                   I              100
ILSW                                       I   N=         100
           0           0           0           0           2           0
           0           0           0           0        1009          -1
           5           0           0           0           0           0
           0           0           0           0           0           0
           1           1           0           0           0           0
           0           0      100000           0          -1           0
           0           0           0           0           0           0
           0           0           0           1           0           0
           0 -2000000000           1           0           0           0
           0           0           4          52           0           0
           0           0          13           0           0           0
           0           0           0          15           0           1
           0           0           0           0           0           0
           0           0           0           0           0           0
           0           0           0           0           0           0
           0           0           0           0           0           0
           0           0           0           0
Num RLSW                                   I               52
RLSW                                       R   N=          52
  7.50000000E-01  7.50000000E-01  1.00000000E+00  1.00000000E+00  2.50000000E-01
  0.00000000E+00  0.00000000E+00  1.00000000E+00  0.00000000E+00  0.00000000E+00
  0.00000000E+00  0.00000000E+00  1.00000000E+00  0.00000000E+00  0.00000000E+00
  0.00000000E+00  0.00000000E+00  1.00000000E+00  0.00000000E+00  0.00000000E+00
  0.00000000E+00  0.00000000E+00  1.00000000E+00  0.00000000E+00  0.00000000E+00
  0.00000000E+00  0.00000000E+00  1.00000000E+00  0.00000000E+00  0.00000000E+00
  0.00000000E+00  0.00000000E+00  1.00000000E+00  0.00000000E+00  0.00000000E+00
  0.00000000E+00  0.00000000E+00  0.00000000E+00  1.00000000E+00  1.00000000E+00
  0.00000000E+00  1.00000000E+00  0.00000000E+00  0.00000000E+00  0.00000000E+00
  0.00000000E+00  0.00000000E+00  0.00000000E+00  0.00000000E+00  0.00000000E+00
  0.00000000E+00  0.00000000E+00
MxBond                                     I                3
NBond                                      I   N=          15
           1           1           1           1           1           3
           1           3           3           3           2           3
           1           1           3
IBond                                      I   N=          45
          11           0           0          15           0           0
          15           0           0           8           0           0
           8           0           0           7           8           9
           6           0           0           4           5           6
           6          10          12           9          11          15
           1          10           0           9          13          14
          12           0           0          12           0           0
           2           3          10
RBond                                      R   N=          45
  1.00000000E+00  0.00000000E+00  0.00000000E+00  1.00000000E+00  0.00000000E+00
  0.00000000E+00  1.00000000E+00  0.00000000E+00  0.00000000E+00  1.00000000E+00
  0.00000000E+00  0.00000000E+00  1.00000000E+00  0.00000000E+00  0.00000000E+00
  2.00000000E+00  1.41000000E+00  1.00000000E+00  2.00000000E+00  0.00000000E+00
  0.00000000E+00  1.00000000E+00  1.00000000E+00  1.41000000E+00  1.00000000E+00
  1.00000000E+00  1.00000000E+00  1.00000000E+00  1.00000000E+00  1.50000000E+00
  1.00000000E+00  1.00000000E+00  0.00000000E+00  1.00000000E+00  2.00000000E+00
  2.00000000E+00  2.00000000E+00  0.00000000E+00  0.00000000E+00  2.00000000E+00
  0.00000000E+00  0.00000000E+00  1.00000000E+00  1.00000000E+00  1.50000000E+00
Virial Ratio                               R      2.005123718115509E+00
SCF Energy                                 R     -5.818644587616745E+02
Total Energy                               R     -5.818644587616745E+02
RMS Density                                R      6.266984965073004E-09
Job Status                                 I                1
Nuclear derivative order                   I                0
External E-field                           R   N=          35
  0.00000000E+00  0.00000000E+00  0.00000000E+00  0.00000000E+00  0.00000000E+00
  0.00000000E+00  0.00000000E+00  0.00000000E+00  0.00000000E+00  0.00000000E+00
  0.00000000E+00  0.00000000E+00  0.00000000E+00  0.00000000E+00  0.00000000E+00
  0.00000000E+00  0.00000000E+00  0.00000000E+00  0.00000000E+00  0.00000000E+00
  0.00000000E+00  0.00000000E+00  0.00000000E+00  0.00000000E+00  0.00000000E+00
  0.00000000E+00  0.00000000E+00  0.00000000E+00  0.00000000E+00  0.00000000E+00
  0.00000000E+00  0.00000000E+00  0.00000000E+00  0.00000000E+00  0.00000000E+00
IOpCl                                      I                0
IROHF                                      I                0
Alpha Orbital Energies                     R   N=         165
 -1.92573730E+01 -1.92348757E+01 -1.92346639E+01 -1.92118114E+01 -1.46253997E+01
 -1.44446716E+01 -1.44254145E+01 -1.03855225E+01 -1.03670075E+01 -1.02900130E+01
 -1.24902562E+00 -1.14006354E+00 -1.08649573E+00 -1.06676290E+00 -9.77263976E-01
 -9.47987424E-01 -8.62534893E-01 -7.11393024E-01 -6.77213361E-01 -6.55169184E-01
 -5.91713000E-01 -5.86871142E-01 -5.60473997E-01 -5.47078704E-01 -5.32473251E-01
 -5.22926753E-01 -5.00859936E-01 -4.75899075E-01 -4.54537584E-01 -4.39656245E-01
 -4.26901793E-01 -3.34482363E-01 -3.24464043E-01 -3.16429232E-01 -3.14332467E-01
 -2.98777883E-01 -2.89719422E-01 -2.63609427E-01 -5.84896544E-02 -7.53962823E-03
  6.76388188E-02  8.59976069E-02  1.10995517E-01  1.12776409E-01  1.49343158E-01
  1.63366484E-01  1.85412012E-01  2.05929596E-01  2.50369262E-01  3.00811840E-01
  3.33819074E-01  3.62231795E-01  3.69205422E-01  3.98730318E-01  4.14499975E-01
  4.58623740E-01  4.59788717E-01  4.77164859E-01  4.91914644E-01  4.93879355E-01
  5.11767799E-01  5.34838143E-01  5.40988172E-01  5.77659480E-01  6.06838095E-01
  6.13753687E-01  6.36359238E-01  6.90435423E-01  7.03182407E-01  7.18761150E-01
  7.30408374E-01  7.79643807E-01  7.98843924E-01  8.29067368E-01  8.38817926E-01
  8.87279424E-01  8.97475147E-01  9.22523924E-01  9.23250267E-01  9.53107684E-01
  9.61523482E-01  9.80397223E-01  9.84791291E-01  1.00866506E+00  1.01526862E+00
  1.02829091E+00  1.06164774E+00  1.06989651E+00  1.11474895E+00  1.14537148E+00
  1.15313697E+00  1.15571278E+00  1.16150428E+00  1.18826087E+00  1.20582058E+00
  1.24353764E+00  1.34552297E+00  1.35029843E+00  1.40381547E+00  1.42727653E+00
  1.44666262E+00  1.46391302E+00  1.48498450E+00  1.51320824E+00  1.52227958E+00
  1.52913971E+00  1.54343763E+00  1.58618805E+00  1.64419611E+00  1.65638568E+00
  1.65858898E+00  1.67343278E+00  1.67685438E+00  1.73405850E+00  1.75718752E+00
  1.77691621E+00  1.77718083E+00  1.81966003E+00  1.84445418E+00  1.87046430E+00
  1.97885041E+00  1.98283729E+00  1.99085650E+00  2.04884293E+00  2.12347514E+00
  2.16493993E+00  2.19669456E+00  2.20988682E+00  2.21432333E+00  2.23022342E+00
  2.25224586E+00  2.27187872E+00  2.29857388E+00  2.29934059E+00  2.33985294E+00
  2.41356491E+00  2.44065329E+00  2.51365401E+00  2.52221555E+00  2.59596951E+00
  2.63012785E+00  2.63057457E+00  2.65092725E+00  2.67208148E+00  2.71910724E+00
  2.80707164E+00  2.92488925E+00  2.92923987E+00  2.95210071E+00  2.98334124E+00
  3.01436092E+00  3.02900838E+00  3.05279293E+00  3.09588495E+00  3.18235866E+00
  3.22169958E+00  3.24849317E+00  3.32540261E+00  3.37290010E+00  3.40267462E+00
  3.45505779E+00  3.55734851E+00  3.63520697E+00  3.66611978E+00  3.89941847E+00
Alpha MO coefficients                      R   N=       27225
  1.01689450E-03  4.20483081E-05  6.28488744E-04  1.88252175E-04  6.04158729E-16
  1.04967902E-04  1.39613050E-04 -2.38917981E-04  7.27072536E-06  8.47834011E-17
 -6.12084075E-04  2.49126639E-04 -5.01265890E-05  8.43843440E-05  9.69188726E-17
 -2.37712902E-05  1.26816078E-04 -6.18692875E-05 -5.53566871E-05 -1.29183831E-16
  1.56094359E-04  3.79752391E-05 -1.43901717E-05 -1.69004135E-05 -1.37584896E-16
 -4.70685529E-05 -3.30343813E-04  6.74315151E-03 -6.55250356E-05 -3.43310013E-05
 -3.70383225E-17 -3.05293970E-03  1.59028720E-03  7.97922584E-16 -9.30103208E-05
 -9.37524737E-17  9.25662600E-17  5.69874016E-06  9.83202207E-05 -3.36195821E-06
  2.24913381E-04 -7.46983175E-04 -3.75397081E-05 -3.23800457E-05  2.31298956E-16
  9.60237286E-04  3.52160519E-05 -3.97925692E-16  9.36933632E-05  4.97301979E-16
  2.94858021E-16 -1.19557528E-04 -4.33405305E-05  7.58022595E-06  1.85730608E-05
 -4.71170409E-04  3.04655892E-05  4.87986393E-05 -2.39869898E-18  4.47081076E-04
 -2.59523043E-04 -2.94320078E-16  3.13571225E-05 -3.92211087E-17 -3.35710209E-16
 -1.05134761E-05 -1.38079194E-05  3.87909242E-05  2.10578245E-04 -2.35889107E-03
  2.39142701E-04  9.86200701E-05  1.86550642E-16 -6.80679098E-03  5.15919139E-03