 Entering Gaussian System, Link 0=g16
 Initial command:
 /util/academic/gaussian/g16.A03/x86-64-SSE4_2/g16/l1.exe "/scratch/2819089/Gau-144640.inp" -scrdir="/scratch/2819089/"
 Entering Link 1 = /util/academic/gaussian/g16.A03/x86-64-SSE4_2/g16/l1.exe PID=    144651.
  
 Copyright (c) 1988,1990,1992,1993,1995,1998,2003,2009,2016,
            Gaussian, Inc.  All Rights Reserved.
  
 This is part of the Gaussian(R) 16 program.  It is based on
 the Gaussian(R) 09 system (copyright 2009, Gaussian, Inc.),
 the Gaussian(R) 03 system (copyright 2003, Gaussian, Inc.),
 the Gaussian(R) 98 system (copyright 1998, Gaussian, Inc.),
 the Gaussian(R) 94 system (copyright 1995, Gaussian, Inc.),
 the Gaussian 92(TM) system (copyright 1992, Gaussian, Inc.),
 the Gaussian 90(TM) system (copyright 1990, Gaussian, Inc.),
 the Gaussian 88(TM) system (copyright 1988, Gaussian, Inc.),
 the Gaussian 86(TM) system (copyright 1986, Carnegie Mellon
 University), and the Gaussian 82(TM) system (copyright 1983,
 Carnegie Mellon University). Gaussian is a federally registered
 trademark of Gaussian, Inc.
  
 This software contains proprietary and confidential information,
 including trade secrets, belonging to Gaussian, Inc.
  
 This software is provided under written license and may be
 used, copied, transmitted, or stored only in accord with that
 written license.
  
 The following legend is applicable only to US Government
 contracts under FAR:
  
                    RESTRICTED RIGHTS LEGEND
  
 Use, reproduction and disclosure by the US Government is
 subject to restrictions as set forth in subparagraphs (a)
 and (c) of the Commercial Computer Software - Restricted
 Rights clause in FAR 52.227-19.
  
 Gaussian, Inc.
 340 Quinnipiac St., Bldg. 40, Wallingford CT 06492
  
  
 ---------------------------------------------------------------
 Warning -- This program may not be used in any manner that
 competes with the business of Gaussian, Inc. or will provide
 assistance to any competitor of Gaussian, Inc.  The licensee
 of this program is prohibited from giving any competitor of
 Gaussian, Inc. access to this program.  By using this program,
 the user acknowledges that Gaussian, Inc. is engaged in the
 business of creating and licensing software in the field of
 computational chemistry and represents and warrants to the
 licensee that it is not a competitor of Gaussian, Inc. and that
 it will not use this program in any manner prohibited above.
 ---------------------------------------------------------------
  

 Cite this work as:
 Gaussian 16, Revision A.03,
 M. J. Frisch, G. W. Trucks, H. B. Schlegel, G. E. Scuseria, 
 M. A. Robb, J. R. Cheeseman, G. Scalmani, V. Barone, 
 G. A. Petersson, H. Nakatsuji, X. Li, M. Caricato, A. V. Marenich, 
 J. Bloino, B. G. Janesko, R. Gomperts, B. Mennucci, H. P. Hratchian, 
 J. V. Ortiz, A. F. Izmaylov, J. L. Sonnenberg, D. Williams-Young, 
 F. Ding, F. Lipparini, F. Egidi, J. Goings, B. Peng, A. Petrone, 
 T. Henderson, D. Ranasinghe, V. G. Zakrzewski, J. Gao, N. Rega, 
 G. Zheng, W. Liang, M. Hada, M. Ehara, K. Toyota, R. Fukuda, 
 J. Hasegawa, M. Ishida, T. Nakajima, Y. Honda, O. Kitao, H. Nakai, 
 T. Vreven, K. Throssell, J. A. Montgomery, Jr., J. E. Peralta, 
 F. Ogliaro, M. J. Bearpark, J. J. Heyd, E. N. Brothers, K. N. Kudin, 
 V. N. Staroverov, T. A. Keith, R. Kobayashi, J. Normand, 
 K. Raghavachari, A. P. Rendell, J. C. Burant, S. S. Iyengar, 
 J. Tomasi, M. Cossi, J. M. Millam, M. Klene, C. Adamo, R. Cammi, 
 J. W. Ochterski, R. L. Martin, K. Morokuma, O. Farkas, 
 J. B. Foresman, and D. J. Fox, Gaussian, Inc., Wallingford CT, 2016.
 
 ******************************************
 Gaussian 16:  ES64L-G16RevA.03 25-Dec-2016
                16-Mar-2019 
 ******************************************
 %NProc=12
 Will use up to   12 processors via shared memory.
 %chk=chk.chk
 -------------------------------------------------------------
 #P blyp/def2TZVP OPT=VeryTight SCF=Tight Int=UltraFine NoSymm
 -------------------------------------------------------------
 1/7=1,18=20,19=15,26=4,38=1/1,3;
 2/9=110,12=2,15=1,17=6,18=5,40=1/2;
 3/5=44,7=101,11=2,25=1,30=1,71=1,74=402,75=-5/1,2,3;
 4//1;
 5/5=2,32=2,38=5/2;
 6/7=2,8=2,9=2,10=2,28=1/1;
 7/30=1/1,2,3,16;
 1/7=1,18=20,19=15,26=4/3(2);
 2/9=110,15=1/2;
 99//99;
 2/9=110,15=1/2;
 3/5=44,7=101,11=2,25=1,30=1,71=1,74=402,75=-5/1,2,3;
 4/5=5,16=3,69=1/1;
 5/5=2,32=2,38=5/2;
 7/30=1/1,2,3,16;
 1/7=1,18=20,19=15,26=4/3(-5);
 2/9=110,15=1/2;
 6/7=2,8=2,9=2,10=2,19=2,28=1/1;
 99/9=1/99;
 Leave Link    1 at Sat Mar 16 14:05:31 2019, MaxMem=           0 cpu:               0.3 elap:               0.0
 (Enter /util/academic/gaussian/g16.A03/x86-64-SSE4_2/g16/l101.exe)
 ---
 opt
 ---
 Symbolic Z-matrix:
 Charge =  0 Multiplicity = 1
 O                    -0.85156  -0.17078   0.20068 
 C                     0.57036  -0.15885   0.12281 
 C                    -0.19298   1.08068   0.33748 
 C                     1.1836   -0.51897  -1.2074 
 H                     1.06383  -0.6041    1.00242 
 H                    -0.23516   1.53584   1.33917 
 H                    -0.3288    1.78401  -0.49895 
 H                     2.24749  -0.22024  -1.24367 
 H                     1.13157  -1.6102   -1.37547 
 H                     0.64775  -0.02025  -2.03334 
 
 ITRead=  0  0  0  0  0  0  0  0  0  0
 MicOpt= -1 -1 -1 -1 -1 -1 -1 -1 -1 -1
 NAtoms=     10 NQM=       10 NQMF=       0 NMMI=      0 NMMIF=      0
                NMic=       0 NMicF=      0.
                    Isotopes and Nuclear Properties:
 (Nuclear quadrupole moments (NQMom) in fm**2, nuclear magnetic moments (NMagM)
  in nuclear magnetons)

  Atom         1           2           3           4           5           6           7           8           9          10
 IAtWgt=          16          12          12          12           1           1           1           1           1           1
 AtmWgt=  15.9949146  12.0000000  12.0000000  12.0000000   1.0078250   1.0078250   1.0078250   1.0078250   1.0078250   1.0078250
 NucSpn=           0           0           0           0           1           1           1           1           1           1
 AtZEff=  -0.0000000  -0.0000000  -0.0000000  -0.0000000  -0.0000000  -0.0000000  -0.0000000  -0.0000000  -0.0000000  -0.0000000
 NQMom=    0.0000000   0.0000000   0.0000000   0.0000000   0.0000000   0.0000000   0.0000000   0.0000000   0.0000000   0.0000000
 NMagM=    0.0000000   0.0000000   0.0000000   0.0000000   2.7928460   2.7928460   2.7928460   2.7928460   2.7928460   2.7928460
 AtZNuc=   8.0000000   6.0000000   6.0000000   6.0000000   1.0000000   1.0000000   1.0000000   1.0000000   1.0000000   1.0000000
 Leave Link  101 at Sat Mar 16 14:05:31 2019, MaxMem=   104857600 cpu:               1.4 elap:               0.2
 (Enter /util/academic/gaussian/g16.A03/x86-64-SSE4_2/g16/l103.exe)

 GradGradGradGradGradGradGradGradGradGradGradGradGradGradGradGradGradGrad
 Berny optimization.
 Initialization pass.
                           ----------------------------
                           !    Initial Parameters    !
                           ! (Angstroms and Degrees)  !
 --------------------------                            --------------------------
 ! Name  Definition              Value          Derivative Info.                !
 --------------------------------------------------------------------------------
 ! R1    R(1,2)                  1.4241         estimate D2E/DX2                !
 ! R2    R(1,3)                  1.4208         estimate D2E/DX2                !
 ! R3    R(2,3)                  1.4715         estimate D2E/DX2                !
 ! R4    R(2,4)                  1.5084         estimate D2E/DX2                !
 ! R5    R(2,5)                  1.1025         estimate D2E/DX2                !
 ! R6    R(3,6)                  1.1011         estimate D2E/DX2                !
 ! R7    R(3,7)                  1.1012         estimate D2E/DX2                !
 ! R8    R(4,8)                  1.1056         estimate D2E/DX2                !
 ! R9    R(4,9)                  1.1053         estimate D2E/DX2                !
 ! R10   R(4,10)                 1.1037         estimate D2E/DX2                !
 ! A1    A(1,2,4)              116.8818         estimate D2E/DX2                !
 ! A2    A(1,2,5)              113.5719         estimate D2E/DX2                !
 ! A3    A(3,2,4)              122.7297         estimate D2E/DX2                !
 ! A4    A(3,2,5)              117.1298         estimate D2E/DX2                !
 ! A5    A(4,2,5)              115.1638         estimate D2E/DX2                !
 ! A6    A(1,3,6)              115.7187         estimate D2E/DX2                !
 ! A7    A(1,3,7)              115.6108         estimate D2E/DX2                !
 ! A8    A(2,3,6)              120.0537         estimate D2E/DX2                !
 ! A9    A(2,3,7)              119.4178         estimate D2E/DX2                !
 ! A10   A(6,3,7)              114.977          estimate D2E/DX2                !
 ! A11   A(2,4,8)              110.8318         estimate D2E/DX2                !
 ! A12   A(2,4,9)              110.5278         estimate D2E/DX2                !
 ! A13   A(2,4,10)             110.7749         estimate D2E/DX2                !
 ! A14   A(8,4,9)              107.8817         estimate D2E/DX2                !
 ! A15   A(8,4,10)             108.6962         estimate D2E/DX2                !
 ! A16   A(9,4,10)             108.0277         estimate D2E/DX2                !
 ! D1    D(4,2,3,6)           -152.4867         estimate D2E/DX2                !
 ! D2    D(4,2,3,7)             -0.0726         estimate D2E/DX2                !
 ! D3    D(5,2,3,6)              1.3145         estimate D2E/DX2                !
 ! D4    D(5,2,3,7)            153.7286         estimate D2E/DX2                !
 ! D5    D(1,2,4,8)            164.6863         estimate D2E/DX2                !
 ! D6    D(1,2,4,9)            -75.7574         estimate D2E/DX2                !
 ! D7    D(1,2,4,10)            43.9446         estimate D2E/DX2                !
 ! D8    D(3,2,4,8)             96.1391         estimate D2E/DX2                !
 ! D9    D(3,2,4,9)           -144.3046         estimate D2E/DX2                !
 ! D10   D(3,2,4,10)           -24.6026         estimate D2E/DX2                !
 ! D11   D(5,2,4,8)            -58.1321         estimate D2E/DX2                !
 ! D12   D(5,2,4,9)             61.4242         estimate D2E/DX2                !
 ! D13   D(5,2,4,10)          -178.8738         estimate D2E/DX2                !
 --------------------------------------------------------------------------------
 Trust Radius=3.00D-01 FncErr=1.00D-07 GrdErr=1.00D-06 EigMax=2.50D+02 EigMin=1.00D-04
 Number of steps in this run=     49 maximum allowed number of steps=    100.
 GradGradGradGradGradGradGradGradGradGradGradGradGradGradGradGradGradGrad

 Leave Link  103 at Sat Mar 16 14:05:31 2019, MaxMem=   104857600 cpu:               0.2 elap:               0.1
 (Enter /util/academic/gaussian/g16.A03/x86-64-SSE4_2/g16/l202.exe)
                          Input orientation:                          
 ---------------------------------------------------------------------
 Center     Atomic      Atomic             Coordinates (Angstroms)
 Number     Number       Type             X           Y           Z
 ---------------------------------------------------------------------
      1          8           0       -0.851564   -0.170778    0.200679
      2          6           0        0.570363   -0.158845    0.122809
      3          6           0       -0.192981    1.080683    0.337475
      4          6           0        1.183600   -0.518969   -1.207399
      5          1           0        1.063833   -0.604101    1.002423
      6          1           0       -0.235157    1.535838    1.339171
      7          1           0       -0.328803    1.784005   -0.498952
      8          1           0        2.247487   -0.220236   -1.243668
      9          1           0        1.131573   -1.610199   -1.375467
     10          1           0        0.647749   -0.020246   -2.033343
 ---------------------------------------------------------------------
                    Distance matrix (angstroms):
                    1          2          3          4          5
     1  O    0.000000
     2  C    1.424108   0.000000
     3  C    1.420774   1.471464   0.000000
     4  C    2.499162   1.508377   2.615434   0.000000
     5  H    2.121157   1.102491   2.204594   2.214702   0.000000
     6  H    2.142116   2.236146   1.101063   3.566528   2.525889
     7  H    2.141014   2.229294   1.101235   2.844811   3.145888
     8  H    3.419459   2.164203   3.185638   1.105628   2.567745
     9  H    2.913589   2.160143   3.453905   1.105322   2.582863
    10  H    2.694708   2.161987   2.745842   1.103650   3.119277
                    6          7          8          9         10
     6  H    0.000000
     7  H    1.857163   0.000000
     8  H    3.989784   3.347963   0.000000
     9  H    4.374330   3.797578   1.787353   0.000000
    10  H    3.817692   2.561900   1.795200   1.787411   0.000000
 Symmetry turned off by external request.
 Stoichiometry    C3H6O
 Framework group  C1[X(C3H6O)]
 Deg. of freedom    24
 Full point group                 C1      NOp   1
 Rotational constants (GHZ):          18.2700766           6.6025096           5.9106120
 Leave Link  202 at Sat Mar 16 14:05:32 2019, MaxMem=   104857600 cpu:               1.5 elap:               0.2
 (Enter /util/academic/gaussian/g16.A03/x86-64-SSE4_2/g16/l301.exe)
 Standard basis: def2TZVP (5D, 7F)
 Ernie: Thresh=  0.10000D-02 Tol=  0.10000D-05 Strict=F.
   160 basis functions,   252 primitive gaussians,   180 cartesian basis functions
    16 alpha electrons       16 beta electrons
       nuclear repulsion energy       124.4453955657 Hartrees.
 IExCor=  402 DFT=T Ex=B Corr=LYP ExCW=0 ScaHFX=  0.000000
 ScaDFX=  1.000000  1.000000  1.000000  1.000000 ScalE2=  1.000000  1.000000
 IRadAn=      5 IRanWt=     -1 IRanGd=            0 ICorTp=0 IEmpDi=  4
 NAtoms=   10 NActive=   10 NUniq=   10 SFac= 1.00D+00 NAtFMM=   60 NAOKFM=F Big=F
 Integral buffers will be    131072 words long.
 Raffenetti 2 integral format.
 Two-electron integral symmetry is turned off.
 Leave Link  301 at Sat Mar 16 14:05:32 2019, MaxMem=   104857600 cpu:               2.0 elap:               0.3
 (Enter /util/academic/gaussian/g16.A03/x86-64-SSE4_2/g16/l302.exe)
 NPDir=0 NMtPBC=     1 NCelOv=     1 NCel=       1 NClECP=     1 NCelD=      1
         NCelK=      1 NCelE2=     1 NClLst=     1 CellRange=     0.0.
 One-electron integrals computed using PRISM.
   1 Symmetry operations used in ECPInt.
 ECPInt:  NShTT=    2346 NPrTT=    6892 LenC2=    2340 LenP2D=    5998.
 LDataN:  DoStor=T MaxTD1= 6 Len=  172
 NBasis=   160 RedAO= T EigKep=  2.94D-04  NBF=   160
 NBsUse=   160 1.00D-06 EigRej= -1.00D+00 NBFU=   160
 Precomputing XC quadrature grid using
 IXCGrd= 4 IRadAn=           5 IRanWt=          -1 IRanGd=           0 AccXCQ= 0.00D+00.
 Generated NRdTot=       0 NPtTot=           0 NUsed=           0 NTot=          32
 NSgBfM=   180   180   180   180   180 MxSgAt=    10 MxSgA2=    10.
 Leave Link  302 at Sat Mar 16 14:05:33 2019, MaxMem=   104857600 cpu:               4.0 elap:               0.5
 (Enter /util/academic/gaussian/g16.A03/x86-64-SSE4_2/g16/l303.exe)
 DipDrv:  MaxL=1.
 Leave Link  303 at Sat Mar 16 14:05:33 2019, MaxMem=   104857600 cpu:               1.0 elap:               0.3
 (Enter /util/academic/gaussian/g16.A03/x86-64-SSE4_2/g16/l401.exe)
 ExpMin= 9.52D-02 ExpMax= 2.70D+04 ExpMxC= 9.22D+02 IAcc=3 IRadAn=         5 AccDes= 0.00D+00
 Harris functional with IExCor=  402 and IRadAn=       5 diagonalized for initial guess.
 HarFok:  IExCor=  402 AccDes= 0.00D+00 IRadAn=         5 IDoV= 1 UseB2=F ITyADJ=14
 ICtDFT=  3500011 ScaDFX=  1.000000  1.000000  1.000000  1.000000
 FoFCou: FMM=F IPFlag=           0 FMFlag=      100000 FMFlg1=           0
         NFxFlg=           0 DoJE=T BraDBF=F KetDBF=T FulRan=T
         wScrn=  0.000000 ICntrl=       500 IOpCl=  0 I1Cent=   200000004 NGrid=           0
         NMat0=    1 NMatS0=      1 NMatT0=    0 NMatD0=    1 NMtDS0=    0 NMtDT0=    0
 Symmetry not used in FoFCou.
 Harris En= -193.208248991608    
 JPrj=0 DoOrth=F DoCkMO=F.
 Leave Link  401 at Sat Mar 16 14:05:34 2019, MaxMem=   104857600 cpu:               9.6 elap:               1.0
 (Enter /util/academic/gaussian/g16.A03/x86-64-SSE4_2/g16/l502.exe)
 Keep J ints in memory in canonical form, NReq=95053554.
 FoFCou: FMM=F IPFlag=           0 FMFlag=           0 FMFlg1=           0
         NFxFlg=           0 DoJE=F BraDBF=F KetDBF=F FulRan=T
         wScrn=  0.000000 ICntrl=       600 IOpCl=  0 I1Cent=           0 NGrid=           0
         NMat0=    1 NMatS0=  12880 NMatT0=    0 NMatD0=    1 NMtDS0=    0 NMtDT0=    0
 Symmetry not used in FoFCou.
 CoulSu:  requested number of processors reduced to:  10 ShMem   1 Linda.
 Two-electron integral symmetry not used.
 Closed shell SCF:
 Using DIIS extrapolation, IDIIS=  1040.
 NGot=   104857600 LenX=    21835618 LenY=    21802777
 Requested convergence on RMS density matrix=1.00D-08 within 128 cycles.
 Requested convergence on MAX density matrix=1.00D-06.
 Requested convergence on             energy=1.00D-06.
 No special actions if energy rises.
 Integral accuracy reduced to 1.0D-05 until final iterations.

 Cycle   1  Pass 0  IDiag  1:
 E= -192.995386240032    
 DIIS: error= 2.59D-02 at cycle   1 NSaved=   1.
 NSaved= 1 IEnMin= 1 EnMin= -192.995386240032     IErMin= 1 ErrMin= 2.59D-02
 ErrMax= 2.59D-02  0.00D+00 EMaxC= 1.00D-01 BMatC= 1.11D-01 BMatP= 1.11D-01
 IDIUse=3 WtCom= 7.41D-01 WtEn= 2.59D-01
 Coeff-Com:  0.100D+01
 Coeff-En:   0.100D+01
 Coeff:      0.100D+01
 Gap=     0.246 Goal=   None    Shift=    0.000
 GapD=    0.246 DampG=1.000 DampE=0.500 DampFc=0.5000 IDamp=-1.
 Damping current iteration by 5.00D-01
 RMSDP=6.74D-03 MaxDP=1.48D-01              OVMax= 1.99D-01

 Cycle   2  Pass 0  IDiag  1:
 E= -193.021933073962     Delta-E=       -0.026546833930 Rises=F Damp=T
 DIIS: error= 8.14D-03 at cycle   2 NSaved=   2.
 NSaved= 2 IEnMin= 2 EnMin= -193.021933073962     IErMin= 2 ErrMin= 8.14D-03
 ErrMax= 8.14D-03  0.00D+00 EMaxC= 1.00D-01 BMatC= 1.79D-02 BMatP= 1.11D-01
 IDIUse=3 WtCom= 9.19D-01 WtEn= 8.14D-02
 Coeff-Com:  0.247D+00 0.753D+00
 Coeff-En:   0.382D+00 0.618D+00
 Coeff:      0.258D+00 0.742D+00
 Gap=     0.263 Goal=   None    Shift=    0.000
 RMSDP=2.00D-03 MaxDP=6.15D-02 DE=-2.65D-02 OVMax= 1.50D-01

 Cycle   3  Pass 0  IDiag  1:
 E= -193.100102782302     Delta-E=       -0.078169708340 Rises=F Damp=F
 DIIS: error= 6.49D-03 at cycle   3 NSaved=   3.
 NSaved= 3 IEnMin= 3 EnMin= -193.100102782302     IErMin= 3 ErrMin= 6.49D-03
 ErrMax= 6.49D-03  0.00D+00 EMaxC= 1.00D-01 BMatC= 1.08D-02 BMatP= 1.79D-02
 IDIUse=3 WtCom= 9.35D-01 WtEn= 6.49D-02
 Coeff-Com:  0.113D+00 0.450D+00 0.437D+00
 Coeff-En:   0.000D+00 0.000D+00 0.100D+01
 Coeff:      0.105D+00 0.421D+00 0.474D+00
 Gap=     0.241 Goal=   None    Shift=    0.000
 RMSDP=6.26D-04 MaxDP=1.61D-02 DE=-7.82D-02 OVMax= 2.86D-02

 Cycle   4  Pass 0  IDiag  1:
 E= -193.105788496928     Delta-E=       -0.005685714627 Rises=F Damp=F
 DIIS: error= 3.77D-03 at cycle   4 NSaved=   4.
 NSaved= 4 IEnMin= 4 EnMin= -193.105788496928     IErMin= 4 ErrMin= 3.77D-03
 ErrMax= 3.77D-03  0.00D+00 EMaxC= 1.00D-01 BMatC= 3.38D-03 BMatP= 1.08D-02
 IDIUse=3 WtCom= 9.62D-01 WtEn= 3.77D-02
 Coeff-Com:  0.222D-01 0.122D+00 0.350D+00 0.506D+00
 Coeff-En:   0.000D+00 0.000D+00 0.285D+00 0.715D+00
 Coeff:      0.213D-01 0.118D+00 0.347D+00 0.514D+00
 Gap=     0.248 Goal=   None    Shift=    0.000
 RMSDP=2.40D-04 MaxDP=5.86D-03 DE=-5.69D-03 OVMax= 1.07D-02

 Cycle   5  Pass 0  IDiag  1:
 E= -193.108251018076     Delta-E=       -0.002462521148 Rises=F Damp=F
 DIIS: error= 5.56D-04 at cycle   5 NSaved=   5.
 NSaved= 5 IEnMin= 5 EnMin= -193.108251018076     IErMin= 5 ErrMin= 5.56D-04
 ErrMax= 5.56D-04  0.00D+00 EMaxC= 1.00D-01 BMatC= 6.25D-05 BMatP= 3.38D-03
 IDIUse=3 WtCom= 9.94D-01 WtEn= 5.56D-03
 Coeff-Com:  0.394D-02 0.306D-01 0.137D+00 0.239D+00 0.590D+00
 Coeff-En:   0.000D+00 0.000D+00 0.000D+00 0.000D+00 0.100D+01
 Coeff:      0.392D-02 0.305D-01 0.136D+00 0.237D+00 0.592D+00
 Gap=     0.248 Goal=   None    Shift=    0.000
 RMSDP=4.64D-05 MaxDP=1.22D-03 DE=-2.46D-03 OVMax= 3.19D-03

 Cycle   6  Pass 0  IDiag  1:
 E= -193.108291846829     Delta-E=       -0.000040828754 Rises=F Damp=F
 DIIS: error= 2.89D-04 at cycle   6 NSaved=   6.
 NSaved= 6 IEnMin= 6 EnMin= -193.108291846829     IErMin= 6 ErrMin= 2.89D-04
 ErrMax= 2.89D-04  0.00D+00 EMaxC= 1.00D-01 BMatC= 1.38D-05 BMatP= 6.25D-05
 IDIUse=3 WtCom= 9.97D-01 WtEn= 2.89D-03
 Coeff-Com:  0.724D-03 0.830D-02 0.552D-01 0.105D+00 0.374D+00 0.456D+00
 Coeff-En:   0.000D+00 0.000D+00 0.000D+00 0.000D+00 0.181D+00 0.819D+00
 Coeff:      0.722D-03 0.828D-02 0.550D-01 0.105D+00 0.374D+00 0.457D+00
 Gap=     0.248 Goal=   None    Shift=    0.000
 RMSDP=1.71D-05 MaxDP=5.62D-04 DE=-4.08D-05 OVMax= 1.47D-03

 Cycle   7  Pass 0  IDiag  1:
 E= -193.108304211512     Delta-E=       -0.000012364683 Rises=F Damp=F
 DIIS: error= 2.98D-05 at cycle   7 NSaved=   7.
 NSaved= 7 IEnMin= 7 EnMin= -193.108304211512     IErMin= 7 ErrMin= 2.98D-05
 ErrMax= 2.98D-05  0.00D+00 EMaxC= 1.00D-01 BMatC= 2.54D-07 BMatP= 1.38D-05
 IDIUse=1 WtCom= 1.00D+00 WtEn= 0.00D+00
 Coeff-Com:  0.212D-03 0.195D-02 0.168D-01 0.334D-01 0.132D+00 0.204D+00
 Coeff-Com:  0.611D+00
 Coeff:      0.212D-03 0.195D-02 0.168D-01 0.334D-01 0.132D+00 0.204D+00
 Coeff:      0.611D+00
 Gap=     0.247 Goal=   None    Shift=    0.000
 RMSDP=3.87D-06 MaxDP=6.42D-05 DE=-1.24D-05 OVMax= 2.11D-04

 Initial convergence to 1.0D-05 achieved.  Increase integral accuracy.
 Cycle   8  Pass 1  IDiag  1:
 E= -193.108304035073     Delta-E=        0.000000176439 Rises=F Damp=F
 DIIS: error= 1.25D-05 at cycle   1 NSaved=   1.
 NSaved= 1 IEnMin= 1 EnMin= -193.108304035073     IErMin= 1 ErrMin= 1.25D-05
 ErrMax= 1.25D-05  0.00D+00 EMaxC= 1.00D-01 BMatC= 3.06D-08 BMatP= 3.06D-08
 IDIUse=1 WtCom= 1.00D+00 WtEn= 0.00D+00
 Coeff-Com:  0.100D+01
 Coeff:      0.100D+01
 Gap=     0.248 Goal=   None    Shift=    0.000
 RMSDP=3.87D-06 MaxDP=6.42D-05 DE= 1.76D-07 OVMax= 1.24D-04

 Cycle   9  Pass 1  IDiag  1:
 E= -193.108303991859     Delta-E=        0.000000043214 Rises=F Damp=F
 DIIS: error= 2.06D-05 at cycle   2 NSaved=   2.
 NSaved= 2 IEnMin= 1 EnMin= -193.108304035073     IErMin= 1 ErrMin= 1.25D-05
 ErrMax= 2.06D-05  0.00D+00 EMaxC= 1.00D-01 BMatC= 7.55D-08 BMatP= 3.06D-08
 IDIUse=1 WtCom= 1.00D+00 WtEn= 0.00D+00
 Coeff-Com:  0.614D+00 0.386D+00
 Coeff:      0.614D+00 0.386D+00
 Gap=     0.247 Goal=   None    Shift=    0.000
 RMSDP=1.37D-06 MaxDP=3.15D-05 DE= 4.32D-08 OVMax= 8.26D-05

 Cycle  10  Pass 1  IDiag  1:
 E= -193.108304065560     Delta-E=       -0.000000073701 Rises=F Damp=F
 DIIS: error= 1.46D-06 at cycle   3 NSaved=   3.
 NSaved= 3 IEnMin= 3 EnMin= -193.108304065560     IErMin= 3 ErrMin= 1.46D-06
 ErrMax= 1.46D-06  0.00D+00 EMaxC= 1.00D-01 BMatC= 5.66D-10 BMatP= 3.06D-08
 IDIUse=1 WtCom= 1.00D+00 WtEn= 0.00D+00
 Coeff-Com:  0.226D+00 0.159D+00 0.615D+00
 Coeff:      0.226D+00 0.159D+00 0.615D+00
 Gap=     0.247 Goal=   None    Shift=    0.000
 RMSDP=1.71D-07 MaxDP=4.53D-06 DE=-7.37D-08 OVMax= 1.11D-05

 Cycle  11  Pass 1  IDiag  1:
 E= -193.108304065938     Delta-E=       -0.000000000377 Rises=F Damp=F
 DIIS: error= 9.03D-07 at cycle   4 NSaved=   4.
 NSaved= 4 IEnMin= 4 EnMin= -193.108304065938     IErMin= 4 ErrMin= 9.03D-07
 ErrMax= 9.03D-07  0.00D+00 EMaxC= 1.00D-01 BMatC= 1.67D-10 BMatP= 5.66D-10
 IDIUse=1 WtCom= 1.00D+00 WtEn= 0.00D+00
 Coeff-Com:  0.485D-01 0.410D-01 0.368D+00 0.542D+00
 Coeff:      0.485D-01 0.410D-01 0.368D+00 0.542D+00
 Gap=     0.247 Goal=   None    Shift=    0.000
 RMSDP=7.53D-08 MaxDP=1.96D-06 DE=-3.77D-10 OVMax= 5.07D-06

 Cycle  12  Pass 1  IDiag  1:
 E= -193.108304066087     Delta-E=       -0.000000000149 Rises=F Damp=F
 DIIS: error= 3.06D-07 at cycle   5 NSaved=   5.
 NSaved= 5 IEnMin= 5 EnMin= -193.108304066087     IErMin= 5 ErrMin= 3.06D-07
 ErrMax= 3.06D-07  0.00D+00 EMaxC= 1.00D-01 BMatC= 1.00D-11 BMatP= 1.67D-10
 IDIUse=1 WtCom= 1.00D+00 WtEn= 0.00D+00
 Coeff-Com: -0.444D-03 0.348D-02 0.112D+00 0.267D+00 0.618D+00
 Coeff:     -0.444D-03 0.348D-02 0.112D+00 0.267D+00 0.618D+00
 Gap=     0.247 Goal=   None    Shift=    0.000
 RMSDP=2.34D-08 MaxDP=3.90D-07 DE=-1.49D-10 OVMax= 1.05D-06

 Cycle  13  Pass 1  IDiag  1:
 E= -193.108304066098     Delta-E=       -0.000000000012 Rises=F Damp=F
 DIIS: error= 4.04D-08 at cycle   6 NSaved=   6.
 NSaved= 6 IEnMin= 6 EnMin= -193.108304066098     IErMin= 6 ErrMin= 4.04D-08
 ErrMax= 4.04D-08  0.00D+00 EMaxC= 1.00D-01 BMatC= 2.99D-13 BMatP= 1.00D-11
 IDIUse=1 WtCom= 1.00D+00 WtEn= 0.00D+00
 Coeff-Com: -0.145D-02 0.626D-03 0.430D-01 0.110D+00 0.287D+00 0.561D+00
 Coeff:     -0.145D-02 0.626D-03 0.430D-01 0.110D+00 0.287D+00 0.561D+00
 Gap=     0.247 Goal=   None    Shift=    0.000
 RMSDP=3.61D-09 MaxDP=5.80D-08 DE=-1.18D-11 OVMax= 1.54D-07

 SCF Done:  E(RB-LYP) =  -193.108304066     A.U. after   13 cycles
            NFock= 13  Conv=0.36D-08     -V/T= 2.0037
 KE= 1.923995229327D+02 PE=-6.998412802826D+02 EE= 1.898880577181D+02
 Leave Link  502 at Sat Mar 16 14:05:42 2019, MaxMem=   104857600 cpu:              71.3 elap:               8.0
 (Enter /util/academic/gaussian/g16.A03/x86-64-SSE4_2/g16/l601.exe)
 Copying SCF densities to generalized density rwf, IOpCl= 0 IROHF=0.

 **********************************************************************

            Population analysis using the SCF density.

 **********************************************************************

 Alpha  occ. eigenvalues --  -18.78175  -9.96238  -9.95569  -9.90850  -0.98215
 Alpha  occ. eigenvalues --   -0.66834  -0.58675  -0.53067  -0.45075  -0.41706
 Alpha  occ. eigenvalues --   -0.37830  -0.35583  -0.33163  -0.32223  -0.26075
 Alpha  occ. eigenvalues --   -0.22177
 Alpha virt. eigenvalues --    0.02572   0.04870   0.05057   0.05082   0.07054
 Alpha virt. eigenvalues --    0.08659   0.09275   0.10237   0.13947   0.17088
 Alpha virt. eigenvalues --    0.19943   0.20238   0.23713   0.24869   0.26966
 Alpha virt. eigenvalues --    0.29020   0.30250   0.33664   0.36247   0.37154
 Alpha virt. eigenvalues --    0.38657   0.39334   0.39905   0.41424   0.42506
 Alpha virt. eigenvalues --    0.44444   0.45738   0.46721   0.50637   0.53811
 Alpha virt. eigenvalues --    0.66071   0.67564   0.70917   0.76201   0.79665
 Alpha virt. eigenvalues --    0.83595   0.85649   0.87296   0.92316   0.96196
 Alpha virt. eigenvalues --    0.99232   1.01601   1.04389   1.07977   1.10530
 Alpha virt. eigenvalues --    1.15061   1.21685   1.35192   1.41592   1.43453
 Alpha virt. eigenvalues --    1.44287   1.44849   1.47286   1.47884   1.51356
 Alpha virt. eigenvalues --    1.53979   1.57400   1.60023   1.64335   1.68728
 Alpha virt. eigenvalues --    1.70261   1.79310   1.81531   1.84790   1.86470
 Alpha virt. eigenvalues --    1.93732   1.99347   2.00199   2.08087   2.08909
 Alpha virt. eigenvalues --    2.17299   2.20468   2.23211   2.24444   2.26884
 Alpha virt. eigenvalues --    2.28276   2.34442   2.38963   2.45676   2.46993
 Alpha virt. eigenvalues --    2.47892   2.52501   2.53486   2.55971   2.61371
 Alpha virt. eigenvalues --    2.64985   2.67673   2.71411   2.74307   2.81816
 Alpha virt. eigenvalues --    2.83445   2.85750   2.90016   2.96756   2.97279
 Alpha virt. eigenvalues --    2.99273   3.01208   3.03427   3.06317   3.14966
 Alpha virt. eigenvalues --    3.16786   3.19617   3.27997   3.30479   3.32020
 Alpha virt. eigenvalues --    3.35632   3.38616   3.43454   3.46036   3.56619
 Alpha virt. eigenvalues --    3.58309   3.64046   3.76681   3.78994   3.88306
 Alpha virt. eigenvalues --    3.89938   3.98940   4.04722   4.14301   4.19480
 Alpha virt. eigenvalues --    4.25380   4.28418   4.34423   4.46424   4.55806
 Alpha virt. eigenvalues --    4.57131   4.74276   4.78236   5.20287   5.37519
 Alpha virt. eigenvalues --    5.62192   5.64426   5.71795   5.81319   5.95454
 Alpha virt. eigenvalues --    6.48835   6.53360   6.69650   6.85012   7.05393
 Alpha virt. eigenvalues --   21.95423  21.97878  22.14071  43.44353
          Condensed to atoms (all electrons):
               1          2          3          4          5          6
     1  O    8.070246   0.183454   0.219462  -0.041450  -0.032420  -0.038669
     2  C    0.183454   4.847732   0.317053   0.330787   0.400449  -0.037216
     3  C    0.219462   0.317053   4.793517  -0.047740  -0.036947   0.392545
     4  C   -0.041450   0.330787  -0.047740   4.958866  -0.066971  -0.001870
     5  H   -0.032420   0.400449  -0.036947  -0.066971   0.640242   0.003471
     6  H   -0.038669  -0.037216   0.392545  -0.001870   0.003471   0.661805
     7  H   -0.043801  -0.017477   0.376670   0.009043   0.000171  -0.065249
     8  H    0.008178  -0.034498  -0.004301   0.367353   0.005219   0.001626
     9  H   -0.005173  -0.039277   0.011295   0.400887  -0.006161  -0.000681
    10  H    0.008041  -0.053269   0.004251   0.393475   0.008615   0.000958
               7          8          9         10
     1  O   -0.043801   0.008178  -0.005173   0.008041
     2  C   -0.017477  -0.034498  -0.039277  -0.053269
     3  C    0.376670  -0.004301   0.011295   0.004251
     4  C    0.009043   0.367353   0.400887   0.393475
     5  H    0.000171   0.005219  -0.006161   0.008615
     6  H   -0.065249   0.001626  -0.000681   0.000958
     7  H    0.662696  -0.002630   0.000155  -0.000651
     8  H   -0.002630   0.618009  -0.033395  -0.019298
     9  H    0.000155  -0.033395   0.593743  -0.028070
    10  H   -0.000651  -0.019298  -0.028070   0.581252
 Mulliken charges:
               1
     1  O   -0.327866
     2  C    0.102262
     3  C   -0.025807
     4  C   -0.302381
     5  H    0.084332
     6  H    0.083279
     7  H    0.081073
     8  H    0.093735
     9  H    0.106677
    10  H    0.104696
 Sum of Mulliken charges =  -0.00000
 Mulliken charges with hydrogens summed into heavy atoms:
               1
     1  O   -0.327866
     2  C    0.186593
     3  C    0.138545
     4  C    0.002728
 Electronic spatial extent (au):  <R**2>=            279.1840
 Charge=              0.0000 electrons
 Dipole moment (field-independent basis, Debye):
    X=              1.6174    Y=              0.7657    Z=             -0.1319  Tot=              1.7943
 Quadrupole moment (field-independent basis, Debye-Ang):
   XX=            -26.8871   YY=            -24.1224   ZZ=            -24.5538
   XY=             -1.4524   XZ=              0.1867   YZ=              0.2848
 Traceless Quadrupole moment (field-independent basis, Debye-Ang):
   XX=             -1.6993   YY=              1.0654   ZZ=              0.6340
   XY=             -1.4524   XZ=              0.1867   YZ=              0.2848
 Octapole moment (field-independent basis, Debye-Ang**2):
  XXX=            -18.6878  YYY=             -4.9350  ZZZ=             16.1698  XYY=             -7.5902
  XXY=             -1.5714  XXZ=              4.7606  XZZ=             -6.9580  YZZ=             -0.6471
  YYZ=              5.0141  XYZ=             -0.3735
 Hexadecapole moment (field-independent basis, Debye-Ang**3):
 XXXX=           -141.5950 YYYY=           -108.4441 ZZZZ=           -126.9003 XXXY=             21.3851
 XXXZ=             36.0086 YYYX=             19.7939 YYYZ=            -20.9204 ZZZX=             38.4648
 ZZZY=            -22.1785 XXYY=            -43.9999 XXZZ=            -46.5044 YYZZ=            -38.2864
 XXYZ=             -7.9336 YYXZ=             12.3332 ZZXY=              6.1336
 N-N= 1.244453955657D+02 E-N=-6.998412778265D+02  KE= 1.923995229327D+02
 No NMR shielding tensors so no spin-rotation constants.
 Leave Link  601 at Sat Mar 16 14:05:43 2019, MaxMem=   104857600 cpu:               3.8 elap:               0.5
 (Enter /util/academic/gaussian/g16.A03/x86-64-SSE4_2/g16/l701.exe)
 ... and contract with generalized density number  0.
 Compute integral first derivatives.
   1 Symmetry operations used in ECPInt.
 ECPInt:  NShTT=    2346 NPrTT=    6892 LenC2=    2340 LenP2D=    5998.
 LDataN:  DoStor=T MaxTD1= 7 Len=  274
 Leave Link  701 at Sat Mar 16 14:05:44 2019, MaxMem=   104857600 cpu:               3.3 elap:               0.5
 (Enter /util/academic/gaussian/g16.A03/x86-64-SSE4_2/g16/l702.exe)
 L702 exits ... SP integral derivatives will be done elsewhere.
 Leave Link  702 at Sat Mar 16 14:05:44 2019, MaxMem=   104857600 cpu:               0.5 elap:               0.1
 (Enter /util/academic/gaussian/g16.A03/x86-64-SSE4_2/g16/l703.exe)
 Integral derivatives from FoFJK, PRISM(SPDF).
 Compute integral first derivatives, UseDBF=F ICtDFT=           0.
 Calling FoFJK, ICntrl=      2527 FMM=F ISym2X=0 I1Cent= 0 IOpClX= 0 NMat=1 NMatS=1 NMatT=0.
 FoFJK:  IHMeth= 1 ICntrl=    2527 DoSepK=F KAlg= 0 I1Cent=           0 FoldK=F
 IRaf=         0 NMat=       1 IRICut=       1 DoRegI=T DoRafI=F ISym2E= 0 IDoP0=0 IntGTp=1.
 FoFCou: FMM=F IPFlag=           0 FMFlag=      100000 FMFlg1=         800
         NFxFlg=           0 DoJE=F BraDBF=F KetDBF=F FulRan=T
         wScrn=  0.000000 ICntrl=      2527 IOpCl=  0 I1Cent=           0 NGrid=           0
         NMat0=    1 NMatS0=      1 NMatT0=    0 NMatD0=    1 NMtDS0=    0 NMtDT0=    0
 Symmetry not used in FoFCou.
 Leave Link  703 at Sat Mar 16 14:05:47 2019, MaxMem=   104857600 cpu:              33.0 elap:               2.8
 (Enter /util/academic/gaussian/g16.A03/x86-64-SSE4_2/g16/l716.exe)
 Dipole        = 6.36335644D-01 3.01249928D-01-5.18822495D-02
 -------------------------------------------------------------------
 Center     Atomic                   Forces (Hartrees/Bohr)
 Number     Number              X              Y              Z
 -------------------------------------------------------------------
      1        8          -0.021437969   -0.012875598   -0.000290412
      2        6           0.016007250   -0.002562732    0.002905931
      3        6           0.005015021    0.018710680    0.002751796
      4        6           0.002177137   -0.001756009   -0.005442096
      5        1          -0.001426775    0.001529745   -0.002629811
      6        1           0.000089885   -0.001509784   -0.003824509
      7        1           0.000591693   -0.002557935    0.003166400
      8        1          -0.003646482   -0.001011449    0.000133161
      9        1           0.000478948    0.003656121    0.000508151
     10        1           0.002151293   -0.001623040    0.002721389
 -------------------------------------------------------------------
 Cartesian Forces:  Max     0.021437969 RMS     0.006843328
 Leave Link  716 at Sat Mar 16 14:05:47 2019, MaxMem=   104857600 cpu:               0.5 elap:               0.1
 (Enter /util/academic/gaussian/g16.A03/x86-64-SSE4_2/g16/l103.exe)

 GradGradGradGradGradGradGradGradGradGradGradGradGradGradGradGradGradGrad
 Berny optimization.
 FormGI is forming the generalized inverse of G from B-inverse, IUseBI=4.
 Internal  Forces:  Max     0.015207560 RMS     0.003636725
 Search for a local minimum.
 Step number   1 out of a maximum of   49
 All quantities printed in internal units (Hartrees-Bohrs-Radians)
 RMS Force = .36367D-02 SwitMx=.10000D-02 MixMth= 1
 Mixed Optimization -- RFO/linear search
 Second derivative matrix not updated -- first step.
 ITU=  0
     Eigenvalues ---    0.00655   0.02338   0.03313   0.04431   0.05735
     Eigenvalues ---    0.05802   0.14011   0.15679   0.16000   0.16000
     Eigenvalues ---    0.16000   0.16000   0.16000   0.19584   0.31514
     Eigenvalues ---    0.31696   0.33067   0.33100   0.33282   0.33408
     Eigenvalues ---    0.33546   0.33565   0.36842   0.41582
 RFO step:  Lambda=-1.32144390D-03 EMin= 6.55131216D-03
 Linear search not attempted -- first point.
 Iteration  1 RMS(Cart)=  0.00888543 RMS(Int)=  0.00003732
 Iteration  2 RMS(Cart)=  0.00003477 RMS(Int)=  0.00001731
 Iteration  3 RMS(Cart)=  0.00000000 RMS(Int)=  0.00001731
 ITry= 1 IFail=0 DXMaxC= 3.74D-02 DCOld= 1.00D+10 DXMaxT= 3.00D-01 DXLimC= 3.00D+00 Rises=F
 Variable       Old X    -DE/DX   Delta X   Delta X   Delta X     New X
                                 (Linear)    (Quad)   (Total)
    R1        2.69117   0.01521   0.00000   0.03511   0.03510   2.72627
    R2        2.68487   0.01312   0.00000   0.03418   0.03422   2.71909
    R3        2.78066   0.00310   0.00000   0.00618   0.00616   2.78682
    R4        2.85042   0.00248   0.00000   0.00784   0.00784   2.85826
    R5        2.08341  -0.00335   0.00000  -0.01000  -0.01000   2.07340
    R6        2.08071  -0.00411   0.00000  -0.01219  -0.01219   2.06852
    R7        2.08103  -0.00411   0.00000  -0.01221  -0.01221   2.06882
    R8        2.08933  -0.00379   0.00000  -0.01141  -0.01141   2.07793
    R9        2.08876  -0.00371   0.00000  -0.01116  -0.01116   2.07759
   R10        2.08560  -0.00381   0.00000  -0.01141  -0.01141   2.07418
    A1        2.03997  -0.00068   0.00000   0.00268   0.00271   2.04268
    A2        1.98220  -0.00027   0.00000  -0.00019  -0.00018   1.98203
    A3        2.14204  -0.00031   0.00000   0.00096   0.00098   2.14301
    A4        2.04430  -0.00016   0.00000  -0.00295  -0.00297   2.04133
    A5        2.00999   0.00016   0.00000  -0.00175  -0.00178   2.00821
    A6        2.01967  -0.00072   0.00000  -0.00059  -0.00058   2.01909
    A7        2.01779  -0.00090   0.00000   0.00018   0.00022   2.01801
    A8        2.09533   0.00028   0.00000   0.00121   0.00121   2.09654
    A9        2.08423  -0.00003   0.00000  -0.00147  -0.00148   2.08275
   A10        2.00673  -0.00047   0.00000  -0.00190  -0.00189   2.00484
   A11        1.93438  -0.00020   0.00000  -0.00224  -0.00223   1.93215
   A12        1.92907   0.00027   0.00000   0.00214   0.00214   1.93121
   A13        1.93339   0.00034   0.00000   0.00260   0.00259   1.93598
   A14        1.88289  -0.00015   0.00000  -0.00191  -0.00191   1.88098
   A15        1.89711  -0.00018   0.00000  -0.00205  -0.00205   1.89505
   A16        1.88544  -0.00009   0.00000   0.00138   0.00137   1.88681
    D1       -2.66139   0.00061   0.00000   0.00783   0.00782  -2.65358
    D2       -0.00127  -0.00002   0.00000   0.00229   0.00229   0.00103
    D3        0.02294  -0.00010   0.00000  -0.00196  -0.00196   0.02099
    D4        2.68307  -0.00073   0.00000  -0.00751  -0.00748   2.67559
    D5        2.87432   0.00099   0.00000   0.00274   0.00272   2.87703
    D6       -1.32222   0.00084   0.00000   0.00030   0.00027  -1.32195
    D7        0.76698   0.00112   0.00000   0.00509   0.00507   0.77205
    D8        1.67794  -0.00088   0.00000  -0.00639  -0.00637   1.67158
    D9       -2.51859  -0.00102   0.00000  -0.00883  -0.00881  -2.52740
   D10       -0.42940  -0.00074   0.00000  -0.00404  -0.00401  -0.43341
   D11       -1.01460  -0.00010   0.00000   0.00354   0.00355  -1.01105
   D12        1.07206  -0.00025   0.00000   0.00110   0.00110   1.07315
   D13       -3.12194   0.00004   0.00000   0.00589   0.00590  -3.11604
         Item               Value     Threshold  Converged?
 Maximum Force            0.015208     0.000002     NO 
 RMS     Force            0.003637     0.000001     NO 
 Maximum Displacement     0.037352     0.000006     NO 
 RMS     Displacement     0.008885     0.000004     NO 
 Predicted change in Energy=-6.627944D-04
 Lowest energy point so far.  Saving SCF results.
 GradGradGradGradGradGradGradGradGradGradGradGradGradGradGradGradGradGrad

 Leave Link  103 at Sat Mar 16 14:05:47 2019, MaxMem=   104857600 cpu:               1.4 elap:               0.2
 (Enter /util/academic/gaussian/g16.A03/x86-64-SSE4_2/g16/l202.exe)
                          Input orientation:                          
 ---------------------------------------------------------------------
 Center     Atomic      Atomic             Coordinates (Angstroms)
 Number     Number       Type             X           Y           Z
 ---------------------------------------------------------------------
      1          8           0       -0.871330   -0.177463    0.205752
      2          6           0        0.568859   -0.159931    0.122832
      3          6           0       -0.192619    1.084159    0.340081
      4          6           0        1.185218   -0.520709   -1.210465
      5          1           0        1.063936   -0.599346    0.997850
      6          1           0       -0.229376    1.539101    1.334997
      7          1           0       -0.325172    1.783947   -0.491337
      8          1           0        2.242474   -0.220394   -1.243981
      9          1           0        1.139274   -1.606346   -1.377781
     10          1           0        0.654836   -0.025866   -2.034220
 ---------------------------------------------------------------------
                    Distance matrix (angstroms):
                    1          2          3          4          5
     1  O    0.000000
     2  C    1.442680   0.000000
     3  C    1.438882   1.474722   0.000000
     4  C    2.520491   1.512527   2.622637   0.000000
     5  H    2.133227   1.097198   2.201313   2.213040   0.000000
     6  H    2.152647   2.234554   1.094614   3.566968   2.521761
     7  H    2.152057   2.226018   1.094774   2.847782   3.134866
     8  H    3.435017   2.161671   3.184460   1.099592   2.560930
     9  H    2.931179   2.160863   3.458874   1.099415   2.581346
    10  H    2.714708   2.162923   2.754567   1.097610   3.112827
                    6          7          8          9         10
     6  H    0.000000
     7  H    1.845162   0.000000
     8  H    3.982083   3.343152   0.000000
     9  H    4.373351   3.797957   1.776462   0.000000
    10  H    3.818713   2.572222   1.784073   1.778626   0.000000
 Symmetry turned off by external request.
 Stoichiometry    C3H6O
 Framework group  C1[X(C3H6O)]
 Deg. of freedom    24
 Full point group                 C1      NOp   1
 Rotational constants (GHZ):          18.0143926           6.5565785           5.8422036
 Leave Link  202 at Sat Mar 16 14:05:48 2019, MaxMem=   104857600 cpu:               0.3 elap:               0.0
 (Enter /util/academic/gaussian/g16.A03/x86-64-SSE4_2/g16/l301.exe)
 Standard basis: def2TZVP (5D, 7F)
 Ernie: Thresh=  0.10000D-02 Tol=  0.10000D-05 Strict=F.
   160 basis functions,   252 primitive gaussians,   180 cartesian basis functions
    16 alpha electrons       16 beta electrons
       nuclear repulsion energy       123.8690366895 Hartrees.
 IExCor=  402 DFT=T Ex=B Corr=LYP ExCW=0 ScaHFX=  0.000000
 ScaDFX=  1.000000  1.000000  1.000000  1.000000 ScalE2=  1.000000  1.000000
 IRadAn=      5 IRanWt=     -1 IRanGd=            0 ICorTp=0 IEmpDi=  4
 NAtoms=   10 NActive=   10 NUniq=   10 SFac= 1.00D+00 NAtFMM=   60 NAOKFM=F Big=F
 Integral buffers will be    131072 words long.
 Raffenetti 2 integral format.
 Two-electron integral symmetry is turned off.
 Leave Link  301 at Sat Mar 16 14:05:48 2019, MaxMem=   104857600 cpu:               0.8 elap:               0.1
 (Enter /util/academic/gaussian/g16.A03/x86-64-SSE4_2/g16/l302.exe)
 NPDir=0 NMtPBC=     1 NCelOv=     1 NCel=       1 NClECP=     1 NCelD=      1
         NCelK=      1 NCelE2=     1 NClLst=     1 CellRange=     0.0.
 One-electron integrals computed using PRISM.
   1 Symmetry operations used in ECPInt.
 ECPInt:  NShTT=    2346 NPrTT=    6892 LenC2=    2340 LenP2D=    5994.
 LDataN:  DoStor=T MaxTD1= 6 Len=  172
 NBasis=   160 RedAO= T EigKep=  2.99D-04  NBF=   160
 NBsUse=   160 1.00D-06 EigRej= -1.00D+00 NBFU=   160
 Precomputing XC quadrature grid using
 IXCGrd= 4 IRadAn=           5 IRanWt=          -1 IRanGd=           0 AccXCQ= 0.00D+00.
 Generated NRdTot=       0 NPtTot=           0 NUsed=           0 NTot=          32
 NSgBfM=   180   180   180   180   180 MxSgAt=    10 MxSgA2=    10.
 Leave Link  302 at Sat Mar 16 14:05:48 2019, MaxMem=   104857600 cpu:               2.4 elap:               0.2
 (Enter /util/academic/gaussian/g16.A03/x86-64-SSE4_2/g16/l303.exe)
 DipDrv:  MaxL=1.
 Leave Link  303 at Sat Mar 16 14:05:48 2019, MaxMem=   104857600 cpu:               0.6 elap:               0.1
 (Enter /util/academic/gaussian/g16.A03/x86-64-SSE4_2/g16/l401.exe)
 Initial guess from the checkpoint file:  "chk.chk"
 B after Tr=    -0.008131   -0.002676    0.001808
         Rot=    1.000000   -0.000269    0.000119    0.000091 Ang=  -0.04 deg.
 Guess basis will be translated and rotated to current coordinates.
 JPrj=2 DoOrth=T DoCkMO=T.
 Generating alternative initial guess.
 ExpMin= 9.52D-02 ExpMax= 2.70D+04 ExpMxC= 9.22D+02 IAcc=2 IRadAn=         4 AccDes= 0.00D+00
 Harris functional with IExCor=  402 and IRadAn=       4 diagonalized for initial guess.
 HarFok:  IExCor=  402 AccDes= 0.00D+00 IRadAn=         4 IDoV= 1 UseB2=F ITyADJ=14
 ICtDFT=  3500011 ScaDFX=  1.000000  1.000000  1.000000  1.000000
 FoFCou: FMM=F IPFlag=           0 FMFlag=      100000 FMFlg1=           0
         NFxFlg=           0 DoJE=T BraDBF=F KetDBF=T FulRan=T
         wScrn=  0.000000 ICntrl=       500 IOpCl=  0 I1Cent=   200000004 NGrid=           0
         NMat0=    1 NMatS0=      1 NMatT0=    0 NMatD0=    1 NMtDS0=    0 NMtDT0=    0
 Symmetry not used in FoFCou.
 Harris En= -193.210389935800    
 Leave Link  401 at Sat Mar 16 14:05:48 2019, MaxMem=   104857600 cpu:               5.6 elap:               0.5
 (Enter /util/academic/gaussian/g16.A03/x86-64-SSE4_2/g16/l502.exe)
 Keep J ints in memory in canonical form, NReq=95053554.
 FoFCou: FMM=F IPFlag=           0 FMFlag=           0 FMFlg1=           0
         NFxFlg=           0 DoJE=F BraDBF=F KetDBF=F FulRan=T
         wScrn=  0.000000 ICntrl=       600 IOpCl=  0 I1Cent=           0 NGrid=           0
         NMat0=    1 NMatS0=  12880 NMatT0=    0 NMatD0=    1 NMtDS0=    0 NMtDT0=    0
 Symmetry not used in FoFCou.
 CoulSu:  requested number of processors reduced to:  10 ShMem   1 Linda.
 Two-electron integral symmetry not used.
 Closed shell SCF:
 Using DIIS extrapolation, IDIIS=  1040.
 NGot=   104857600 LenX=    21835618 LenY=    21802777
 Requested convergence on RMS density matrix=1.00D-08 within 128 cycles.
 Requested convergence on MAX density matrix=1.00D-06.
 Requested convergence on             energy=1.00D-06.
 No special actions if energy rises.
 Integral accuracy reduced to 1.0D-05 until final iterations.

 Cycle   1  Pass 0  IDiag  1:
 E= -193.108812981573    
 DIIS: error= 8.25D-04 at cycle   1 NSaved=   1.
 NSaved= 1 IEnMin= 1 EnMin= -193.108812981573     IErMin= 1 ErrMin= 8.25D-04
 ErrMax= 8.25D-04  0.00D+00 EMaxC= 1.00D-01 BMatC= 3.21D-04 BMatP= 3.21D-04
 IDIUse=3 WtCom= 9.92D-01 WtEn= 8.25D-03
 Coeff-Com:  0.100D+01
 Coeff-En:   0.100D+01
 Coeff:      0.100D+01
 Gap=     0.688 Goal=   None    Shift=    0.000
 RMSDP=1.37D-04 MaxDP=2.68D-03              OVMax= 6.59D-03

 Cycle   2  Pass 0  IDiag  1:
 E= -193.109068067131     Delta-E=       -0.000255085558 Rises=F Damp=F
 DIIS: error= 6.55D-04 at cycle   2 NSaved=   2.
 NSaved= 2 IEnMin= 2 EnMin= -193.109068067131     IErMin= 2 ErrMin= 6.55D-04
 ErrMax= 6.55D-04  0.00D+00 EMaxC= 1.00D-01 BMatC= 1.28D-04 BMatP= 3.21D-04
 IDIUse=3 WtCom= 9.93D-01 WtEn= 6.55D-03
 Coeff-Com:  0.339D+00 0.661D+00
 Coeff-En:   0.000D+00 0.100D+01
 Coeff:      0.336D+00 0.664D+00
 Gap=     0.250 Goal=   None    Shift=    0.000
 RMSDP=1.02D-04 MaxDP=2.65D-03 DE=-2.55D-04 OVMax= 4.86D-03

 Cycle   3  Pass 0  IDiag  1:
 E= -193.109003939357     Delta-E=        0.000064127774 Rises=F Damp=F
 DIIS: error= 9.79D-04 at cycle   3 NSaved=   3.
 NSaved= 3 IEnMin= 2 EnMin= -193.109068067131     IErMin= 2 ErrMin= 6.55D-04
 ErrMax= 9.79D-04  0.00D+00 EMaxC= 1.00D-01 BMatC= 2.13D-04 BMatP= 1.28D-04
 IDIUse=3 WtCom= 2.42D-01 WtEn= 7.58D-01
 Coeff-Com:  0.349D-01 0.552D+00 0.413D+00
 Coeff-En:   0.000D+00 0.597D+00 0.403D+00
 Coeff:      0.846D-02 0.586D+00 0.406D+00
 Gap=     0.247 Goal=   None    Shift=    0.000
 RMSDP=6.53D-05 MaxDP=1.49D-03 DE= 6.41D-05 OVMax= 2.89D-03

 Cycle   4  Pass 0  IDiag  1:
 E= -193.109154618526     Delta-E=       -0.000150679169 Rises=F Damp=F
 DIIS: error= 1.00D-04 at cycle   4 NSaved=   4.
 NSaved= 4 IEnMin= 4 EnMin= -193.109154618526     IErMin= 4 ErrMin= 1.00D-04
 ErrMax= 1.00D-04  0.00D+00 EMaxC= 1.00D-01 BMatC= 2.68D-06 BMatP= 1.28D-04
 IDIUse=3 WtCom= 9.99D-01 WtEn= 1.00D-03
 Coeff-Com:  0.549D-02 0.276D+00 0.183D+00 0.536D+00
 Coeff-En:   0.000D+00 0.000D+00 0.000D+00 0.100D+01
 Coeff:      0.549D-02 0.275D+00 0.183D+00 0.536D+00
 Gap=     0.247 Goal=   None    Shift=    0.000
 RMSDP=7.72D-06 MaxDP=2.16D-04 DE=-1.51D-04 OVMax= 4.07D-04

 Initial convergence to 1.0D-05 achieved.  Increase integral accuracy.
 Cycle   5  Pass 1  IDiag  1:
 E= -193.109156127125     Delta-E=       -0.000001508599 Rises=F Damp=F
 DIIS: error= 3.15D-05 at cycle   1 NSaved=   1.
 NSaved= 1 IEnMin= 1 EnMin= -193.109156127125     IErMin= 1 ErrMin= 3.15D-05
 ErrMax= 3.15D-05  0.00D+00 EMaxC= 1.00D-01 BMatC= 2.93D-07 BMatP= 2.93D-07
 IDIUse=1 WtCom= 1.00D+00 WtEn= 0.00D+00
 Coeff-Com:  0.100D+01
 Coeff:      0.100D+01
 Gap=     0.247 Goal=   None    Shift=    0.000
 RMSDP=7.72D-06 MaxDP=2.16D-04 DE=-1.51D-06 OVMax= 2.94D-04

 Cycle   6  Pass 1  IDiag  1:
 E= -193.109155713820     Delta-E=        0.000000413305 Rises=F Damp=F
 DIIS: error= 5.11D-05 at cycle   2 NSaved=   2.
 NSaved= 2 IEnMin= 1 EnMin= -193.109156127125     IErMin= 1 ErrMin= 3.15D-05
 ErrMax= 5.11D-05  0.00D+00 EMaxC= 1.00D-01 BMatC= 7.41D-07 BMatP= 2.93D-07
 IDIUse=1 WtCom= 1.00D+00 WtEn= 0.00D+00
 Coeff-Com:  0.615D+00 0.385D+00
 Coeff:      0.615D+00 0.385D+00
 Gap=     0.247 Goal=   None    Shift=    0.000
 RMSDP=3.73D-06 MaxDP=9.36D-05 DE= 4.13D-07 OVMax= 2.00D-04

 Cycle   7  Pass 1  IDiag  1:
 E= -193.109156396192     Delta-E=       -0.000000682372 Rises=F Damp=F
 DIIS: error= 2.92D-06 at cycle   3 NSaved=   3.
 NSaved= 3 IEnMin= 3 EnMin= -193.109156396192     IErMin= 3 ErrMin= 2.92D-06
 ErrMax= 2.92D-06  0.00D+00 EMaxC= 1.00D-01 BMatC= 4.07D-09 BMatP= 2.93D-07
 IDIUse=1 WtCom= 1.00D+00 WtEn= 0.00D+00
 Coeff-Com:  0.294D+00 0.190D+00 0.516D+00
 Coeff:      0.294D+00 0.190D+00 0.516D+00
 Gap=     0.247 Goal=   None    Shift=    0.000
 RMSDP=3.84D-07 MaxDP=1.03D-05 DE=-6.82D-07 OVMax= 2.29D-05

 Cycle   8  Pass 1  IDiag  1:
 E= -193.109156398114     Delta-E=       -0.000000001922 Rises=F Damp=F
 DIIS: error= 2.62D-06 at cycle   4 NSaved=   4.
 NSaved= 4 IEnMin= 4 EnMin= -193.109156398114     IErMin= 4 ErrMin= 2.62D-06
 ErrMax= 2.62D-06  0.00D+00 EMaxC= 1.00D-01 BMatC= 1.46D-09 BMatP= 4.07D-09
 IDIUse=1 WtCom= 1.00D+00 WtEn= 0.00D+00
 Coeff-Com:  0.119D+00 0.788D-01 0.376D+00 0.426D+00
 Coeff:      0.119D+00 0.788D-01 0.376D+00 0.426D+00
 Gap=     0.247 Goal=   None    Shift=    0.000
 RMSDP=2.11D-07 MaxDP=4.78D-06 DE=-1.92D-09 OVMax= 8.25D-06

 Cycle   9  Pass 1  IDiag  1:
 E= -193.109156399200     Delta-E=       -0.000000001086 Rises=F Damp=F
 DIIS: error= 5.32D-07 at cycle   5 NSaved=   5.
 NSaved= 5 IEnMin= 5 EnMin= -193.109156399200     IErMin= 5 ErrMin= 5.32D-07
 ErrMax= 5.32D-07  0.00D+00 EMaxC= 1.00D-01 BMatC= 7.06D-11 BMatP= 1.46D-09
 IDIUse=1 WtCom= 1.00D+00 WtEn= 0.00D+00
 Coeff-Com:  0.508D-01 0.342D-01 0.184D+00 0.255D+00 0.476D+00
 Coeff:      0.508D-01 0.342D-01 0.184D+00 0.255D+00 0.476D+00
 Gap=     0.247 Goal=   None    Shift=    0.000
 RMSDP=4.75D-08 MaxDP=1.13D-06 DE=-1.09D-09 OVMax= 3.16D-06

 Cycle  10  Pass 1  IDiag  1:
 E= -193.109156399247     Delta-E=       -0.000000000047 Rises=F Damp=F
 DIIS: error= 2.01D-07 at cycle   6 NSaved=   6.
 NSaved= 6 IEnMin= 6 EnMin= -193.109156399247     IErMin= 6 ErrMin= 2.01D-07
 ErrMax= 2.01D-07  0.00D+00 EMaxC= 1.00D-01 BMatC= 1.23D-11 BMatP= 7.06D-11
 IDIUse=1 WtCom= 1.00D+00 WtEn= 0.00D+00
 Coeff-Com:  0.252D-02 0.214D-02 0.255D-01 0.634D-01 0.314D+00 0.593D+00
 Coeff:      0.252D-02 0.214D-02 0.255D-01 0.634D-01 0.314D+00 0.593D+00
 Gap=     0.247 Goal=   None    Shift=    0.000
 RMSDP=1.51D-08 MaxDP=3.85D-07 DE=-4.73D-11 OVMax= 1.20D-06

 Cycle  11  Pass 1  IDiag  1:
 E= -193.109156399258     Delta-E=       -0.000000000011 Rises=F Damp=F
 DIIS: error= 1.46D-08 at cycle   7 NSaved=   7.
 NSaved= 7 IEnMin= 7 EnMin= -193.109156399258     IErMin= 7 ErrMin= 1.46D-08
 ErrMax= 1.46D-08  0.00D+00 EMaxC= 1.00D-01 BMatC= 8.19D-14 BMatP= 1.23D-11
 IDIUse=1 WtCom= 1.00D+00 WtEn= 0.00D+00
 Coeff-Com:  0.820D-04 0.201D-03 0.453D-02 0.168D-01 0.921D-01 0.200D+00
 Coeff-Com:  0.686D+00
 Coeff:      0.820D-04 0.201D-03 0.453D-02 0.168D-01 0.921D-01 0.200D+00
 Coeff:      0.686D+00
 Gap=     0.247 Goal=   None    Shift=    0.000
 RMSDP=2.97D-09 MaxDP=4.80D-08 DE=-1.09D-11 OVMax= 1.15D-07

 SCF Done:  E(RB-LYP) =  -193.109156399     A.U. after   11 cycles
            NFock= 11  Conv=0.30D-08     -V/T= 2.0038
 KE= 1.923812021085D+02 PE=-6.987052931448D+02 EE= 1.893458979475D+02
 Leave Link  502 at Sat Mar 16 14:05:56 2019, MaxMem=   104857600 cpu:              65.8 elap:               7.1
 (Enter /util/academic/gaussian/g16.A03/x86-64-SSE4_2/g16/l701.exe)
 ... and contract with generalized density number  0.
 Compute integral first derivatives.
   1 Symmetry operations used in ECPInt.
 ECPInt:  NShTT=    2346 NPrTT=    6892 LenC2=    2340 LenP2D=    5994.
 LDataN:  DoStor=T MaxTD1= 7 Len=  274
 Leave Link  701 at Sat Mar 16 14:05:56 2019, MaxMem=   104857600 cpu:               2.2 elap:               0.2
 (Enter /util/academic/gaussian/g16.A03/x86-64-SSE4_2/g16/l702.exe)
 L702 exits ... SP integral derivatives will be done elsewhere.
 Leave Link  702 at Sat Mar 16 14:05:56 2019, MaxMem=   104857600 cpu:               0.5 elap:               0.1
 (Enter /util/academic/gaussian/g16.A03/x86-64-SSE4_2/g16/l703.exe)
 Integral derivatives from FoFJK, PRISM(SPDF).
 Compute integral first derivatives, UseDBF=F ICtDFT=           0.
 Calling FoFJK, ICntrl=      2527 FMM=F ISym2X=0 I1Cent= 0 IOpClX= 0 NMat=1 NMatS=1 NMatT=0.
 FoFJK:  IHMeth= 1 ICntrl=    2527 DoSepK=F KAlg= 0 I1Cent=           0 FoldK=F
 IRaf=         0 NMat=       1 IRICut=       1 DoRegI=T DoRafI=F ISym2E= 0 IDoP0=0 IntGTp=1.
 FoFCou: FMM=F IPFlag=           0 FMFlag=      100000 FMFlg1=         800
         NFxFlg=           0 DoJE=F BraDBF=F KetDBF=F FulRan=T
         wScrn=  0.000000 ICntrl=      2527 IOpCl=  0 I1Cent=           0 NGrid=           0
         NMat0=    1 NMatS0=      1 NMatT0=    0 NMatD0=    1 NMtDS0=    0 NMtDT0=    0
 Symmetry not used in FoFCou.
 Leave Link  703 at Sat Mar 16 14:05:58 2019, MaxMem=   104857600 cpu:              31.0 elap:               2.6
 (Enter /util/academic/gaussian/g16.A03/x86-64-SSE4_2/g16/l716.exe)
 Dipole        = 6.70802925D-01 3.17093174D-01-5.64001425D-02
 -------------------------------------------------------------------
 Center     Atomic                   Forces (Hartrees/Bohr)
 Number     Number              X              Y              Z
 -------------------------------------------------------------------
      1        8          -0.008031738   -0.005001395   -0.000104048
      2        6           0.006945247    0.000004565   -0.000001428
      3        6           0.003278748    0.006565182    0.000704641
      4        6          -0.000609021   -0.000445080   -0.000846455
      5        1          -0.000913821   -0.000053411   -0.000314446
      6        1          -0.000282277   -0.000703313   -0.000307451
      7        1          -0.000413085   -0.000774766    0.000055317
      8        1          -0.000107421    0.000139645    0.000337504
      9        1           0.000027869    0.000254436    0.000238934
     10        1           0.000105498    0.000014136    0.000237433
 -------------------------------------------------------------------
 Cartesian Forces:  Max     0.008031738 RMS     0.002556813
 Leave Link  716 at Sat Mar 16 14:05:58 2019, MaxMem=   104857600 cpu:               0.2 elap:               0.0
 (Enter /util/academic/gaussian/g16.A03/x86-64-SSE4_2/g16/l103.exe)

 GradGradGradGradGradGradGradGradGradGradGradGradGradGradGradGradGradGrad
 Berny optimization.
 Using GEDIIS/GDIIS optimizer.
 FormGI is forming the generalized inverse of G from B-inverse, IUseBI=4.
 Internal  Forces:  Max     0.005535889 RMS     0.001247889
 Search for a local minimum.
 Step number   2 out of a maximum of   49
 All quantities printed in internal units (Hartrees-Bohrs-Radians)
 RMS Force = .12479D-02 SwitMx=.10000D-02 MixMth= 1
 Mixed Optimization -- RFO/linear search
 Update second derivatives using D2CorX and points    1    2
 DE= -8.52D-04 DEPred=-6.63D-04 R= 1.29D+00
 TightC=F SS=  1.41D+00  RLast= 6.07D-02 DXNew= 5.0454D-01 1.8201D-01
 Trust test= 1.29D+00 RLast= 6.07D-02 DXMaxT set to 3.00D-01
 ITU=  1  0
 Use linear search instead of GDIIS.
     Eigenvalues ---    0.00655   0.02385   0.03336   0.04494   0.05720
     Eigenvalues ---    0.05784   0.13952   0.15500   0.15958   0.16000
     Eigenvalues ---    0.16000   0.16000   0.16048   0.19592   0.26362
     Eigenvalues ---    0.31635   0.32459   0.33098   0.33203   0.33456
     Eigenvalues ---    0.33490   0.33564   0.35480   0.37025
 RFO step:  Lambda=-1.13092179D-04 EMin= 6.55121903D-03
 Quartic linear search produced a step of  0.44404.
 Iteration  1 RMS(Cart)=  0.00428762 RMS(Int)=  0.00003954
 Iteration  2 RMS(Cart)=  0.00003103 RMS(Int)=  0.00002478
 Iteration  3 RMS(Cart)=  0.00000000 RMS(Int)=  0.00002478
 ITry= 1 IFail=0 DXMaxC= 1.15D-02 DCOld= 1.00D+10 DXMaxT= 3.00D-01 DXLimC= 3.00D+00 Rises=F
 Variable       Old X    -DE/DX   Delta X   Delta X   Delta X     New X
                                 (Linear)    (Quad)   (Total)
    R1        2.72627   0.00554   0.01558   0.00593   0.02149   2.74776
    R2        2.71909   0.00502   0.01519   0.00692   0.02216   2.74125
    R3        2.78682   0.00061   0.00273  -0.00038   0.00233   2.78915
    R4        2.85826  -0.00020   0.00348  -0.00360  -0.00012   2.85814
    R5        2.07340  -0.00064  -0.00444   0.00066  -0.00378   2.06962
    R6        2.06852  -0.00056  -0.00541   0.00177  -0.00364   2.06488
    R7        2.06882  -0.00049  -0.00542   0.00209  -0.00333   2.06550
    R8        2.07793  -0.00008  -0.00506   0.00358  -0.00148   2.07645
    R9        2.07759  -0.00029  -0.00496   0.00257  -0.00239   2.07521
   R10        2.07418  -0.00022  -0.00507   0.00295  -0.00212   2.07207
    A1        2.04268  -0.00057   0.00120  -0.00433  -0.00311   2.03957
    A2        1.98203  -0.00032  -0.00008  -0.00909  -0.00919   1.97284
    A3        2.14301  -0.00049   0.00043  -0.00028   0.00015   2.14316
    A4        2.04133   0.00002  -0.00132   0.00407   0.00272   2.04405
    A5        2.00821   0.00047  -0.00079   0.00288   0.00204   2.01025
    A6        2.01909  -0.00061  -0.00026  -0.00777  -0.00804   2.01105
    A7        2.01801  -0.00066   0.00010  -0.00929  -0.00920   2.00881
    A8        2.09654  -0.00006   0.00054   0.00146   0.00194   2.09848
    A9        2.08275   0.00001  -0.00066   0.00328   0.00256   2.08531
   A10        2.00484   0.00024  -0.00084   0.00447   0.00356   2.00840
   A11        1.93215  -0.00052  -0.00099  -0.00487  -0.00587   1.92627
   A12        1.93121  -0.00012   0.00095  -0.00133  -0.00038   1.93082
   A13        1.93598   0.00001   0.00115  -0.00032   0.00083   1.93680
   A14        1.88098   0.00026  -0.00085   0.00211   0.00126   1.88224
   A15        1.89505   0.00021  -0.00091   0.00178   0.00087   1.89592
   A16        1.88681   0.00018   0.00061   0.00292   0.00353   1.89033
    D1       -2.65358  -0.00026   0.00347  -0.01430  -0.01084  -2.66442
    D2        0.00103   0.00025   0.00102   0.00808   0.00910   0.01013
    D3        0.02099  -0.00013  -0.00087   0.00266   0.00180   0.02278
    D4        2.67559   0.00038  -0.00332   0.02505   0.02175   2.69733
    D5        2.87703   0.00042   0.00121   0.00377   0.00494   2.88197
    D6       -1.32195   0.00034   0.00012   0.00240   0.00249  -1.31946
    D7        0.77205   0.00050   0.00225   0.00499   0.00721   0.77925
    D8        1.67158  -0.00021  -0.00283   0.00380   0.00099   1.67257
    D9       -2.52740  -0.00029  -0.00391   0.00243  -0.00146  -2.52887
   D10       -0.43341  -0.00013  -0.00178   0.00501   0.00326  -0.43015
   D11       -1.01105  -0.00023   0.00157  -0.01319  -0.01161  -1.02266
   D12        1.07315  -0.00032   0.00049  -0.01456  -0.01406   1.05909
   D13       -3.11604  -0.00016   0.00262  -0.01197  -0.00934  -3.12538
         Item               Value     Threshold  Converged?
 Maximum Force            0.005536     0.000002     NO 
 RMS     Force            0.001248     0.000001     NO 
 Maximum Displacement     0.011459     0.000006     NO 
 RMS     Displacement     0.004284     0.000004     NO 
 Predicted change in Energy=-1.409442D-04
 Lowest energy point so far.  Saving SCF results.
 GradGradGradGradGradGradGradGradGradGradGradGradGradGradGradGradGradGrad

 Leave Link  103 at Sat Mar 16 14:05:58 2019, MaxMem=   104857600 cpu:               0.3 elap:               0.0
 (Enter /util/academic/gaussian/g16.A03/x86-64-SSE4_2/g16/l202.exe)
                          Input orientation:                          
 ---------------------------------------------------------------------
 Center     Atomic      Atomic             Coordinates (Angstroms)
 Number     Number       Type             X           Y           Z
 ---------------------------------------------------------------------
      1          8           0       -0.877393   -0.180297    0.207820
      2          6           0        0.573975   -0.157555    0.122485
      3          6           0       -0.186667    1.088408    0.340305
      4          6           0        1.185789   -0.521145   -1.212069
      5          1           0        1.061649   -0.603805    0.995694
      6          1           0       -0.229412    1.540323    1.334240
      7          1           0       -0.330086    1.783365   -0.491046
      8          1           0        2.242180   -0.220388   -1.243125
      9          1           0        1.139814   -1.606013   -1.376037
     10          1           0        0.656251   -0.025741   -2.034539
 ---------------------------------------------------------------------
                    Distance matrix (angstroms):
                    1          2          3          4          5
     1  O    0.000000
     2  C    1.454052   0.000000
     3  C    1.450609   1.475956   0.000000
     4  C    2.527644   1.512465   2.623769   0.000000
     5  H    2.135413   1.095198   2.202593   2.212795   0.000000
     6  H    2.156208   2.235301   1.092685   3.568773   2.525617
     7  H    2.154977   2.227312   1.093013   2.851056   3.137818
     8  H    3.440725   2.156791   3.181116   1.098809   2.559877
     9  H    2.934348   2.159577   3.459088   1.098152   2.575973
    10  H    2.721052   2.162613   2.755308   1.096491   3.111400
                    6          7          8          9         10
     6  H    0.000000
     7  H    1.844146   0.000000
     8  H    3.981417   3.346222   0.000000
     9  H    4.372621   3.798908   1.775622   0.000000
    10  H    3.819113   2.574508   1.783085   1.778966   0.000000
 Symmetry turned off by external request.
 Stoichiometry    C3H6O
 Framework group  C1[X(C3H6O)]
 Deg. of freedom    24
 Full point group                 C1      NOp   1
 Rotational constants (GHZ):          17.8483197           6.5438331           5.8165595
 Leave Link  202 at Sat Mar 16 14:05:59 2019, MaxMem=   104857600 cpu:               0.2 elap:               0.0
 (Enter /util/academic/gaussian/g16.A03/x86-64-SSE4_2/g16/l301.exe)
 Standard basis: def2TZVP (5D, 7F)
 Ernie: Thresh=  0.10000D-02 Tol=  0.10000D-05 Strict=F.
   160 basis functions,   252 primitive gaussians,   180 cartesian basis functions
    16 alpha electrons       16 beta electrons
       nuclear repulsion energy       123.5564693769 Hartrees.
 IExCor=  402 DFT=T Ex=B Corr=LYP ExCW=0 ScaHFX=  0.000000
 ScaDFX=  1.000000  1.000000  1.000000  1.000000 ScalE2=  1.000000  1.000000
 IRadAn=      5 IRanWt=     -1 IRanGd=            0 ICorTp=0 IEmpDi=  4
 NAtoms=   10 NActive=   10 NUniq=   10 SFac= 1.00D+00 NAtFMM=   60 NAOKFM=F Big=F
 Integral buffers will be    131072 words long.
 Raffenetti 2 integral format.
 Two-electron integral symmetry is turned off.
 Leave Link  301 at Sat Mar 16 14:05:59 2019, MaxMem=   104857600 cpu:               1.0 elap:               0.1
 (Enter /util/academic/gaussian/g16.A03/x86-64-SSE4_2/g16/l302.exe)
 NPDir=0 NMtPBC=     1 NCelOv=     1 NCel=       1 NClECP=     1 NCelD=      1
         NCelK=      1 NCelE2=     1 NClLst=     1 CellRange=     0.0.
 One-electron integrals computed using PRISM.
   1 Symmetry operations used in ECPInt.
 ECPInt:  NShTT=    2346 NPrTT=    6892 LenC2=    2340 LenP2D=    5991.
 LDataN:  DoStor=T MaxTD1= 6 Len=  172
 NBasis=   160 RedAO= T EigKep=  3.00D-04  NBF=   160
 NBsUse=   160 1.00D-06 EigRej= -1.00D+00 NBFU=   160
 Precomputing XC quadrature grid using
 IXCGrd= 4 IRadAn=           5 IRanWt=          -1 IRanGd=           0 AccXCQ= 0.00D+00.
 Generated NRdTot=       0 NPtTot=           0 NUsed=           0 NTot=          32
 NSgBfM=   180   180   180   180   180 MxSgAt=    10 MxSgA2=    10.
 Leave Link  302 at Sat Mar 16 14:05:59 2019, MaxMem=   104857600 cpu:               2.5 elap:               0.2
 (Enter /util/academic/gaussian/g16.A03/x86-64-SSE4_2/g16/l303.exe)
 DipDrv:  MaxL=1.
 Leave Link  303 at Sat Mar 16 14:05:59 2019, MaxMem=   104857600 cpu:               0.6 elap:               0.1
 (Enter /util/academic/gaussian/g16.A03/x86-64-SSE4_2/g16/l401.exe)
 Initial guess from the checkpoint file:  "chk.chk"
 B after Tr=     0.001129    0.000829    0.000646
         Rot=    1.000000    0.000124   -0.000334    0.000109 Ang=   0.04 deg.
 Guess basis will be translated and rotated to current coordinates.
 JPrj=2 DoOrth=T DoCkMO=T.
 Leave Link  401 at Sat Mar 16 14:05:59 2019, MaxMem=   104857600 cpu:               1.0 elap:               0.1
 (Enter /util/academic/gaussian/g16.A03/x86-64-SSE4_2/g16/l502.exe)
 Keep J ints in memory in canonical form, NReq=95053554.
 FoFCou: FMM=F IPFlag=           0 FMFlag=           0 FMFlg1=           0
         NFxFlg=           0 DoJE=F BraDBF=F KetDBF=F FulRan=T
         wScrn=  0.000000 ICntrl=       600 IOpCl=  0 I1Cent=           0 NGrid=           0
         NMat0=    1 NMatS0=  12880 NMatT0=    0 NMatD0=    1 NMtDS0=    0 NMtDT0=    0
 Symmetry not used in FoFCou.
 CoulSu:  requested number of processors reduced to:  10 ShMem   1 Linda.
 Two-electron integral symmetry not used.
 Closed shell SCF:
 Using DIIS extrapolation, IDIIS=  1040.
 NGot=   104857600 LenX=    21835618 LenY=    21802777
 Requested convergence on RMS density matrix=1.00D-08 within 128 cycles.
 Requested convergence on MAX density matrix=1.00D-06.
 Requested convergence on             energy=1.00D-06.
 No special actions if energy rises.

 Cycle   1  Pass 1  IDiag  1:
 E= -193.109170522045    
 DIIS: error= 5.38D-04 at cycle   1 NSaved=   1.
 NSaved= 1 IEnMin= 1 EnMin= -193.109170522045     IErMin= 1 ErrMin= 5.38D-04
 ErrMax= 5.38D-04  0.00D+00 EMaxC= 1.00D-01 BMatC= 1.26D-04 BMatP= 1.26D-04
 IDIUse=3 WtCom= 9.95D-01 WtEn= 5.38D-03
 Coeff-Com:  0.100D+01
 Coeff-En:   0.100D+01
 Coeff:      0.100D+01
 Gap=     0.685 Goal=   None    Shift=    0.000
 RMSDP=9.63D-05 MaxDP=1.92D-03              OVMax= 4.44D-03

 Cycle   2  Pass 1  IDiag  1:
 E= -193.109261151742     Delta-E=       -0.000090629697 Rises=F Damp=F
 DIIS: error= 5.36D-04 at cycle   2 NSaved=   2.
 NSaved= 2 IEnMin= 2 EnMin= -193.109261151742     IErMin= 2 ErrMin= 5.36D-04
 ErrMax= 5.36D-04  0.00D+00 EMaxC= 1.00D-01 BMatC= 7.34D-05 BMatP= 1.26D-04
 IDIUse=3 WtCom= 9.95D-01 WtEn= 5.36D-03
 Coeff-Com:  0.404D+00 0.596D+00
 Coeff-En:   0.000D+00 0.100D+01
 Coeff:      0.402D+00 0.598D+00
 Gap=     0.247 Goal=   None    Shift=    0.000
 RMSDP=7.17D-05 MaxDP=1.90D-03 DE=-9.06D-05 OVMax= 3.37D-03

 Cycle   3  Pass 1  IDiag  1:
 E= -193.109243191659     Delta-E=        0.000017960083 Rises=F Damp=F
 DIIS: error= 6.65D-04 at cycle   3 NSaved=   3.
 NSaved= 3 IEnMin= 2 EnMin= -193.109261151742     IErMin= 2 ErrMin= 5.36D-04
 ErrMax= 6.65D-04  0.00D+00 EMaxC= 1.00D-01 BMatC= 9.32D-05 BMatP= 7.34D-05
 IDIUse=3 WtCom= 2.79D-01 WtEn= 7.21D-01
 Coeff-Com:  0.281D-01 0.522D+00 0.450D+00
 Coeff-En:   0.000D+00 0.554D+00 0.446D+00
 Coeff:      0.784D-02 0.545D+00 0.447D+00
 Gap=     0.246 Goal=   None    Shift=    0.000
 RMSDP=4.38D-05 MaxDP=9.91D-04 DE= 1.80D-05 OVMax= 1.89D-03

 Cycle   4  Pass 1  IDiag  1:
 E= -193.109309784248     Delta-E=       -0.000066592589 Rises=F Damp=F
 DIIS: error= 4.76D-05 at cycle   4 NSaved=   4.
 NSaved= 4 IEnMin= 4 EnMin= -193.109309784248     IErMin= 4 ErrMin= 4.76D-05
 ErrMax= 4.76D-05  0.00D+00 EMaxC= 1.00D-01 BMatC= 4.12D-07 BMatP= 7.34D-05
 IDIUse=1 WtCom= 1.00D+00 WtEn= 0.00D+00
 Coeff-Com:  0.622D-03 0.204D+00 0.161D+00 0.634D+00
 Coeff:      0.622D-03 0.204D+00 0.161D+00 0.634D+00
 Gap=     0.245 Goal=   None    Shift=    0.000
 RMSDP=3.55D-06 MaxDP=7.94D-05 DE=-6.66D-05 OVMax= 1.34D-04

 Cycle   5  Pass 1  IDiag  1:
 E= -193.109310028662     Delta-E=       -0.000000244414 Rises=F Damp=F
 DIIS: error= 1.66D-05 at cycle   5 NSaved=   5.
 NSaved= 5 IEnMin= 5 EnMin= -193.109310028662     IErMin= 5 ErrMin= 1.66D-05
 ErrMax= 1.66D-05  0.00D+00 EMaxC= 1.00D-01 BMatC= 5.72D-08 BMatP= 4.12D-07
 IDIUse=1 WtCom= 1.00D+00 WtEn= 0.00D+00
 Coeff-Com: -0.200D-03 0.866D-01 0.674D-01 0.361D+00 0.485D+00
 Coeff:     -0.200D-03 0.866D-01 0.674D-01 0.361D+00 0.485D+00
 Gap=     0.246 Goal=   None    Shift=    0.000
 RMSDP=1.44D-06 MaxDP=3.25D-05 DE=-2.44D-07 OVMax= 5.97D-05

 Cycle   6  Pass 1  IDiag  1:
 E= -193.109310081766     Delta-E=       -0.000000053104 Rises=F Damp=F
 DIIS: error= 2.79D-06 at cycle   6 NSaved=   6.
 NSaved= 6 IEnMin= 6 EnMin= -193.109310081766     IErMin= 6 ErrMin= 2.79D-06
 ErrMax= 2.79D-06  0.00D+00 EMaxC= 1.00D-01 BMatC= 1.51D-09 BMatP= 5.72D-08
 IDIUse=1 WtCom= 1.00D+00 WtEn= 0.00D+00
 Coeff-Com: -0.102D-03 0.171D-01 0.129D-01 0.874D-01 0.194D+00 0.689D+00
 Coeff:     -0.102D-03 0.171D-01 0.129D-01 0.874D-01 0.194D+00 0.689D+00
 Gap=     0.246 Goal=   None    Shift=    0.000
 RMSDP=2.61D-07 MaxDP=6.02D-06 DE=-5.31D-08 OVMax= 1.52D-05

 Cycle   7  Pass 1  IDiag  1:
 E= -193.109310083041     Delta-E=       -0.000000001276 Rises=F Damp=F
 DIIS: error= 8.84D-07 at cycle   7 NSaved=   7.
 NSaved= 7 IEnMin= 7 EnMin= -193.109310083041     IErMin= 7 ErrMin= 8.84D-07
 ErrMax= 8.84D-07  0.00D+00 EMaxC= 1.00D-01 BMatC= 2.14D-10 BMatP= 1.51D-09
 IDIUse=1 WtCom= 1.00D+00 WtEn= 0.00D+00
 Coeff-Com: -0.632D-04 0.668D-02 0.488D-02 0.368D-01 0.933D-01 0.394D+00
 Coeff-Com:  0.465D+00
 Coeff:     -0.632D-04 0.668D-02 0.488D-02 0.368D-01 0.933D-01 0.394D+00
 Coeff:      0.465D+00
 Gap=     0.246 Goal=   None    Shift=    0.000
 RMSDP=7.94D-08 MaxDP=2.01D-06 DE=-1.28D-09 OVMax= 6.52D-06

 Cycle   8  Pass 1  IDiag  1:
 E= -193.109310083235     Delta-E=       -0.000000000193 Rises=F Damp=F
 DIIS: error= 2.98D-07 at cycle   8 NSaved=   8.
 NSaved= 8 IEnMin= 8 EnMin= -193.109310083235     IErMin= 8 ErrMin= 2.98D-07
 ErrMax= 2.98D-07  0.00D+00 EMaxC= 1.00D-01 BMatC= 1.63D-11 BMatP= 2.14D-10
 IDIUse=1 WtCom= 1.00D+00 WtEn= 0.00D+00
 Coeff-Com: -0.239D-04 0.201D-02 0.141D-02 0.119D-01 0.331D-01 0.151D+00
 Coeff-Com:  0.263D+00 0.538D+00
 Coeff:     -0.239D-04 0.201D-02 0.141D-02 0.119D-01 0.331D-01 0.151D+00
 Coeff:      0.263D+00 0.538D+00
 Gap=     0.246 Goal=   None    Shift=    0.000
 RMSDP=2.23D-08 MaxDP=5.44D-07 DE=-1.93D-10 OVMax= 1.52D-06

 Cycle   9  Pass 1  IDiag  1:
 E= -193.109310083259     Delta-E=       -0.000000000024 Rises=F Damp=F
 DIIS: error= 4.57D-08 at cycle   9 NSaved=   9.
 NSaved= 9 IEnMin= 9 EnMin= -193.109310083259     IErMin= 9 ErrMin= 4.57D-08
 ErrMax= 4.57D-08  0.00D+00 EMaxC= 1.00D-01 BMatC= 2.85D-13 BMatP= 1.63D-11
 IDIUse=1 WtCom= 1.00D+00 WtEn= 0.00D+00
 Coeff-Com: -0.370D-05 0.256D-03 0.155D-03 0.160D-02 0.485D-02 0.238D-01
 Coeff-Com:  0.550D-01 0.177D+00 0.737D+00
 Coeff:     -0.370D-05 0.256D-03 0.155D-03 0.160D-02 0.485D-02 0.238D-01
 Coeff:      0.550D-01 0.177D+00 0.737D+00
 Gap=     0.246 Goal=   None    Shift=    0.000
 RMSDP=4.24D-09 MaxDP=8.52D-08 DE=-2.37D-11 OVMax= 1.51D-07

 SCF Done:  E(RB-LYP) =  -193.109310083     A.U. after    9 cycles
            NFock=  9  Conv=0.42D-08     -V/T= 2.0039
 KE= 1.923626539680D+02 PE=-6.980883350466D+02 EE= 1.890599016184D+02
 Leave Link  502 at Sat Mar 16 14:06:06 2019, MaxMem=   104857600 cpu:              66.9 elap:               7.4
 (Enter /util/academic/gaussian/g16.A03/x86-64-SSE4_2/g16/l701.exe)
 ... and contract with generalized density number  0.
 Compute integral first derivatives.
   1 Symmetry operations used in ECPInt.
 ECPInt:  NShTT=    2346 NPrTT=    6892 LenC2=    2340 LenP2D=    5991.
 LDataN:  DoStor=T MaxTD1= 7 Len=  274
 Leave Link  701 at Sat Mar 16 14:06:07 2019, MaxMem=   104857600 cpu:               2.4 elap:               0.2
 (Enter /util/academic/gaussian/g16.A03/x86-64-SSE4_2/g16/l702.exe)
 L702 exits ... SP integral derivatives will be done elsewhere.
 Leave Link  702 at Sat Mar 16 14:06:07 2019, MaxMem=   104857600 cpu:               0.4 elap:               0.0
 (Enter /util/academic/gaussian/g16.A03/x86-64-SSE4_2/g16/l703.exe)
 Integral derivatives from FoFJK, PRISM(SPDF).
 Compute integral first derivatives, UseDBF=F ICtDFT=           0.
 Calling FoFJK, ICntrl=      2527 FMM=F ISym2X=0 I1Cent= 0 IOpClX= 0 NMat=1 NMatS=1 NMatT=0.
 FoFJK:  IHMeth= 1 ICntrl=    2527 DoSepK=F KAlg= 0 I1Cent=           0 FoldK=F
 IRaf=         0 NMat=       1 IRICut=       1 DoRegI=T DoRafI=F ISym2E= 0 IDoP0=0 IntGTp=1.
 FoFCou: FMM=F IPFlag=           0 FMFlag=      100000 FMFlg1=         800
         NFxFlg=           0 DoJE=F BraDBF=F KetDBF=F FulRan=T
         wScrn=  0.000000 ICntrl=      2527 IOpCl=  0 I1Cent=           0 NGrid=           0
         NMat0=    1 NMatS0=      1 NMatT0=    0 NMatD0=    1 NMtDS0=    0 NMtDT0=    0
 Symmetry not used in FoFCou.
 Leave Link  703 at Sat Mar 16 14:06:09 2019, MaxMem=   104857600 cpu:              31.3 elap:               2.6
 (Enter /util/academic/gaussian/g16.A03/x86-64-SSE4_2/g16/l716.exe)
 Dipole        = 6.86920973D-01 3.25070560D-01-5.85610281D-02
 -------------------------------------------------------------------
 Center     Atomic                   Forces (Hartrees/Bohr)
 Number     Number              X              Y              Z
 -------------------------------------------------------------------
      1        8          -0.000956060   -0.000642840   -0.000131019
      2        6           0.000687835    0.000225360   -0.000637049
      3        6           0.000335924    0.000346847    0.000175908
      4        6          -0.000509335    0.000234313    0.000495757
      5        1          -0.000052573    0.000056942    0.000416540
      6        1           0.000128851   -0.000122834    0.000465326
      7        1           0.000099475   -0.000061847   -0.000517357
      8        1           0.000515786    0.000143523   -0.000064275
      9        1          -0.000037319   -0.000345984    0.000009194
     10        1          -0.000212584    0.000166522   -0.000213025
 -------------------------------------------------------------------
 Cartesian Forces:  Max     0.000956060 RMS     0.000380252
 Leave Link  716 at Sat Mar 16 14:06:09 2019, MaxMem=   104857600 cpu:               0.2 elap:               0.0
 (Enter /util/academic/gaussian/g16.A03/x86-64-SSE4_2/g16/l103.exe)

 GradGradGradGradGradGradGradGradGradGradGradGradGradGradGradGradGradGrad
 Berny optimization.
 Using GEDIIS/GDIIS optimizer.
 FormGI is forming the generalized inverse of G from B-inverse, IUseBI=4.
 Internal  Forces:  Max     0.000648251 RMS     0.000266316
 Search for a local minimum.
 Step number   3 out of a maximum of   49
 All quantities printed in internal units (Hartrees-Bohrs-Radians)
 RMS Force = .26632D-03 SwitMx=.10000D-02 MixMth= 2
 Mixed Optimization -- En-DIIS/RFO-DIIS
 Update second derivatives using D2CorX and points    1    2    3
 DE= -1.54D-04 DEPred=-1.41D-04 R= 1.09D+00
 TightC=F SS=  1.41D+00  RLast= 5.03D-02 DXNew= 5.0454D-01 1.5090D-01
 Trust test= 1.09D+00 RLast= 5.03D-02 DXMaxT set to 3.00D-01
 ITU=  1  1  0
 Use linear search instead of GDIIS.
     Eigenvalues ---    0.00655   0.02424   0.03341   0.04605   0.05726
     Eigenvalues ---    0.05818   0.14043   0.14574   0.15854   0.16000
     Eigenvalues ---    0.16000   0.16016   0.16128   0.19604   0.23517
     Eigenvalues ---    0.31638   0.32753   0.33120   0.33257   0.33453
     Eigenvalues ---    0.33530   0.33561   0.36353   0.37218
 RFO step:  Lambda=-1.08413838D-05 EMin= 6.54506468D-03
 Quartic linear search produced a step of  0.08200.
 Iteration  1 RMS(Cart)=  0.00214503 RMS(Int)=  0.00000347
 Iteration  2 RMS(Cart)=  0.00000265 RMS(Int)=  0.00000236
 Iteration  3 RMS(Cart)=  0.00000000 RMS(Int)=  0.00000236
 ITry= 1 IFail=0 DXMaxC= 6.47D-03 DCOld= 1.00D+10 DXMaxT= 3.00D-01 DXLimC= 3.00D+00 Rises=F
 Variable       Old X    -DE/DX   Delta X   Delta X   Delta X     New X
                                 (Linear)    (Quad)   (Total)
    R1        2.74776   0.00061   0.00176   0.00140   0.00316   2.75092
    R2        2.74125   0.00065   0.00182   0.00153   0.00335   2.74461
    R3        2.78915  -0.00044   0.00019  -0.00148  -0.00129   2.78787
    R4        2.85814  -0.00035  -0.00001  -0.00103  -0.00104   2.85710
    R5        2.06962   0.00029  -0.00031   0.00088   0.00057   2.07020
    R6        2.06488   0.00037  -0.00030   0.00109   0.00080   2.06567
    R7        2.06550   0.00034  -0.00027   0.00100   0.00072   2.06622
    R8        2.07645   0.00054  -0.00012   0.00159   0.00147   2.07792
    R9        2.07521   0.00034  -0.00020   0.00100   0.00080   2.07601
   R10        2.07207   0.00034  -0.00017   0.00096   0.00079   2.07286
    A1        2.03957  -0.00027  -0.00026  -0.00096  -0.00121   2.03836
    A2        1.97284  -0.00009  -0.00075  -0.00008  -0.00083   1.97201
    A3        2.14316  -0.00013   0.00001  -0.00039  -0.00037   2.14279
    A4        2.04405  -0.00024   0.00022  -0.00214  -0.00192   2.04212
    A5        2.01025   0.00036   0.00017   0.00211   0.00228   2.01253
    A6        2.01105  -0.00003  -0.00066   0.00070   0.00004   2.01109
    A7        2.00881  -0.00022  -0.00075   0.00023  -0.00053   2.00828
    A8        2.09848  -0.00026   0.00016  -0.00203  -0.00188   2.09660
    A9        2.08531  -0.00032   0.00021  -0.00283  -0.00263   2.08269
   A10        2.00840   0.00046   0.00029   0.00290   0.00319   2.01159
   A11        1.92627   0.00011  -0.00048   0.00103   0.00055   1.92682
   A12        1.93082  -0.00009  -0.00003  -0.00064  -0.00067   1.93016
   A13        1.93680  -0.00009   0.00007  -0.00068  -0.00061   1.93619
   A14        1.88224   0.00001   0.00010   0.00012   0.00023   1.88246
   A15        1.89592   0.00001   0.00007   0.00010   0.00017   1.89609
   A16        1.89033   0.00007   0.00029   0.00008   0.00037   1.89070
    D1       -2.66442   0.00002  -0.00089   0.00139   0.00050  -2.66392
    D2        0.01013  -0.00013   0.00075  -0.00257  -0.00182   0.00831
    D3        0.02278   0.00007   0.00015   0.00086   0.00101   0.02379
    D4        2.69733  -0.00008   0.00178  -0.00310  -0.00132   2.69602
    D5        2.88197   0.00004   0.00041  -0.00176  -0.00136   2.88061
    D6       -1.31946   0.00006   0.00020  -0.00136  -0.00115  -1.32061
    D7        0.77925   0.00002   0.00059  -0.00212  -0.00154   0.77772
    D8        1.67257  -0.00008   0.00008  -0.00199  -0.00191   1.67066
    D9       -2.52887  -0.00006  -0.00012  -0.00158  -0.00170  -2.53056
   D10       -0.43015  -0.00010   0.00027  -0.00235  -0.00208  -0.43223
   D11       -1.02266   0.00001  -0.00095  -0.00046  -0.00142  -1.02407
   D12        1.05909   0.00003  -0.00115  -0.00006  -0.00121   1.05789
   D13       -3.12538  -0.00001  -0.00077  -0.00082  -0.00159  -3.12697
         Item               Value     Threshold  Converged?
[...]
 DE= -7.99D-12 DEPred=-6.24D-12 R= 1.28D+00
 Trust test= 1.28D+00 RLast= 1.77D-05 DXMaxT set to 3.00D-01
 ITU=  0  0  0  0  0  0  0  0  1  1  1  0
     Eigenvalues ---    0.00177   0.02381   0.03166   0.04715   0.05593
     Eigenvalues ---    0.05771   0.08722   0.12517   0.15415   0.15901
     Eigenvalues ---    0.16000   0.16073   0.16151   0.19036   0.23077
     Eigenvalues ---    0.30142   0.31023   0.33103   0.33232   0.33312
     Eigenvalues ---    0.33579   0.33736   0.35205   0.46410
 En-DIIS/RFO-DIIS/Sim-DIIS IScMMF=       -3 using points:    12   11   10    9    8    7    6    5    4    3
 RFO step:  Lambda=-2.32896668D-12.
 NNeg= 0 NGDIIS=10 SimSw=  2.50D-01 Rises=F DC= -7.99D-12 SmlDif=  1.00D-05
 NRisDI= 0 DoIntr=F SqrtH=F CThrHd= 10.0 CDAdj=  3.0
 RMS Error=  0.1667016939D-05 NUsed=10 OKEnD=F EnDIS=F
 InvSVX:  RCond= 1.47D-14 Info=           0 Equed=N FErr=  6.66D-10 BErr=  6.28D-17
 DIIS inversion failure, remove point  10.
 InvSVX:  RCond= 3.47D-14 Info=           0 Equed=N FErr=  2.78D-10 BErr=  6.85D-17
 DIIS inversion failure, remove point   9.
 InvSVX:  RCond= 7.43D-14 Info=           0 Equed=N FErr=  1.81D-10 BErr=  1.06D-16
 DIIS inversion failure, remove point   8.
 InvSVX:  RCond= 1.58D-13 Info=           0 Equed=N FErr=  3.86D-11 BErr=  7.69D-17
 DIIS inversion failure, remove point   7.
 InvSVX:  RCond= 2.03D-13 Info=           0 Equed=N FErr=  1.03D-11 BErr=  7.72D-17
 DIIS inversion failure, remove point   6.
 InvSVX:  RCond= 3.59D-13 Info=           0 Equed=N FErr=  8.73D-13 BErr=  7.06D-17
 DIIS inversion failure, remove point   5.
 InvSVX:  RCond= 1.45D-12 Info=           0 Equed=N FErr=  1.09D-13 BErr=  1.07D-16
 DIIS inversion failure, remove point   4.
 InvSVX:  RCond= 2.85D-12 Info=           0 Equed=N FErr=  4.99D-14 BErr=  2.97D-17
 DIIS inversion failure, remove point   3.
 InvSVX:  RCond= 7.83D-11 Info=           0 Equed=N FErr=  2.59D-15 BErr=  5.94D-17
 DIIS inversion failure, remove point   2.
 Use linear search instead of GDIIS.
 RFO step:  Lambda= 0.00000000D+00 EMin= 1.76870466D-03
 Skip linear search -- no minimum in search direction.
 Iteration  1 RMS(Cart)=  0.00000117 RMS(Int)=  0.00000000
 Iteration  2 RMS(Cart)=  0.00000000 RMS(Int)=  0.00000000
 ITry= 1 IFail=0 DXMaxC= 3.10D-06 DCOld= 1.00D+10 DXMaxT= 3.00D-01 DXLimC= 3.00D+00 Rises=F
 Variable       Old X    -DE/DX   Delta X   Delta X   Delta X     New X
                                 (Linear)    (Quad)   (Total)
    R1        2.75113  -0.00000   0.00000  -0.00000  -0.00000   2.75113
    R2        2.74416   0.00000   0.00000   0.00000   0.00000   2.74416
    R3        2.78823   0.00000   0.00000   0.00000   0.00000   2.78823
    R4        2.85640  -0.00000   0.00000  -0.00000  -0.00000   2.85640
    R5        2.07036  -0.00000   0.00000   0.00000   0.00000   2.07036
    R6        2.06573  -0.00000   0.00000  -0.00000  -0.00000   2.06573
    R7        2.06633  -0.00000   0.00000  -0.00000  -0.00000   2.06633
    R8        2.07816  -0.00000   0.00000  -0.00000  -0.00000   2.07816
    R9        2.07626  -0.00000   0.00000   0.00000   0.00000   2.07626
   R10        2.07309  -0.00000   0.00000   0.00000   0.00000   2.07309
    A1        2.03762  -0.00000   0.00000   0.00000   0.00000   2.03762
    A2        1.97106  -0.00000   0.00000   0.00000   0.00000   1.97106
    A3        2.14241   0.00000   0.00000   0.00000   0.00000   2.14241
    A4        2.04180  -0.00000   0.00000  -0.00000  -0.00000   2.04180
    A5        2.01390  -0.00000   0.00000  -0.00000  -0.00000   2.01390
    A6        2.01020   0.00000   0.00000  -0.00000  -0.00000   2.01020
    A7        2.00722   0.00000   0.00000  -0.00000  -0.00000   2.00722
    A8        2.09637  -0.00000   0.00000  -0.00000  -0.00000   2.09637
    A9        2.08235  -0.00000   0.00000  -0.00000  -0.00000   2.08235
   A10        2.01288   0.00000   0.00000   0.00000   0.00000   2.01288
   A11        1.92784   0.00000   0.00000   0.00000   0.00000   1.92784
   A12        1.93068   0.00000   0.00000  -0.00000  -0.00000   1.93068
   A13        1.93546   0.00000   0.00000   0.00000   0.00000   1.93546
   A14        1.88216  -0.00000   0.00000  -0.00000  -0.00000   1.88216
   A15        1.89591  -0.00000   0.00000  -0.00000  -0.00000   1.89591
   A16        1.89035  -0.00000   0.00000  -0.00000  -0.00000   1.89035
    D1       -2.66580   0.00000   0.00000   0.00000   0.00000  -2.66580
    D2        0.00850   0.00000   0.00000   0.00000   0.00000   0.00850
    D3        0.02396  -0.00000   0.00000  -0.00000  -0.00000   0.02396
    D4        2.69826  -0.00000   0.00000   0.00000   0.00000   2.69826
    D5        2.87697   0.00000   0.00000  -0.00000  -0.00000   2.87697
    D6       -1.32365   0.00000   0.00000  -0.00000  -0.00000  -1.32365
    D7        0.77411   0.00000   0.00000  -0.00000  -0.00000   0.77411
    D8        1.66787  -0.00000   0.00000  -0.00000  -0.00000   1.66787
    D9       -2.53274  -0.00000   0.00000  -0.00000  -0.00000  -2.53275
   D10       -0.43498  -0.00000   0.00000  -0.00000  -0.00000  -0.43499
   D11       -1.02849   0.00000   0.00000  -0.00000  -0.00000  -1.02849
   D12        1.05408   0.00000   0.00000  -0.00000  -0.00000   1.05408
   D13       -3.13135  -0.00000   0.00000  -0.00000  -0.00000  -3.13135
         Item               Value     Threshold  Converged?
 Maximum Force            0.000000     0.000002     YES
 RMS     Force            0.000000     0.000001     YES
 Maximum Displacement     0.000003     0.000006     YES
 RMS     Displacement     0.000001     0.000004     YES
 Predicted change in Energy=-1.837785D-12
 Optimization completed.
    -- Stationary point found.
                           ----------------------------
                           !   Optimized Parameters   !
                           ! (Angstroms and Degrees)  !
 --------------------------                            --------------------------
 ! Name  Definition              Value          Derivative Info.                !
 --------------------------------------------------------------------------------
 ! R1    R(1,2)                  1.4558         -DE/DX =    0.0                 !
 ! R2    R(1,3)                  1.4521         -DE/DX =    0.0                 !
 ! R3    R(2,3)                  1.4755         -DE/DX =    0.0                 !
 ! R4    R(2,4)                  1.5115         -DE/DX =    0.0                 !
 ! R5    R(2,5)                  1.0956         -DE/DX =    0.0                 !
 ! R6    R(3,6)                  1.0931         -DE/DX =    0.0                 !
 ! R7    R(3,7)                  1.0935         -DE/DX =    0.0                 !
 ! R8    R(4,8)                  1.0997         -DE/DX =    0.0                 !
 ! R9    R(4,9)                  1.0987         -DE/DX =    0.0                 !
 ! R10   R(4,10)                 1.097          -DE/DX =    0.0                 !
 ! A1    A(1,2,4)              116.7468         -DE/DX =    0.0                 !
 ! A2    A(1,2,5)              112.9333         -DE/DX =    0.0                 !
 ! A3    A(3,2,4)              122.7513         -DE/DX =    0.0                 !
 ! A4    A(3,2,5)              116.9868         -DE/DX =    0.0                 !
 ! A5    A(4,2,5)              115.388          -DE/DX =    0.0                 !
 ! A6    A(1,3,6)              115.1761         -DE/DX =    0.0                 !
 ! A7    A(1,3,7)              115.0051         -DE/DX =    0.0                 !
 ! A8    A(2,3,6)              120.1132         -DE/DX =    0.0                 !
 ! A9    A(2,3,7)              119.3101         -DE/DX =    0.0                 !
 ! A10   A(6,3,7)              115.3295         -DE/DX =    0.0                 !
 ! A11   A(2,4,8)              110.4571         -DE/DX =    0.0                 !
 ! A12   A(2,4,9)              110.6198         -DE/DX =    0.0                 !
 ! A13   A(2,4,10)             110.8938         -DE/DX =    0.0                 !
 ! A14   A(8,4,9)              107.84           -DE/DX =    0.0                 !
 ! A15   A(8,4,10)             108.6275         -DE/DX =    0.0                 !
 ! A16   A(9,4,10)             108.3093         -DE/DX =    0.0                 !
 ! D1    D(4,2,3,6)           -152.7392         -DE/DX =    0.0                 !
 ! D2    D(4,2,3,7)              0.487          -DE/DX =    0.0                 !
 ! D3    D(5,2,3,6)              1.3728         -DE/DX =    0.0                 !
 ! D4    D(5,2,3,7)            154.5989         -DE/DX =    0.0                 !
 ! D5    D(1,2,4,8)            164.8382         -DE/DX =    0.0                 !
 ! D6    D(1,2,4,9)            -75.8394         -DE/DX =    0.0                 !
 ! D7    D(1,2,4,10)            44.3533         -DE/DX =    0.0                 !
 ! D8    D(3,2,4,8)             95.5621         -DE/DX =    0.0                 !
 ! D9    D(3,2,4,9)           -145.1155         -DE/DX =    0.0                 !
 ! D10   D(3,2,4,10)           -24.9228         -DE/DX =    0.0                 !
 ! D11   D(5,2,4,8)            -58.9282         -DE/DX =    0.0                 !
 ! D12   D(5,2,4,9)             60.3941         -DE/DX =    0.0                 !
 ! D13   D(5,2,4,10)          -179.4131         -DE/DX =    0.0                 !
 --------------------------------------------------------------------------------
 Lowest energy point so far.  Saving SCF results.
 Largest change from initial coordinates is atom    1       0.008 Angstoms.
 GradGradGradGradGradGradGradGradGradGradGradGradGradGradGradGradGradGrad

 Leave Link  103 at Sat Mar 16 14:07:18 2019, MaxMem=   104857600 cpu:               0.3 elap:               0.0
 (Enter /util/academic/gaussian/g16.A03/x86-64-SSE4_2/g16/l202.exe)
                          Input orientation:                          
 ---------------------------------------------------------------------
 Center     Atomic      Atomic             Coordinates (Angstroms)
 Number     Number       Type             X           Y           Z
 ---------------------------------------------------------------------
      1          8           0       -0.879112   -0.180294    0.205257
      2          6           0        0.574199   -0.157646    0.122588
      3          6           0       -0.185517    1.088353    0.340116
      4          6           0        1.185420   -0.520407   -1.211416
      5          1           0        1.058604   -0.603865    0.998120
      6          1           0       -0.228052    1.538075    1.335550
      7          1           0       -0.325346    1.782434   -0.493154
      8          1           0        2.241636   -0.216103   -1.245734
      9          1           0        1.142471   -1.606131   -1.374270
     10          1           0        0.651796   -0.027264   -2.033329
 ---------------------------------------------------------------------
                    Distance matrix (angstroms):
                    1          2          3          4          5
     1  O    0.000000
     2  C    1.455837   0.000000
     3  C    1.452146   1.475467   0.000000
     4  C    2.526842   1.511540   2.621990   0.000000
     5  H    2.136067   1.095588   2.201002   2.214745   0.000000
     6  H    2.157367   2.233910   1.093136   3.566831   2.521359
     7  H    2.155629   2.225361   1.093453   2.846295   3.135863
     8  H    3.441762   2.157793   3.179245   1.099715   2.566088
     9  H    2.935083   2.159079   3.458745   1.098709   2.576781
    10  H    2.716315   2.161249   2.752987   1.097034   3.112497
                    6          7          8          9         10
     6  H    0.000000
     7  H    1.847521   0.000000
     8  H    3.979890   3.339151   0.000000
     9  H    4.371211   3.796475   1.776756   0.000000
    10  H    3.817559   2.569426   1.784252   1.779871   0.000000
 Symmetry turned off by external request.
 Stoichiometry    C3H6O
 Framework group  C1[X(C3H6O)]
 Deg. of freedom    24
 Full point group                 C1      NOp   1
 Rotational constants (GHZ):          17.8144842           6.5499208           5.8199193
 Leave Link  202 at Sat Mar 16 14:07:19 2019, MaxMem=   104857600 cpu:               0.5 elap:               0.1
 (Enter /util/academic/gaussian/g16.A03/x86-64-SSE4_2/g16/l601.exe)
 Copying SCF densities to generalized density rwf, IOpCl= 0 IROHF=0.

 **********************************************************************

            Population analysis using the SCF density.

 **********************************************************************

 Alpha  occ. eigenvalues --  -18.77971  -9.96323  -9.95559  -9.90797  -0.96245
 Alpha  occ. eigenvalues --   -0.66978  -0.58980  -0.52994  -0.44772  -0.41359
 Alpha  occ. eigenvalues --   -0.37684  -0.35601  -0.32909  -0.32119  -0.26342
 Alpha  occ. eigenvalues --   -0.21966
 Alpha virt. eigenvalues --    0.02570   0.04282   0.05007   0.05091   0.06466
 Alpha virt. eigenvalues --    0.08605   0.09141   0.10254   0.13895   0.17035
 Alpha virt. eigenvalues --    0.19742   0.20206   0.23635   0.24754   0.26869
 Alpha virt. eigenvalues --    0.27784   0.30096   0.33742   0.36255   0.37205
 Alpha virt. eigenvalues --    0.38492   0.39476   0.40158   0.41535   0.42685
 Alpha virt. eigenvalues --    0.44708   0.45952   0.46914   0.50805   0.53696
 Alpha virt. eigenvalues --    0.65781   0.67430   0.70750   0.76118   0.79436
 Alpha virt. eigenvalues --    0.83210   0.85440   0.87143   0.92020   0.96124
 Alpha virt. eigenvalues --    0.99198   1.01225   1.04167   1.07885   1.10532
 Alpha virt. eigenvalues --    1.14723   1.21509   1.34865   1.41570   1.43274
 Alpha virt. eigenvalues --    1.44318   1.44659   1.47419   1.47783   1.51243
 Alpha virt. eigenvalues --    1.54228   1.57705   1.59768   1.64186   1.69503
 Alpha virt. eigenvalues --    1.70110   1.78961   1.81554   1.84239   1.86731
 Alpha virt. eigenvalues --    1.92088   1.99124   1.99448   2.08964   2.09716
 Alpha virt. eigenvalues --    2.16629   2.20002   2.22929   2.24376   2.26661
 Alpha virt. eigenvalues --    2.28313   2.35062   2.38737   2.45089   2.47359
 Alpha virt. eigenvalues --    2.48357   2.52550   2.53261   2.55955   2.59876
 Alpha virt. eigenvalues --    2.64941   2.66819   2.71622   2.73971   2.80658
 Alpha virt. eigenvalues --    2.83170   2.86193   2.89880   2.96065   2.96591
 Alpha virt. eigenvalues --    2.98860   3.00740   3.03466   3.06896   3.14637
 Alpha virt. eigenvalues --    3.16711   3.19028   3.27850   3.29301   3.31668
 Alpha virt. eigenvalues --    3.35413   3.37323   3.43046   3.45653   3.56426
 Alpha virt. eigenvalues --    3.57230   3.63635   3.76651   3.78474   3.88096
 Alpha virt. eigenvalues --    3.89768   3.98775   4.04857   4.14527   4.19657
 Alpha virt. eigenvalues --    4.26085   4.28846   4.33840   4.46955   4.56124
 Alpha virt. eigenvalues --    4.57250   4.73814   4.77076   5.18193   5.34675
 Alpha virt. eigenvalues --    5.57767   5.60385   5.66717   5.76371   5.90909
 Alpha virt. eigenvalues --    6.46466   6.50715   6.67647   6.84213   7.05563
 Alpha virt. eigenvalues --   21.94076  21.98212  22.10131  43.41417
          Condensed to atoms (all electrons):
               1          2          3          4          5          6
     1  O    8.072089   0.182615   0.219113  -0.038102  -0.030415  -0.036617
     2  C    0.182615   4.855873   0.315508   0.326542   0.400766  -0.036348
     3  C    0.219113   0.315508   4.798409  -0.047080  -0.036946   0.392423
     4  C   -0.038102   0.326542  -0.047080   4.952666  -0.064830  -0.001531
     5  H   -0.030415   0.400766  -0.036946  -0.064830   0.633091   0.002341
     6  H   -0.036617  -0.036348   0.392423  -0.001531   0.002341   0.653464
     7  H   -0.041622  -0.018459   0.377032   0.008640   0.000753  -0.063216
     8  H    0.008013  -0.034326  -0.004263   0.367245   0.004722   0.001597
     9  H   -0.005074  -0.039097   0.010945   0.402865  -0.006129  -0.000667
    10  H    0.007961  -0.052588   0.004440   0.394847   0.008407   0.000945
               7          8          9         10
     1  O   -0.041622   0.008013  -0.005074   0.007961
     2  C   -0.018459  -0.034326  -0.039097  -0.052588
     3  C    0.377032  -0.004263   0.010945   0.004440
     4  C    0.008640   0.367245   0.402865   0.394847
     5  H    0.000753   0.004722  -0.006129   0.008407
     6  H   -0.063216   0.001597  -0.000667   0.000945
     7  H    0.655290  -0.002530   0.000163  -0.000695
     8  H   -0.002530   0.618812  -0.033850  -0.019764
     9  H    0.000163  -0.033850   0.590133  -0.027569
    10  H   -0.000695  -0.019764  -0.027569   0.577841
 Mulliken charges:
               1
     1  O   -0.337961
     2  C    0.099513
     3  C   -0.029580
     4  C   -0.301262
     5  H    0.088240
     6  H    0.087609
     7  H    0.084643
     8  H    0.094343
     9  H    0.108279
    10  H    0.106174
 Sum of Mulliken charges =   0.00000
 Mulliken charges with hydrogens summed into heavy atoms:
               1
     1  O   -0.337961
     2  C    0.187753
     3  C    0.142672
     4  C    0.007535
 Electronic spatial extent (au):  <R**2>=            281.1537
 Charge=             -0.0000 electrons
 Dipole moment (field-independent basis, Debye):
    X=              1.7548    Y=              0.8279    Z=             -0.1453  Tot=              1.9457
 Quadrupole moment (field-independent basis, Debye-Ang):
   XX=            -26.9358   YY=            -23.9917   ZZ=            -24.4761
   XY=             -1.4948   XZ=              0.2050   YZ=              0.3365
 Traceless Quadrupole moment (field-independent basis, Debye-Ang):
   XX=             -1.8013   YY=              1.1429   ZZ=              0.6584
   XY=             -1.4948   XZ=              0.2050   YZ=              0.3365
 Octapole moment (field-independent basis, Debye-Ang**2):
  XXX=            -18.1078  YYY=             -4.6781  ZZZ=             16.0047  XYY=             -7.4189
  XXY=             -1.5776  XXZ=              4.6853  XZZ=             -6.6829  YZZ=             -0.5753
  YYZ=              4.9965  XYZ=             -0.3666
 Hexadecapole moment (field-independent basis, Debye-Ang**3):
 XXXX=           -143.2734 YYYY=           -108.1944 ZZZZ=           -126.3340 XXXY=             20.9599
 XXXZ=             36.2706 YYYX=             19.2128 YYYZ=            -20.8729 ZZZX=             38.6404
 ZZZY=            -22.0611 XXYY=            -44.1342 XXZZ=            -46.6687 YYZZ=            -38.0869
 XXYZ=             -7.9084 YYXZ=             12.3608 ZZXY=              5.9064
 N-N= 1.235339211294D+02 E-N=-6.980420790189D+02  KE= 1.923570651459D+02
 No NMR shielding tensors so no spin-rotation constants.
 Leave Link  601 at Sat Mar 16 14:07:19 2019, MaxMem=   104857600 cpu:               2.1 elap:               0.2
 (Enter /util/academic/gaussian/g16.A03/x86-64-SSE4_2/g16/l9999.exe)
 1\1\GINC-CPN-P27-36\FOpt\RBLYP\def2TZVP\C3H6O1\HERBERTL\16-Mar-2019\0\
 \#P blyp/def2TZVP OPT=VeryTight SCF=Tight Int=UltraFine NoSymm\\opt\\0
 ,1\O,-0.8791116836,-0.1802943614,0.2052574189\C,0.5741994971,-0.157646
 3803,0.122588254\C,-0.1855169689,1.0883533808,0.3401161873\C,1.1854197
 194,-0.5204072825,-1.211416223\H,1.0586037856,-0.6038652635,0.99811960
 2\H,-0.2280519659,1.538075082,1.3355495595\H,-0.3253464783,1.782434053
 7,-0.4931540115\H,2.241636326,-0.2161027965,-1.2457343154\H,1.14247132
 74,-1.6061307095,-1.3742698938\H,0.6517964411,-0.0272637229,-2.0333285
 779\\Version=ES64L-G16RevA.03\HF=-193.1093175\RMSD=2.189e-09\RMSF=4.13
 9e-07\Dipole=0.6904038,0.3257105,-0.0571491\Quadrupole=-1.3391977,0.84
 96917,0.489506,-1.1113254,0.1524177,0.2501919\PG=C01 [X(C3H6O1)]\\@


 HONESTY IN A LAWYER IS LIKE A HEN'S HIND LEGS.
  -- MAGNUS OLESON, LAKE WOBEGON PATRIARCH, C.1875
 Job cpu time:       0 days  0 hours 18 minutes 13.1 seconds.
 Elapsed time:       0 days  0 hours  1 minutes 45.6 seconds.
 File lengths (MBytes):  RWF=     18 Int=      0 D2E=      0 Chk=      3 Scr=      1
 Normal termination of Gaussian 16 at Sat Mar 16 14:07:19 2019.
