 Entering Gaussian System, Link 0=g16
 Initial command:
 /util/academic/gaussian/g16.A03/x86-64-SSE4_2/g16/l1.exe "/scratch/2784708/Gau-367670.inp" -scrdir="/scratch/2784708/"
 Entering Link 1 = /util/academic/gaussian/g16.A03/x86-64-SSE4_2/g16/l1.exe PID=    367671.
  
 Copyright (c) 1988,1990,1992,1993,1995,1998,2003,2009,2016,
            Gaussian, Inc.  All Rights Reserved.
  
 This is part of the Gaussian(R) 16 program.  It is based on
 the Gaussian(R) 09 system (copyright 2009, Gaussian, Inc.),
 the Gaussian(R) 03 system (copyright 2003, Gaussian, Inc.),
 the Gaussian(R) 98 system (copyright 1998, Gaussian, Inc.),
 the Gaussian(R) 94 system (copyright 1995, Gaussian, Inc.),
 the Gaussian 92(TM) system (copyright 1992, Gaussian, Inc.),
 the Gaussian 90(TM) system (copyright 1990, Gaussian, Inc.),
 the Gaussian 88(TM) system (copyright 1988, Gaussian, Inc.),
 the Gaussian 86(TM) system (copyright 1986, Carnegie Mellon
 University), and the Gaussian 82(TM) system (copyright 1983,
 Carnegie Mellon University). Gaussian is a federally registered
 trademark of Gaussian, Inc.
  
 This software contains proprietary and confidential information,
 including trade secrets, belonging to Gaussian, Inc.
  
 This software is provided under written license and may be
 used, copied, transmitted, or stored only in accord with that
 written license.
  
 The following legend is applicable only to US Government
 contracts under FAR:
  
                    RESTRICTED RIGHTS LEGEND
  
 Use, reproduction and disclosure by the US Government is
 subject to restrictions as set forth in subparagraphs (a)
 and (c) of the Commercial Computer Software - Restricted
 Rights clause in FAR 52.227-19.
  
 Gaussian, Inc.
 340 Quinnipiac St., Bldg. 40, Wallingford CT 06492
  
  
 ---------------------------------------------------------------
 Warning -- This program may not be used in any manner that
 competes with the business of Gaussian, Inc. or will provide
 assistance to any competitor of Gaussian, Inc.  The licensee
 of this program is prohibited from giving any competitor of
 Gaussian, Inc. access to this program.  By using this program,
 the user acknowledges that Gaussian, Inc. is engaged in the
 business of creating and licensing software in the field of
 computational chemistry and represents and warrants to the
 licensee that it is not a competitor of Gaussian, Inc. and that
 it will not use this program in any manner prohibited above.
 ---------------------------------------------------------------
  

 Cite this work as:
 Gaussian 16, Revision A.03,
 M. J. Frisch, G. W. Trucks, H. B. Schlegel, G. E. Scuseria, 
 M. A. Robb, J. R. Cheeseman, G. Scalmani, V. Barone, 
 G. A. Petersson, H. Nakatsuji, X. Li, M. Caricato, A. V. Marenich, 
 J. Bloino, B. G. Janesko, R. Gomperts, B. Mennucci, H. P. Hratchian, 
 J. V. Ortiz, A. F. Izmaylov, J. L. Sonnenberg, D. Williams-Young, 
 F. Ding, F. Lipparini, F. Egidi, J. Goings, B. Peng, A. Petrone, 
 T. Henderson, D. Ranasinghe, V. G. Zakrzewski, J. Gao, N. Rega, 
 G. Zheng, W. Liang, M. Hada, M. Ehara, K. Toyota, R. Fukuda, 
 J. Hasegawa, M. Ishida, T. Nakajima, Y. Honda, O. Kitao, H. Nakai, 
 T. Vreven, K. Throssell, J. A. Montgomery, Jr., J. E. Peralta, 
 F. Ogliaro, M. J. Bearpark, J. J. Heyd, E. N. Brothers, K. N. Kudin, 
 V. N. Staroverov, T. A. Keith, R. Kobayashi, J. Normand, 
 K. Raghavachari, A. P. Rendell, J. C. Burant, S. S. Iyengar, 
 J. Tomasi, M. Cossi, J. M. Millam, M. Klene, C. Adamo, R. Cammi, 
 J. W. Ochterski, R. L. Martin, K. Morokuma, O. Farkas, 
 J. B. Foresman, and D. J. Fox, Gaussian, Inc., Wallingford CT, 2016.
 
 ******************************************
 Gaussian 16:  ES64L-G16RevA.03 25-Dec-2016
                30-Jan-2019 
 ******************************************
 %NProc=16
 Will use up to   16 processors via shared memory.
 %Chk=chk.chk
 ----------------------------------------
 #P BLYP/def2TZVP TD=(Singlet, NStates=5)
 ----------------------------------------
 1/38=1,172=1/1;
 2/12=2,17=6,18=5,40=1/2;
 3/5=44,7=101,11=9,25=1,30=1,74=402/1,2,3,8;
 4//1;
 5/5=2,38=5/2;
 8/6=1,10=1,108=5/1;
 9/41=5,42=1,48=1,70=2/14;
 6/7=2,8=2,9=2,10=2/1;
 99/5=1,9=1/99;
 Leave Link    1 at Wed Jan 30 20:44:27 2019, MaxMem=           0 cpu:               1.2 elap:               0.1
 (Enter /util/academic/gaussian/g16.A03/x86-64-SSE4_2/g16/l101.exe)
 -----
 tddft
 -----
 Symbolic Z-matrix:
 Charge =  0 Multiplicity = 1
 O                    -2.04861  -0.72184  -0.45625 
 C                    -0.67484  -0.64676  -0.54104 
 C                    -0.12145   0.62332  -0.43699 
 C                     1.28074   0.81404  -0.51048 
 C                     1.88865   2.09938  -0.40478 
 C                     3.25888   2.24566  -0.48027 
 C                     4.11844   1.12399  -0.67242 
 C                     3.54989  -0.13658  -0.77239 
 C                     2.14203  -0.32802  -0.6973 
 C                     0.1694   -1.77861  -0.72422 
 C                     5.63488   1.35078  -0.76405 
 C                     6.32969   0.80818   0.49135 
 O                     6.54123  -0.55074   0.43718 
 O                     6.6602    1.47568   1.45163 
 C                     6.25828   0.8135   -2.07521 
 H                     5.80572   2.43279  -0.71309 
 H                     5.78375   1.30391  -2.93421 
 H                     6.12004  -0.26796  -2.17593 
 H                     7.33548   1.02353  -2.11008 
 H                     6.95423  -0.79415   1.29317 
 H                     1.25341   2.97343  -0.26069 
 H                     3.69943   3.23875  -0.39184 
 H                     4.18161  -1.015    -0.90189 
 C                     1.5407   -1.61194  -0.79899 
 H                    -0.25324  -2.77623  -0.80637 
 H                     2.18017  -2.48369  -0.93953 
 H                    -0.78333   1.47688  -0.29594 
 C                    -2.68093  -2.00854  -0.55314 
 H                    -2.35913  -2.67953   0.25752 
 H                    -2.48231  -2.48486  -1.52509 
 H                    -3.75324  -1.81397  -0.45783 
 
 ITRead=  0  0  0  0  0  0  0  0  0  0  0  0  0  0  0  0  0  0  0  0
 ITRead=  0  0  0  0  0  0  0  0  0  0  0
 MicOpt= -1 -1 -1 -1 -1 -1 -1 -1 -1 -1 -1 -1 -1 -1 -1 -1 -1 -1 -1 -1
 MicOpt= -1 -1 -1 -1 -1 -1 -1 -1 -1 -1 -1
 NAtoms=     31 NQM=       31 NQMF=       0 NMMI=      0 NMMIF=      0
                NMic=       0 NMicF=      0.
                    Isotopes and Nuclear Properties:
 (Nuclear quadrupole moments (NQMom) in fm**2, nuclear magnetic moments (NMagM)
  in nuclear magnetons)

  Atom         1           2           3           4           5           6           7           8           9          10
 IAtWgt=          16          12          12          12          12          12          12          12          12          12
 AtmWgt=  15.9949146  12.0000000  12.0000000  12.0000000  12.0000000  12.0000000  12.0000000  12.0000000  12.0000000  12.0000000
 NucSpn=           0           0           0           0           0           0           0           0           0           0
 AtZEff=  -0.0000000  -0.0000000  -0.0000000  -0.0000000  -0.0000000  -0.0000000  -0.0000000  -0.0000000  -0.0000000  -0.0000000
 NQMom=    0.0000000   0.0000000   0.0000000   0.0000000   0.0000000   0.0000000   0.0000000   0.0000000   0.0000000   0.0000000
 NMagM=    0.0000000   0.0000000   0.0000000   0.0000000   0.0000000   0.0000000   0.0000000   0.0000000   0.0000000   0.0000000
 AtZNuc=   8.0000000   6.0000000   6.0000000   6.0000000   6.0000000   6.0000000   6.0000000   6.0000000   6.0000000   6.0000000

  Atom        11          12          13          14          15          16          17          18          19          20
 IAtWgt=          12          12          16          16          12           1           1           1           1           1
 AtmWgt=  12.0000000  12.0000000  15.9949146  15.9949146  12.0000000   1.0078250   1.0078250   1.0078250   1.0078250   1.0078250
 NucSpn=           0           0           0           0           0           1           1           1           1           1
 AtZEff=  -0.0000000  -0.0000000  -0.0000000  -0.0000000  -0.0000000  -0.0000000  -0.0000000  -0.0000000  -0.0000000  -0.0000000
 NQMom=    0.0000000   0.0000000   0.0000000   0.0000000   0.0000000   0.0000000   0.0000000   0.0000000   0.0000000   0.0000000
 NMagM=    0.0000000   0.0000000   0.0000000   0.0000000   0.0000000   2.7928460   2.7928460   2.7928460   2.7928460   2.7928460
 AtZNuc=   6.0000000   6.0000000   8.0000000   8.0000000   6.0000000   1.0000000   1.0000000   1.0000000   1.0000000   1.0000000

  Atom        21          22          23          24          25          26          27          28          29          30
 IAtWgt=           1           1           1          12           1           1           1          12           1           1
 AtmWgt=   1.0078250   1.0078250   1.0078250  12.0000000   1.0078250   1.0078250   1.0078250  12.0000000   1.0078250   1.0078250
 NucSpn=           1           1           1           0           1           1           1           0           1           1
 AtZEff=  -0.0000000  -0.0000000  -0.0000000  -0.0000000  -0.0000000  -0.0000000  -0.0000000  -0.0000000  -0.0000000  -0.0000000
 NQMom=    0.0000000   0.0000000   0.0000000   0.0000000   0.0000000   0.0000000   0.0000000   0.0000000   0.0000000   0.0000000
 NMagM=    2.7928460   2.7928460   2.7928460   0.0000000   2.7928460   2.7928460   2.7928460   0.0000000   2.7928460   2.7928460
 AtZNuc=   1.0000000   1.0000000   1.0000000   6.0000000   1.0000000   1.0000000   1.0000000   6.0000000   1.0000000   1.0000000

  Atom        31
 IAtWgt=           1
 AtmWgt=   1.0078250
 NucSpn=           1
 AtZEff=  -0.0000000
 NQMom=    0.0000000
 NMagM=    2.7928460
 AtZNuc=   1.0000000
 Leave Link  101 at Wed Jan 30 20:44:27 2019, MaxMem=   104857600 cpu:               1.5 elap:               0.1
 (Enter /util/academic/gaussian/g16.A03/x86-64-SSE4_2/g16/l202.exe)
                          Input orientation:                          
 ---------------------------------------------------------------------
 Center     Atomic      Atomic             Coordinates (Angstroms)
 Number     Number       Type             X           Y           Z
 ---------------------------------------------------------------------
      1          8           0       -2.048605   -0.721840   -0.456245
      2          6           0       -0.674837   -0.646757   -0.541043
      3          6           0       -0.121449    0.623317   -0.436988
      4          6           0        1.280742    0.814044   -0.510481
      5          6           0        1.888654    2.099382   -0.404783
      6          6           0        3.258877    2.245662   -0.480267
      7          6           0        4.118443    1.123988   -0.672416
      8          6           0        3.549889   -0.136576   -0.772394
      9          6           0        2.142032   -0.328023   -0.697301
     10          6           0        0.169398   -1.778610   -0.724219
     11          6           0        5.634881    1.350781   -0.764054
     12          6           0        6.329694    0.808178    0.491346
     13          8           0        6.541226   -0.550744    0.437182
     14          8           0        6.660201    1.475679    1.451632
     15          6           0        6.258275    0.813497   -2.075214
     16          1           0        5.805717    2.432788   -0.713085
     17          1           0        5.783750    1.303910   -2.934209
     18          1           0        6.120036   -0.267962   -2.175928
     19          1           0        7.335476    1.023528   -2.110083
     20          1           0        6.954226   -0.794152    1.293169
     21          1           0        1.253413    2.973426   -0.260687
     22          1           0        3.699429    3.238749   -0.391841
     23          1           0        4.181605   -1.014996   -0.901885
     24          6           0        1.540695   -1.611935   -0.798985
     25          1           0       -0.253240   -2.776231   -0.806365
     26          1           0        2.180166   -2.483691   -0.939531
     27          1           0       -0.783332    1.476876   -0.295943
     28          6           0       -2.680932   -2.008541   -0.553144
     29          1           0       -2.359134   -2.679527    0.257524
     30          1           0       -2.482311   -2.484864   -1.525086
     31          1           0       -3.753242   -1.813967   -0.457828
 ---------------------------------------------------------------------
                    Distance matrix (angstroms):
                    1          2          3          4          5
     1  O    0.000000
     2  C    1.378429   0.000000
     3  C    2.350266   1.389300   0.000000
     4  C    3.666938   2.441140   1.417010   0.000000
     5  C    4.843960   3.759166   2.494057   1.425771   0.000000
     6  C    6.080790   4.883020   3.749731   2.442020   1.380075
     7  C    6.440985   5.111588   4.275837   2.859167   2.448465
     8  C    5.637874   4.261704   3.764128   2.474127   2.809688
     9  C    4.215998   2.839148   2.469040   1.442581   2.458061
    10  C    2.471459   1.423860   2.436462   2.828891   4.254022
    11  C    7.964073   6.622117   5.811326   4.394418   3.837147
    12  C    8.569409   7.228148   6.520217   5.147388   4.710954
    13  O    8.637863   7.282699   6.821571   5.516648   5.420194
    14  O    9.182178   7.891658   7.091134   5.764220   5.157804
    15  C    8.601312   7.249418   6.589448   5.217684   4.851539
    16  H    8.468059   7.177101   6.203363   4.810071   3.943297
    17  H    8.461073   7.158610   6.447534   5.137267   4.711958
    18  H    8.360025   6.999045   6.540216   5.230986   5.161963
    19  H    9.687232   8.331678   7.652787   6.265973   5.808044
    20  H    9.171513   7.847844   7.420771   6.166674   6.075821
    21  H    4.959492   4.111262   2.728432   2.173954   1.090068
    22  H    6.980710   5.852659   4.630511   3.426852   2.139446
    23  H    6.253003   4.883732   4.627793   3.451607   3.899242
    24  C    3.713868   2.430367   2.808935   2.456865   3.748379
    25  H    2.750717   2.186961   3.422095   3.915447   5.340466
    26  H    4.606538   3.418210   3.899164   3.445011   4.623364
    27  H    2.541843   2.140482   1.089287   2.178480   2.745700
    28  C    1.436950   2.424669   3.673026   4.864532   6.146394
    29  H    2.106759   2.758028   4.049489   5.103290   6.428089
    30  H    2.106840   2.759337   4.051964   5.106152   6.432397
    31  H    2.024483   3.293309   4.373866   5.678927   6.866448
                    6          7          8          9         10
     6  C    0.000000
     7  C    1.426158   0.000000
     8  C    2.417661   1.386460   0.000000
     9  C    2.813948   2.452581   1.422797   0.000000
    10  C    5.079287   4.901297   3.758499   2.448716   0.000000
    11  C    2.554749   1.536039   2.561151   3.875930   6.298109
    12  C    3.527082   2.518672   3.196391   4.498927   6.791047
    13  O    4.408561   3.147350   3.253107   4.548578   6.592170
    14  O    3.986742   3.331036   4.149662   5.318374   7.579924
    15  C    3.686644   2.577427   3.152036   4.488337   6.754156
    16  H    2.564296   2.135768   3.419636   4.587474   7.035914
    17  H    3.644683   2.814485   3.426161   4.574830   6.775466
    18  H    4.168909   2.864341   2.931352   4.244345   6.308693
    19  H    4.557255   3.525093   4.179225   5.549280   7.818265
    20  H    5.103053   3.947715   4.035897   5.228428   7.146531
    21  H    2.144701   3.434871   3.899713   3.446715   4.896100
    22  H    1.090012   2.174054   3.400000   3.903928   6.143735
    23  H    3.414832   2.152184   1.089704   2.161861   4.088090
    24  C    4.234948   3.761127   2.492840   1.421399   1.383411
    25  H    6.136833   5.860142   4.629549   3.426798   1.086563
    26  H    4.872507   4.104097   2.722687   2.169570   2.141655
    27  H    4.118794   4.928860   4.648337   3.460708   3.418962
    28  C    7.306496   7.487220   6.509643   5.109394   2.864702
    29  H    7.507587   7.569050   6.514897   5.167374   2.858137
    30  H    7.512041   7.571051   6.516781   5.169307   2.858626
    31  H    8.102525   8.404823   7.499888   6.084376   3.931834
                   11         12         13         14         15
    11  C    0.000000
    12  C    1.534018   0.000000
    13  O    2.424918   1.376353   0.000000
    14  O    2.444616   1.215295   2.269285   0.000000
    15  C    1.548042   2.567559   2.872864   3.610910   0.000000
    16  H    1.096596   2.089154   3.281090   2.516386   2.163864
    17  H    2.175760   3.504031   3.921707   4.475854   1.097065
    18  H    2.202065   2.883814   2.661900   4.060942   1.094900
    19  H    2.193379   2.797393   3.098019   3.653252   1.098040
    20  H    3.251703   1.897478   0.981086   2.294274   3.796694
    21  H    4.699321   5.569783   6.392790   5.865888   5.745124
    22  H    2.729275   3.688630   4.808674   3.908066   3.906825
    23  H    2.779912   3.143142   2.752534   4.229178   3.005436
    24  C    5.053837   5.518733   5.259234   6.388112   5.455918
    25  H    7.190548   7.607040   7.256995   8.424545   7.542941
    26  H    5.164206   5.486565   4.964924   6.439331   5.365836
    27  H    6.436496   7.187637   7.635304   7.645927   7.293155
    28  C    8.971191   9.498223   9.389042  10.169350   9.496842
    29  H    9.010620   9.365601   9.153164  10.002002   9.586585
    30  H    9.010003   9.620892   9.434804  10.398667   9.358401
    31  H    9.911925  10.461461  10.410228  11.086370  10.476162
                   16         17         18         19         20
    16  H    0.000000
    17  H    2.491634   0.000000
    18  H    3.087516   1.777318   0.000000
    19  H    2.505550   1.779228   1.774705   0.000000
    20  H    3.969543   4.862366   3.606575   3.877040   0.000000
    21  H    4.606563   5.518963   6.152948   6.649350   7.007737
    22  H    2.277986   3.814660   4.619451   4.591339   5.449519
    23  H    3.815835   3.474843   2.436957   3.944899   3.543228
    24  C    5.878569   5.573585   4.967152   6.499548   5.861075
    25  H    7.990841   7.590818   6.984681   8.586411   7.764293
    26  H    6.112910   5.595577   4.686225   6.344131   5.534541
    27  H    6.671083   7.079331   7.364461   8.331367   8.219042
    28  C    9.579885   9.396417   9.117021  10.580450   9.885337
    29  H    9.682078   9.610489   9.145144  10.644418   9.558550
    30  H    9.671301   9.201533   8.907223  10.442221   9.992462
    31  H   10.462972  10.334788  10.140198  11.564644  10.897517
                   21         22         23         24         25
    21  H    0.000000
    22  H    2.463857   0.000000
    23  H    4.989284   4.311263   0.000000
    24  C    4.625779   5.324945   2.709489   0.000000
    25  H    5.968779   7.209397   4.772727   2.138654   0.000000
    26  H    5.576722   5.945960   2.482789   1.090245   2.454542
    27  H    2.527694   4.817524   5.588129   3.898064   4.316300
    28  C    6.354888   8.262510   6.942850   4.247337   2.558741
    29  H    6.728664   8.494342   6.848077   4.179070   2.361356
    30  H    6.734038   8.500465   6.852494   4.180168   2.360130
    31  H    6.929978   9.004254   7.987324   5.308764   3.646566
                   26         27         28         29         30
    26  H    0.000000
    27  H    4.988248   0.000000
    28  C    4.899524   3.976829   0.000000
    29  H    4.698568   4.479416   1.100436   0.000000
    30  H    4.699103   4.482489   1.100457   1.797433   0.000000
    31  H    5.990484   4.435789   1.093980   1.790100   1.790086
                   31
    31  H    0.000000
 Stoichiometry    C14H14O3
 Framework group  C1[X(C14H14O3)]
 Deg. of freedom    87
 Full point group                 C1      NOp   1
 Largest Abelian subgroup         C1      NOp   1
 Largest concise Abelian subgroup C1      NOp   1
                         Standard orientation:                         
 ---------------------------------------------------------------------
 Center     Atomic      Atomic             Coordinates (Angstroms)
 Number     Number       Type             X           Y           Z
 ---------------------------------------------------------------------
      1          8           0        4.727826    0.348694   -0.250498
      2          6           0        3.388027    0.066204   -0.091735
      3          6           0        2.521234    1.150710   -0.143397
      4          6           0        1.123597    0.972646    0.007671
      5          6           0        0.200184    2.057827   -0.042468
      6          6           0       -1.155055    1.845070    0.108093
      7          6           0       -1.684563    0.538773    0.325207
      8          6           0       -0.805817   -0.532615    0.372166
      9          6           0        0.597382   -0.353777    0.219188
     10          6           0        2.875429   -1.245934    0.115424
     11          6           0       -3.200685    0.365985    0.501092
     12          6           0       -3.801228   -0.332878   -0.725346
     13          8           0       -3.652205   -1.700533   -0.684598
     14          8           0       -4.345593    0.230272   -1.654578
     15          6           0       -3.590449   -0.318986    1.833509
     16          1           0       -3.647045    1.367377    0.478782
     17          1           0       -3.211086    0.274075    2.674885
     18          1           0       -3.172898   -1.328453    1.907222
     19          1           0       -4.681716   -0.394343    1.929153
     20          1           0       -4.035678   -2.039091   -1.521770
     21          1           0        0.579770    3.066790   -0.204196
     22          1           0       -1.840779    2.691059    0.061061
     23          1           0       -1.181691   -1.544840    0.519047
     24          6           0        1.513861   -1.439263    0.265693
     25          1           0        3.544690   -2.100905    0.157053
     26          1           0        1.129407   -2.447094    0.424143
     27          1           0        2.931967    2.146751   -0.303859
     28          6           0        5.674650   -0.731467   -0.210461
     29          1           0        5.491826   -1.459724   -1.014933
     30          1           0        5.660001   -1.246587    0.761877
     31          1           0        6.653601   -0.266262   -0.358895
 ---------------------------------------------------------------------
 Rotational constants (GHZ):           1.2533962           0.2051599           0.1933965
 Leave Link  202 at Wed Jan 30 20:44:27 2019, MaxMem=   104857600 cpu:               1.4 elap:               0.1
 (Enter /util/academic/gaussian/g16.A03/x86-64-SSE4_2/g16/l301.exe)
 Standard basis: def2TZVP (5D, 7F)
 Ernie: Thresh=  0.10000D-02 Tol=  0.10000D-05 Strict=F.
 There are   696 symmetry adapted cartesian basis functions of A   symmetry.
 There are   611 symmetry adapted basis functions of A   symmetry.
   611 basis functions,   979 primitive gaussians,   696 cartesian basis functions
    61 alpha electrons       61 beta electrons
       nuclear repulsion energy      1121.0195192912 Hartrees.
 IExCor=  402 DFT=T Ex=B Corr=LYP ExCW=0 ScaHFX=  0.000000
 ScaDFX=  1.000000  1.000000  1.000000  1.000000 ScalE2=  1.000000  1.000000
 IRadAn=      5 IRanWt=     -1 IRanGd=            0 ICorTp=0 IEmpDi=  4
 NAtoms=   31 NActive=   31 NUniq=   31 SFac= 1.00D+00 NAtFMM=   60 NAOKFM=F Big=F
 Integral buffers will be    131072 words long.
 Regular integral format.
 Two-electron integral symmetry is turned on.
 Leave Link  301 at Wed Jan 30 20:44:28 2019, MaxMem=   104857600 cpu:               3.6 elap:               0.3
 (Enter /util/academic/gaussian/g16.A03/x86-64-SSE4_2/g16/l302.exe)
 NPDir=0 NMtPBC=     1 NCelOv=     1 NCel=       1 NClECP=     1 NCelD=      1
         NCelK=      1 NCelE2=     1 NClLst=     1 CellRange=     0.0.
 One-electron integrals computed using PRISM.
 One-electron integral symmetry used in STVInt
 PrsmSu:  requested number of processors reduced to:  12 ShMem   1 Linda.
   1 Symmetry operations used in ECPInt.
 ECPInt:  NShTT=   29646 NPrTT=   90516 LenC2=   25774 LenP2D=   57396.
 LDataN:  DoStor=T MaxTD1= 6 Len=  172
 Number of processors reduced to  11 by ecpmxn.
 NBasis=   611 RedAO= T EigKep=  5.92D-06  NBF=   611
 NBsUse=   611 1.00D-06 EigRej= -1.00D+00 NBFU=   611
 Precomputing XC quadrature grid using
 IXCGrd= 4 IRadAn=           5 IRanWt=          -1 IRanGd=           0 AccXCQ= 0.00D+00.
 Generated NRdTot=       0 NPtTot=           0 NUsed=           0 NTot=          32
 NSgBfM=   684   684   684   684   684 MxSgAt=    31 MxSgA2=    31.
 Leave Link  302 at Wed Jan 30 20:44:28 2019, MaxMem=   104857600 cpu:              11.6 elap:               0.8
 (Enter /util/academic/gaussian/g16.A03/x86-64-SSE4_2/g16/l303.exe)
 DipDrv:  MaxL=1.
 Leave Link  303 at Wed Jan 30 20:44:29 2019, MaxMem=   104857600 cpu:               2.6 elap:               0.2
 (Enter /util/academic/gaussian/g16.A03/x86-64-SSE4_2/g16/l308.exe)
 Leave Link  308 at Wed Jan 30 20:44:29 2019, MaxMem=   104857600 cpu:               5.4 elap:               0.5
 (Enter /util/academic/gaussian/g16.A03/x86-64-SSE4_2/g16/l401.exe)
 ExpMin= 9.52D-02 ExpMax= 2.70D+04 ExpMxC= 9.22D+02 IAcc=3 IRadAn=         5 AccDes= 0.00D+00
 Harris functional with IExCor=  402 and IRadAn=       5 diagonalized for initial guess.
 HarFok:  IExCor=  402 AccDes= 0.00D+00 IRadAn=         5 IDoV= 1 UseB2=F ITyADJ=14
 ICtDFT=  3500011 ScaDFX=  1.000000  1.000000  1.000000  1.000000
 FoFCou: FMM=F IPFlag=           0 FMFlag=      100000 FMFlg1=           0
         NFxFlg=           0 DoJE=T BraDBF=F KetDBF=T FulRan=T
         wScrn=  0.000000 ICntrl=       500 IOpCl=  0 I1Cent=   200000004 NGrid=           0
         NMat0=    1 NMatS0=      1 NMatT0=    0 NMatD0=    1 NMtDS0=    0 NMtDT0=    0
 Petite list used in FoFCou.
 Harris En= -767.965718707576    
 JPrj=0 DoOrth=F DoCkMO=F.
 Leave Link  401 at Wed Jan 30 20:44:33 2019, MaxMem=   104857600 cpu:              52.7 elap:               3.4
 (Enter /util/academic/gaussian/g16.A03/x86-64-SSE4_2/g16/l502.exe)
 Integral symmetry usage will be decided dynamically.
 Closed shell SCF:
 Using DIIS extrapolation, IDIIS=  1040.
 NGot=   104857600 LenX=   103871469 LenY=   103386357
 Requested convergence on RMS density matrix=1.00D-08 within 128 cycles.
 Requested convergence on MAX density matrix=1.00D-06.
 Requested convergence on             energy=1.00D-06.
 No special actions if energy rises.
 Fock matrices will be formed incrementally for  20 cycles.
 Integral accuracy reduced to 1.0D-05 until final iterations.

 Cycle   1  Pass 0  IDiag  1:
 FoFJK:  IHMeth= 1 ICntrl=     500 DoSepK=F KAlg= 0 I1Cent=           0 FoldK=F
 IRaf= 810000000 NMat=       1 IRICut=       1 DoRegI=T DoRafI=F ISym2E= 0 IDoP0=0 IntGTp=1.
 FoFCou: FMM=F IPFlag=           0 FMFlag=      100000 FMFlg1=           0
         NFxFlg=           0 DoJE=T BraDBF=F KetDBF=F FulRan=T
         wScrn=  0.000000 ICntrl=       500 IOpCl=  0 I1Cent=           0 NGrid=           0
         NMat0=    1 NMatS0=      1 NMatT0=    0 NMatD0=    1 NMtDS0=    0 NMtDT0=    0
 Symmetry not used in FoFCou.
 E= -767.208021496478    
 DIIS: error= 1.79D-02 at cycle   1 NSaved=   1.
 NSaved= 1 IEnMin= 1 EnMin= -767.208021496478     IErMin= 1 ErrMin= 1.79D-02
 ErrMax= 1.79D-02  0.00D+00 EMaxC= 1.00D-01 BMatC= 4.51D-01 BMatP= 4.51D-01
 IDIUse=3 WtCom= 8.21D-01 WtEn= 1.79D-01
 Coeff-Com:  0.100D+01
 Coeff-En:   0.100D+01
 Coeff:      0.100D+01
 Gap=     0.119 Goal=   None    Shift=    0.000
 GapD=    0.119 DampG=1.000 DampE=0.500 DampFc=0.5000 IDamp=-1.
 Damping current iteration by 5.00D-01
 RMSDP=1.12D-02 MaxDP=1.74D+00              OVMax= 2.72D-01

 Cycle   2  Pass 0  IDiag  1:
 RMSU=  5.57D-03    CP:  1.09D+00
 E= -767.269132039898     Delta-E=       -0.061110543420 Rises=F Damp=T
 DIIS: error= 8.84D-03 at cycle   2 NSaved=   2.
 NSaved= 2 IEnMin= 2 EnMin= -767.269132039898     IErMin= 2 ErrMin= 8.84D-03
 ErrMax= 8.84D-03  0.00D+00 EMaxC= 1.00D-01 BMatC= 1.07D-01 BMatP= 4.51D-01
 IDIUse=3 WtCom= 9.12D-01 WtEn= 8.84D-02
 Coeff-Com:  0.287D+00 0.713D+00
 Coeff-En:   0.435D+00 0.565D+00
 Coeff:      0.300D+00 0.700D+00
 Gap=     0.157 Goal=   None    Shift=    0.000
 RMSDP=2.33D-03 MaxDP=3.66D-01 DE=-6.11D-02 OVMax= 2.67D-01

 Cycle   3  Pass 0  IDiag  1:
 RMSU=  1.76D-03    CP:  1.06D+00  7.29D-01
 E= -767.524767385421     Delta-E=       -0.255635345523 Rises=F Damp=F
 DIIS: error= 1.01D-02 at cycle   3 NSaved=   3.
 NSaved= 3 IEnMin= 3 EnMin= -767.524767385421     IErMin= 2 ErrMin= 8.84D-03
 ErrMax= 1.01D-02  0.00D+00 EMaxC= 1.00D-01 BMatC= 1.29D-01 BMatP= 1.07D-01
 IDIUse=2 WtCom= 0.00D+00 WtEn= 1.00D+00
 Coeff-En:   0.000D+00 0.000D+00 0.100D+01
 Coeff:      0.000D+00 0.000D+00 0.100D+01
 Gap=     0.113 Goal=   None    Shift=    0.000
 RMSDP=3.47D-03 MaxDP=2.70D-01 DE=-2.56D-01 OVMax= 4.65D-01

 Cycle   4  Pass 0  IDiag  1:
 RMSU=  2.70D-03    CP:  1.06D+00  8.74D-01 -1.51D-01
 E= -766.411877411812     Delta-E=        1.112889973609 Rises=F Damp=F
 DIIS: error= 3.82D-02 at cycle   4 NSaved=   4.
 NSaved= 4 IEnMin= 3 EnMin= -767.524767385421     IErMin= 2 ErrMin= 8.84D-03
 ErrMax= 3.82D-02  0.00D+00 EMaxC= 1.00D-01 BMatC= 1.47D+00 BMatP= 1.07D-01
 IDIUse=2 WtCom= 0.00D+00 WtEn= 1.00D+00
 Coeff-En:   0.000D+00 0.000D+00 0.860D+00 0.140D+00
 Coeff:      0.000D+00 0.000D+00 0.860D+00 0.140D+00
 Gap=     0.099 Goal=   None    Shift=    0.000
 RMSDP=2.45D-03 MaxDP=1.88D-01 DE= 1.11D+00 OVMax= 2.79D-01

 Cycle   5  Pass 0  IDiag  1:
 RMSU=  6.76D-04    CP:  1.05D+00  6.44D-01  5.41D-01  4.25D-01
 E= -767.491950574619     Delta-E=       -1.080073162807 Rises=F Damp=F
 DIIS: error= 1.14D-02 at cycle   5 NSaved=   5.
 NSaved= 5 IEnMin= 3 EnMin= -767.524767385421     IErMin= 2 ErrMin= 8.84D-03
 ErrMax= 1.14D-02  0.00D+00 EMaxC= 1.00D-01 BMatC= 1.75D-01 BMatP= 1.07D-01
 IDIUse=2 WtCom= 0.00D+00 WtEn= 1.00D+00
 Coeff-En:   0.000D+00 0.000D+00 0.546D+00 0.000D+00 0.454D+00
 Coeff:      0.000D+00 0.000D+00 0.546D+00 0.000D+00 0.454D+00
 Gap=     0.125 Goal=   None    Shift=    0.000
 RMSDP=8.38D-04 MaxDP=6.92D-02 DE=-1.08D+00 OVMax= 1.33D-01

 Cycle   6  Pass 0  IDiag  1:
 RMSU=  1.83D-04    CP:  1.06D+00  6.74D-01  7.74D-01  1.92D-01  6.01D-01
 E= -767.628432894245     Delta-E=       -0.136482319626 Rises=F Damp=F
 DIIS: error= 7.51D-04 at cycle   6 NSaved=   6.
 NSaved= 6 IEnMin= 6 EnMin= -767.628432894245     IErMin= 6 ErrMin= 7.51D-04
 ErrMax= 7.51D-04  0.00D+00 EMaxC= 1.00D-01 BMatC= 7.56D-04 BMatP= 1.07D-01
 IDIUse=3 WtCom= 9.92D-01 WtEn= 7.51D-03
 Coeff-Com: -0.899D-03 0.155D-01 0.225D+00-0.336D-01 0.261D+00 0.533D+00
 Coeff-En:   0.000D+00 0.000D+00 0.000D+00 0.000D+00 0.000D+00 0.100D+01
 Coeff:     -0.892D-03 0.154D-01 0.223D+00-0.333D-01 0.259D+00 0.536D+00
 Gap=     0.109 Goal=   None    Shift=    0.000
 RMSDP=9.32D-05 MaxDP=5.12D-03 DE=-1.36D-01 OVMax= 1.16D-02

 Cycle   7  Pass 0  IDiag  1:
 RMSU=  7.67D-05    CP:  1.06D+00  6.78D-01  7.70D-01  2.02D-01  6.00D-01
                    CP:  7.83D-01
 E= -767.628798407144     Delta-E=       -0.000365512899 Rises=F Damp=F
 DIIS: error= 6.33D-04 at cycle   7 NSaved=   7.
 NSaved= 7 IEnMin= 7 EnMin= -767.628798407144     IErMin= 7 ErrMin= 6.33D-04
 ErrMax= 6.33D-04  0.00D+00 EMaxC= 1.00D-01 BMatC= 4.18D-04 BMatP= 7.56D-04
 IDIUse=3 WtCom= 9.94D-01 WtEn= 6.33D-03
 Coeff-Com: -0.246D-02 0.518D-02 0.661D-01-0.937D-02 0.518D-01 0.388D+00
 Coeff-Com:  0.501D+00
 Coeff-En:   0.000D+00 0.000D+00 0.000D+00 0.000D+00 0.000D+00 0.319D+00
 Coeff-En:   0.681D+00
 Coeff:     -0.244D-02 0.515D-02 0.656D-01-0.931D-02 0.515D-01 0.387D+00
 Coeff:      0.502D+00
 Gap=     0.109 Goal=   None    Shift=    0.000
 RMSDP=6.50D-05 MaxDP=1.13D-02 DE=-3.66D-04 OVMax= 5.93D-03

 Cycle   8  Pass 0  IDiag  1:
 RMSU=  3.66D-05    CP:  1.06D+00  6.85D-01  7.76D-01  1.94D-01  5.88D-01
                    CP:  8.89D-01  8.16D-01
 E= -767.629129996426     Delta-E=       -0.000331589282 Rises=F Damp=F
 DIIS: error= 2.20D-04 at cycle   8 NSaved=   8.
 NSaved= 8 IEnMin= 8 EnMin= -767.629129996426     IErMin= 8 ErrMin= 2.20D-04
 ErrMax= 2.20D-04  0.00D+00 EMaxC= 1.00D-01 BMatC= 3.69D-05 BMatP= 4.18D-04
 IDIUse=3 WtCom= 9.98D-01 WtEn= 2.20D-03
 Coeff-Com: -0.137D-02-0.475D-03 0.189D-01-0.366D-03-0.264D-02 0.211D+00
 Coeff-Com:  0.318D+00 0.457D+00
 Coeff-En:   0.000D+00 0.000D+00 0.000D+00 0.000D+00 0.000D+00 0.000D+00
 Coeff-En:   0.000D+00 0.100D+01
 Coeff:     -0.136D-02-0.474D-03 0.188D-01-0.365D-03-0.263D-02 0.210D+00
 Coeff:      0.317D+00 0.459D+00
 Gap=     0.109 Goal=   None    Shift=    0.000
 RMSDP=4.77D-05 MaxDP=4.79D-03 DE=-3.32D-04 OVMax= 2.14D-03

 Cycle   9  Pass 0  IDiag  1:
 RMSU=  2.88D-05    CP:  1.06D+00  6.78D-01  7.74D-01  1.93D-01  5.88D-01
                    CP:  8.82D-01  9.91D-01  9.71D-01
 E= -767.629157526316     Delta-E=       -0.000027529891 Rises=F Damp=F
 DIIS: error= 6.50D-05 at cycle   9 NSaved=   9.
 NSaved= 9 IEnMin= 9 EnMin= -767.629157526316     IErMin= 9 ErrMin= 6.50D-05
 ErrMax= 6.50D-05  0.00D+00 EMaxC= 1.00D-01 BMatC= 3.96D-06 BMatP= 3.69D-05
 IDIUse=1 WtCom= 1.00D+00 WtEn= 0.00D+00
 Coeff-Com: -0.440D-03-0.267D-03 0.809D-02 0.249D-03-0.547D-02 0.106D+00
 Coeff-Com:  0.176D+00 0.322D+00 0.395D+00
 Coeff:     -0.440D-03-0.267D-03 0.809D-02 0.249D-03-0.547D-02 0.106D+00
 Coeff:      0.176D+00 0.322D+00 0.395D+00
 Gap=     0.109 Goal=   None    Shift=    0.000
 RMSDP=6.04D-05 MaxDP=5.12D-03 DE=-2.75D-05 OVMax= 1.42D-03

 Cycle  10  Pass 0  IDiag  1:
 RMSU=  2.38D-05    CP:  1.06D+00  6.71D-01  7.67D-01  1.91D-01  5.87D-01
                    CP:  8.50D-01  1.17D+00  1.08D+00  1.95D+00
 E= -767.629157042798     Delta-E=        0.000000483518 Rises=F Damp=F
 DIIS: error= 3.47D-05 at cycle  10 NSaved=  10.
 NSaved=10 IEnMin= 9 EnMin= -767.629157526316     IErMin=10 ErrMin= 3.47D-05
 ErrMax= 3.47D-05  0.00D+00 EMaxC= 1.00D-01 BMatC= 6.54D-07 BMatP= 3.96D-06
 IDIUse=1 WtCom= 1.00D+00 WtEn= 0.00D+00
 Coeff-Com: -0.545D-04-0.121D-04 0.376D-02 0.138D-03-0.363D-02 0.498D-01
 Coeff-Com:  0.920D-01 0.189D+00 0.303D+00 0.366D+00
 Coeff:     -0.545D-04-0.121D-04 0.376D-02 0.138D-03-0.363D-02 0.498D-01
 Coeff:      0.920D-01 0.189D+00 0.303D+00 0.366D+00
 Gap=     0.109 Goal=   None    Shift=    0.000
 RMSDP=1.06D-04 MaxDP=8.93D-03 DE= 4.84D-07 OVMax= 4.71D-04

 Cycle  11  Pass 0  IDiag  1:
 RMSU=  1.78D-05    CP:  1.06D+00  6.56D-01  7.51D-01  1.86D-01  5.84D-01
                    CP:  7.87D-01  1.39D+00  1.09D+00  3.00D+00  2.66D+00
 E= -767.629154854161     Delta-E=        0.000002188637 Rises=F Damp=F
 DIIS: error= 3.80D-05 at cycle  11 NSaved=  11.
 NSaved=11 IEnMin= 9 EnMin= -767.629157526316     IErMin=10 ErrMin= 3.47D-05
 ErrMax= 3.80D-05  0.00D+00 EMaxC= 1.00D-01 BMatC= 2.88D-07 BMatP= 6.54D-07
 IDIUse=1 WtCom= 1.00D+00 WtEn= 0.00D+00
 Coeff-Com: -0.511D-04 0.387D-05 0.409D-02 0.162D-03-0.413D-02 0.548D-01
 Coeff-Com:  0.102D+00 0.211D+00 0.345D+00 0.436D+00-0.148D+00
 Coeff:     -0.511D-04 0.387D-05 0.409D-02 0.162D-03-0.413D-02 0.548D-01
 Coeff:      0.102D+00 0.211D+00 0.345D+00 0.436D+00-0.148D+00
 Gap=     0.109 Goal=   None    Shift=    0.000
 RMSDP=5.63D-05 MaxDP=4.68D-03 DE= 2.19D-06 OVMax= 3.78D-05

 Problem detected with inexpensive integrals.
 Switching to full accuracy and repeating last cycle.
 Cycle  12  Pass 1  IDiag  1:
 E= -767.629132486214     Delta-E=        0.000022367947 Rises=F Damp=F
 DIIS: error= 4.51D-04 at cycle   1 NSaved=   1.
 NSaved= 1 IEnMin= 1 EnMin= -767.629132486214     IErMin= 1 ErrMin= 4.51D-04
 ErrMax= 4.51D-04  0.00D+00 EMaxC= 1.00D-01 BMatC= 5.25D-05 BMatP= 5.25D-05
 IDIUse=3 WtCom= 9.95D-01 WtEn= 4.51D-03
 Coeff-Com:  0.100D+01
 Coeff-En:   0.100D+01
 Coeff:      0.100D+01
 Gap=     0.109 Goal=   None    Shift=    0.000
 RMSDP=2.79D-03 MaxDP=2.46D-01 DE= 2.24D-05 OVMax= 1.10D-03

 Cycle  13  Pass 1  IDiag  1:
 RMSU=  2.40D-03    CP:  8.26D-01
 E= -767.629169691219     Delta-E=       -0.000037205005 Rises=F Damp=F
 DIIS: error= 9.90D-06 at cycle   2 NSaved=   2.
 NSaved= 2 IEnMin= 2 EnMin= -767.629169691219     IErMin= 2 ErrMin= 9.90D-06
 ErrMax= 9.90D-06  0.00D+00 EMaxC= 1.00D-01 BMatC= 1.01D-07 BMatP= 5.25D-05
 IDIUse=1 WtCom= 1.00D+00 WtEn= 0.00D+00
 Coeff-Com:  0.252D-02 0.997D+00
 Coeff:      0.252D-02 0.997D+00
 Gap=     0.109 Goal=   None    Shift=    0.000
 RMSDP=2.27D-06 MaxDP=2.51D-04 DE=-3.72D-05 OVMax= 5.34D-04

 Cycle  14  Pass 1  IDiag  1:
 RMSU=  2.25D-06    CP:  8.27D-01  1.00D+00
 E= -767.629168988104     Delta-E=        0.000000703115 Rises=F Damp=F
 DIIS: error= 3.24D-05 at cycle   3 NSaved=   3.
 NSaved= 3 IEnMin= 2 EnMin= -767.629169691219     IErMin= 2 ErrMin= 9.90D-06
 ErrMax= 3.24D-05  0.00D+00 EMaxC= 1.00D-01 BMatC= 7.77D-07 BMatP= 1.01D-07
 IDIUse=1 WtCom= 1.00D+00 WtEn= 0.00D+00
 Coeff-Com:  0.215D-04 0.737D+00 0.262D+00
 Coeff:      0.215D-04 0.737D+00 0.262D+00
 Gap=     0.109 Goal=   None    Shift=    0.000
 RMSDP=1.82D-06 MaxDP=2.03D-04 DE= 7.03D-07 OVMax= 4.41D-04

 Cycle  15  Pass 1  IDiag  1:
 RMSU=  5.62D-07    CP:  8.26D-01  1.00D+00  2.69D-01
 E= -767.629169780684     Delta-E=       -0.000000792580 Rises=F Damp=F
 DIIS: error= 3.46D-06 at cycle   4 NSaved=   4.
 NSaved= 4 IEnMin= 4 EnMin= -767.629169780684     IErMin= 4 ErrMin= 3.46D-06
 ErrMax= 3.46D-06  0.00D+00 EMaxC= 1.00D-01 BMatC= 1.38D-08 BMatP= 1.01D-07
 IDIUse=1 WtCom= 1.00D+00 WtEn= 0.00D+00
 Coeff-Com: -0.467D-04 0.507D+00 0.188D+00 0.304D+00
 Coeff:     -0.467D-04 0.507D+00 0.188D+00 0.304D+00
 Gap=     0.109 Goal=   None    Shift=    0.000
 RMSDP=2.52D-07 MaxDP=3.22D-05 DE=-7.93D-07 OVMax= 4.30D-05

 Cycle  16  Pass 1  IDiag  1:
 RMSU=  2.32D-07    CP:  8.26D-01  1.00D+00  2.73D-01  8.93D-01
 E= -767.629169793215     Delta-E=       -0.000000012531 Rises=F Damp=F
 DIIS: error= 4.30D-07 at cycle   5 NSaved=   5.
 NSaved= 5 IEnMin= 5 EnMin= -767.629169793215     IErMin= 5 ErrMin= 4.30D-07
 ErrMax= 4.30D-07  0.00D+00 EMaxC= 1.00D-01 BMatC= 4.00D-10 BMatP= 1.38D-08
 IDIUse=1 WtCom= 1.00D+00 WtEn= 0.00D+00
 Coeff-Com: -0.313D-04 0.275D+00 0.102D+00 0.193D+00 0.429D+00
 Coeff:     -0.313D-04 0.275D+00 0.102D+00 0.193D+00 0.429D+00
 Gap=     0.109 Goal=   None    Shift=    0.000
 RMSDP=6.36D-08 MaxDP=1.04D-05 DE=-1.25D-08 OVMax= 5.54D-06

 Cycle  17  Pass 1  IDiag  1:
 RMSU=  4.11D-08    CP:  8.26D-01  1.00D+00  2.77D-01  8.95D-01  8.26D-01
 E= -767.629169793481     Delta-E=       -0.000000000266 Rises=F Damp=F
 DIIS: error= 1.95D-07 at cycle   6 NSaved=   6.
 NSaved= 6 IEnMin= 6 EnMin= -767.629169793481     IErMin= 6 ErrMin= 1.95D-07
 ErrMax= 1.95D-07  0.00D+00 EMaxC= 1.00D-01 BMatC= 4.55D-11 BMatP= 4.00D-10
 IDIUse=1 WtCom= 1.00D+00 WtEn= 0.00D+00
 Coeff-Com: -0.121D-04 0.911D-01 0.337D-01 0.723D-01 0.274D+00 0.529D+00
 Coeff:     -0.121D-04 0.911D-01 0.337D-01 0.723D-01 0.274D+00 0.529D+00
 Gap=     0.109 Goal=   None    Shift=    0.000
 RMSDP=1.79D-08 MaxDP=1.29D-06 DE=-2.66D-10 OVMax= 2.95D-06

 Cycle  18  Pass 1  IDiag  1:
 RMSU=  1.33D-08    CP:  8.26D-01  1.00D+00  2.75D-01  9.00D-01  8.63D-01
                    CP:  9.18D-01
 E= -767.629169793444     Delta-E=        0.000000000037 Rises=F Damp=F
 DIIS: error= 1.27D-07 at cycle   7 NSaved=   7.
 NSaved= 7 IEnMin= 6 EnMin= -767.629169793481     IErMin= 7 ErrMin= 1.27D-07
 ErrMax= 1.27D-07  0.00D+00 EMaxC= 1.00D-01 BMatC= 1.69D-11 BMatP= 4.55D-11
 IDIUse=1 WtCom= 1.00D+00 WtEn= 0.00D+00
 Coeff-Com: -0.474D-05 0.309D-01 0.114D-01 0.281D-01 0.151D+00 0.408D+00
 Coeff-Com:  0.371D+00
 Coeff:     -0.474D-05 0.309D-01 0.114D-01 0.281D-01 0.151D+00 0.408D+00
 Coeff:      0.371D+00
 Gap=     0.109 Goal=   None    Shift=    0.000
 RMSDP=9.05D-09 MaxDP=1.07D-06 DE= 3.73D-11 OVMax= 1.85D-06

 Cycle  19  Pass 1  IDiag  1:
 RMSU=  4.78D-09    CP:  8.26D-01  1.00D+00  2.75D-01  9.02D-01  8.70D-01
                    CP:  8.70D-01  5.23D-01
 E= -767.629169793494     Delta-E=       -0.000000000050 Rises=F Damp=F
 DIIS: error= 2.47D-08 at cycle   8 NSaved=   8.
 NSaved= 8 IEnMin= 8 EnMin= -767.629169793494     IErMin= 8 ErrMin= 2.47D-08
 ErrMax= 2.47D-08  0.00D+00 EMaxC= 1.00D-01 BMatC= 1.04D-12 BMatP= 1.69D-11
 IDIUse=1 WtCom= 1.00D+00 WtEn= 0.00D+00
 Coeff-Com: -0.109D-05 0.555D-02 0.203D-02 0.700D-02 0.577D-01 0.191D+00
 Coeff-Com:  0.241D+00 0.496D+00
 Coeff:     -0.109D-05 0.555D-02 0.203D-02 0.700D-02 0.577D-01 0.191D+00
 Coeff:      0.241D+00 0.496D+00
 Gap=     0.109 Goal=   None    Shift=    0.000
 RMSDP=3.08D-09 MaxDP=3.48D-07 DE=-5.02D-11 OVMax= 4.82D-07

 SCF Done:  E(RB-LYP) =  -767.629169793     A.U. after   19 cycles
            NFock= 19  Conv=0.31D-08     -V/T= 2.0039
 KE= 7.646777551690D+02 PE=-4.033224147525D+03 EE= 1.379897703271D+03
 Leave Link  502 at Wed Jan 30 20:46:48 2019, MaxMem=   104857600 cpu:            2154.1 elap:             135.1
 (Enter /util/academic/gaussian/g16.A03/x86-64-SSE4_2/g16/l801.exe)
 DoSCS=F DFT=T ScalE2(SS,OS)=  1.000000  1.000000
 ExpMin= 9.52D-02 ExpMax= 2.70D+04 ExpMxC= 9.22D+02 IAcc=3 IRadAn=         5 AccDes= 0.00D+00
 HarFok:  IExCor=  205 AccDes= 0.00D+00 IRadAn=         5 IDoV=-2 UseB2=F ITyADJ=14
 ICtDFT= 12500011 ScaDFX=  1.000000  1.000000  1.000000  1.000000
 Largest valence mixing into a core orbital is  5.05D-05
 Largest core mixing into a valence orbital is  1.36D-05
 Range of M.O.s used for correlation:    18   611
 NBasis=   611 NAE=    61 NBE=    61 NFC=    17 NFV=     0
 NROrb=    594 NOA=    44 NOB=    44 NVA=   550 NVB=   550

 **** Warning!!: The largest alpha MO coefficient is  0.71690194D+02

 Leave Link  801 at Wed Jan 30 20:46:49 2019, MaxMem=   104857600 cpu:              14.1 elap:               1.1
 (Enter /util/academic/gaussian/g16.A03/x86-64-SSE4_2/g16/l914.exe)
 RHF ground state
 Two-electron integrals replicated using symmetry.
 MDV=   104857600 DFT=T DoStab=F Mixed=F DoRPA=T DoScal=T NonHer=F
 Making orbital integer symmetry assigments:
 Orbital symmetries:
       Occupied  (A) (A) (A) (A) (A) (A) (A) (A) (A) (A) (A) (A)
                 (A) (A) (A) (A) (A) (A) (A) (A) (A) (A) (A) (A)
                 (A) (A) (A) (A) (A) (A) (A) (A) (A) (A) (A) (A)
                 (A) (A) (A) (A) (A) (A) (A) (A) (A) (A) (A) (A)
                 (A) (A) (A) (A) (A) (A) (A) (A) (A) (A) (A) (A)
                 (A)
       Virtual   (A) (A) (A) (A) (A) (A) (A) (A) (A) (A) (A) (A)
                 (A) (A) (A) (A) (A) (A) (A) (A) (A) (A) (A) (A)
                 (A) (A) (A) (A) (A) (A) (A) (A) (A) (A) (A) (A)
                 (A) (A) (A) (A) (A) (A) (A) (A) (A) (A) (A) (A)
                 (A) (A) (A) (A) (A) (A) (A) (A) (A) (A) (A) (A)
                 (A) (A) (A) (A) (A) (A) (A) (A) (A) (A) (A) (A)
                 (A) (A) (A) (A) (A) (A) (A) (A) (A) (A) (A) (A)
                 (A) (A) (A) (A) (A) (A) (A) (A) (A) (A) (A) (A)
                 (A) (A) (A) (A) (A) (A) (A) (A) (A) (A) (A) (A)
                 (A) (A) (A) (A) (A) (A) (A) (A) (A) (A) (A) (A)
                 (A) (A) (A) (A) (A) (A) (A) (A) (A) (A) (A) (A)
                 (A) (A) (A) (A) (A) (A) (A) (A) (A) (A) (A) (A)
                 (A) (A) (A) (A) (A) (A) (A) (A) (A) (A) (A) (A)
                 (A) (A) (A) (A) (A) (A) (A) (A) (A) (A) (A) (A)
                 (A) (A) (A) (A) (A) (A) (A) (A) (A) (A) (A) (A)
                 (A) (A) (A) (A) (A) (A) (A) (A) (A) (A) (A) (A)
                 (A) (A) (A) (A) (A) (A) (A) (A) (A) (A) (A) (A)
                 (A) (A) (A) (A) (A) (A) (A) (A) (A) (A) (A) (A)
                 (A) (A) (A) (A) (A) (A) (A) (A) (A) (A) (A) (A)
                 (A) (A) (A) (A) (A) (A) (A) (A) (A) (A) (A) (A)
                 (A) (A) (A) (A) (A) (A) (A) (A) (A) (A) (A) (A)
                 (A) (A) (A) (A) (A) (A) (A) (A) (A) (A) (A) (A)
                 (A) (A) (A) (A) (A) (A) (A) (A) (A) (A) (A) (A)
                 (A) (A) (A) (A) (A) (A) (A) (A) (A) (A) (A) (A)
                 (A) (A) (A) (A) (A) (A) (A) (A) (A) (A) (A) (A)
                 (A) (A) (A) (A) (A) (A) (A) (A) (A) (A) (A) (A)
                 (A) (A) (A) (A) (A) (A) (A) (A) (A) (A) (A) (A)
                 (A) (A) (A) (A) (A) (A) (A) (A) (A) (A) (A) (A)
                 (A) (A) (A) (A) (A) (A) (A) (A) (A) (A) (A) (A)
                 (A) (A) (A) (A) (A) (A) (A) (A) (A) (A) (A) (A)
                 (A) (A) (A) (A) (A) (A) (A) (A) (A) (A) (A) (A)
                 (A) (A) (A) (A) (A) (A) (A) (A) (A) (A) (A) (A)
                 (A) (A) (A) (A) (A) (A) (A) (A) (A) (A) (A) (A)
                 (A) (A) (A) (A) (A) (A) (A) (A) (A) (A) (A) (A)
                 (A) (A) (A) (A) (A) (A) (A) (A) (A) (A) (A) (A)
                 (A) (A) (A) (A) (A) (A) (A) (A) (A) (A) (A) (A)
                 (A) (A) (A) (A) (A) (A) (A) (A) (A) (A) (A) (A)
                 (A) (A) (A) (A) (A) (A) (A) (A) (A) (A) (A) (A)
                 (A) (A) (A) (A) (A) (A) (A) (A) (A) (A) (A) (A)
                 (A) (A) (A) (A) (A) (A) (A) (A) (A) (A) (A) (A)
                 (A) (A) (A) (A) (A) (A) (A) (A) (A) (A) (A) (A)
                 (A) (A) (A) (A) (A) (A) (A) (A) (A) (A) (A) (A)
                 (A) (A) (A) (A) (A) (A) (A) (A) (A) (A) (A) (A)
                 (A) (A) (A) (A) (A) (A) (A) (A) (A) (A) (A) (A)
                 (A) (A) (A) (A) (A) (A) (A) (A) (A) (A) (A) (A)
                 (A) (A) (A) (A) (A) (A) (A) (A) (A) (A)
    20 initial guesses have been made.
 Convergence on wavefunction:    0.001000000000000
 Davidson Disk Diagonalization:  ConvIn= 1.00D-03 SkipCon=T Conv= 1.00D-03.
 Max sub-space:  2000 roots to seek:    20 dimension of matrix:        48400
 Iteration     1 Dimension    20 NMult     0 NNew     20
 CISAX will form     3 AO SS matrices at one time.
 NMat=     3 NSing=     3 JSym2X= 0.
 FoFJK:  IHMeth= 1 ICntrl=     500 DoSepK=F KAlg= 0 I1Cent=           0 FoldK=F
 IRaf= 810000000 NMat=       3 IRICut=       1 DoRegI=T DoRafI=F ISym2E= 0 IDoP0=0 IntGTp=1.
 FoFCou: FMM=F IPFlag=           0 FMFlag=      100000 FMFlg1=           0
         NFxFlg=           0 DoJE=T BraDBF=F KetDBF=F FulRan=T
         wScrn=  0.000000 ICntrl=       500 IOpCl=  0 I1Cent=           0 NGrid=           0
         NMat0=    3 NMatS0=      3 NMatT0=    0 NMatD0=    3 NMtDS0=    0 NMtDT0=    0
 Symmetry not used in FoFCou.
 NMat=     3 NSing=     3 JSym2X= 0.
 NMat=     3 NSing=     3 JSym2X= 0.
 NMat=     3 NSing=     3 JSym2X= 0.
 NMat=     3 NSing=     3 JSym2X= 0.
 NMat=     3 NSing=     3 JSym2X= 0.
 NMat=     2 NSing=     2 JSym2X= 0.
 New state      3 was old state      5
 New state      5 was old state      6
 Excitation Energies [eV] at current iteration:
 Root      1 :     3.793503602531194
 Root      2 :     3.911613103425514
 Root      3 :     4.353906563775152
 Root      4 :     4.586937681232933
 Root      5 :     4.762695858538731
 Root      6 :     4.825789980139193
 Root      7 :     5.031331342049958
 Root      8 :     5.123342213949677
 Root      9 :     5.351277409888060
 Root     10 :     5.551623768668053
 Root     11 :     5.641864180545478
 Root     12 :     5.696463932480000
 Root     13 :     5.723332911474219
 Root     14 :     5.789598572305414
 Root     15 :     5.800084624543571
 Root     16 :     5.838145292954803
 Root     17 :     6.427891090035772
 Root     18 :     6.613009714393673
 Root     19 :     6.846465549015719
 Root     20 :     7.695519070779188
 Iteration     2 Dimension    40 NMult    20 NNew     20
 CISAX will form     3 AO SS matrices at one time.
 NMat=     3 NSing=     3 JSym2X= 0.
 NMat=     3 NSing=     3 JSym2X= 0.
 NMat=     3 NSing=     3 JSym2X= 0.
 NMat=     3 NSing=     3 JSym2X= 0.
 NMat=     3 NSing=     3 JSym2X= 0.
 NMat=     3 NSing=     3 JSym2X= 0.
 NMat=     2 NSing=     2 JSym2X= 0.
 Root      1 not converged, maximum delta is    0.277629933141812
 Root      2 not converged, maximum delta is    0.248903273660486
 New state      3 was old state      4
 Root      3 not converged, maximum delta is    0.286929631659784
 New state      4 was old state      3
 Root      4 not converged, maximum delta is    0.082076804984329
 New state      5 was old state      6
 Root      5 not converged, maximum delta is    0.322838475745671
 Excitation Energies [eV] at current iteration:
 Root      1 :     3.549185035000804   Change is   -0.244318567530391
 Root      2 :     3.816227137708103   Change is   -0.095385965717412
 Root      3 :     4.267010106691761   Change is   -0.319927574541172
 Root      4 :     4.328592234530882   Change is   -0.025314329244270
 Root      5 :     4.683974649871593   Change is   -0.141815330267600
 Root      6 :     4.706919825160948   Change is   -0.055776033377783
 Root      7 :     5.009252874762290   Change is   -0.022078467287668
 Root      8 :     5.056472562847581   Change is   -0.066869651102096
 Root      9 :     5.335237034148487   Change is   -0.388095877325732
 Root     10 :     5.348800295671438   Change is   -0.002477114216622
 Root     11 :     5.425480590122208   Change is   -0.126143178545845
 Root     12 :     5.608655250844831   Change is   -0.087808681635169
 Root     13 :     5.629135077960249   Change is   -0.012729102585230
 Root     14 :     5.751798646565842   Change is   -0.037799925739572
 Root     15 :     5.783214105053509   Change is   -0.016870519490061
 Root     16 :     5.802425672377672   Change is   -0.035719620577131
 Root     17 :     5.922259848503247   Change is   -0.505631241532524
 Root     18 :     5.940069229591598   Change is   -0.672940484802075
 Root     19 :     6.055953178988813   Change is   -0.790512370026906
 Root     20 :     6.225130844142544   Change is   -1.470388226636644
 Iteration     3 Dimension    45 NMult    40 NNew      5
 CISAX will form     3 AO SS matrices at one time.
 NMat=     3 NSing=     3 JSym2X= 0.
 NMat=     2 NSing=     2 JSym2X= 0.
 Root      1 not converged, maximum delta is    0.008954326048460
 Root      2 not converged, maximum delta is    0.006679603166537
 Root      3 not converged, maximum delta is    0.011833131963047
 Root      4 not converged, maximum delta is    0.009268573152472
 Root      5 not converged, maximum delta is    0.013162190973562
 Excitation Energies [eV] at current iteration:
 Root      1 :     3.532730429935118   Change is   -0.016454605065685
 Root      2 :     3.812085239520282   Change is   -0.004141898187821
 Root      3 :     4.257274194478281   Change is   -0.009735912213480
 Root      4 :     4.327084123369202   Change is   -0.001508111161679
 Root      5 :     4.680793251902356   Change is   -0.003181397969238
 Iteration     4 Dimension    50 NMult    45 NNew      5
 CISAX will form     3 AO SS matrices at one time.
 NMat=     3 NSing=     3 JSym2X= 0.
 NMat=     2 NSing=     2 JSym2X= 0.
 Root      1 not converged, maximum delta is    0.015533119645651
 Root      2 not converged, maximum delta is    0.012935939288815
 Root      3 not converged, maximum delta is    0.013963315754142
 Root      4 not converged, maximum delta is    0.006312007768595
 Root      5 not converged, maximum delta is    0.057136945947687
 Excitation Energies [eV] at current iteration:
 Root      1 :     3.503599605619770   Change is   -0.029130824315349
 Root      2 :     3.803921229572801   Change is   -0.008164009947481
 Root      3 :     4.241258155383265   Change is   -0.016016039095016
 Root      4 :     4.325148435488264   Change is   -0.001935687880938
 Root      5 :     4.674968465355209   Change is   -0.005824786547146
 Iteration     5 Dimension    55 NMult    50 NNew      5
 CISAX will form     3 AO SS matrices at one time.
 NMat=     3 NSing=     3 JSym2X= 0.
 NMat=     2 NSing=     2 JSym2X= 0.
 Root      1 not converged, maximum delta is    0.003537469853408
 Root      2 not converged, maximum delta is    0.003718707393729
 Root      3 not converged, maximum delta is    0.009073191315465
 Root      4 not converged, maximum delta is    0.006704155883760
 Root      5 not converged, maximum delta is    0.004660446103886
 Excitation Energies [eV] at current iteration:
 Root      1 :     3.498177456584168   Change is   -0.005422149035602
 Root      2 :     3.802208315299274   Change is   -0.001712914273527
 Root      3 :     4.237253058835025   Change is   -0.004005096548241
 Root      4 :     4.324329164566015   Change is   -0.000819270922249
 Root      5 :     4.673160758550812   Change is   -0.001807706804398
 Iteration     6 Dimension    60 NMult    55 NNew      5
 CISAX will form     3 AO SS matrices at one time.
 NMat=     3 NSing=     3 JSym2X= 0.
 NMat=     2 NSing=     2 JSym2X= 0.
 Root      1 not converged, maximum delta is    0.003871467666560
 Root      2 not converged, maximum delta is    0.003171815016718
 Root      3 not converged, maximum delta is    0.003887798638428
 Root      4 not converged, maximum delta is    0.002785745116183
 Root      5 not converged, maximum delta is    0.024200940339354
 Excitation Energies [eV] at current iteration:
 Root      1 :     3.490295302872239   Change is   -0.007882153711929
 Root      2 :     3.800326252073281   Change is   -0.001882063225993
 Root      3 :     4.233172854975662   Change is   -0.004080203859362
 Root      4 :     4.323613798069919   Change is   -0.000715366496096
 Root      5 :     4.671244274620293   Change is   -0.001916483930519
 Iteration     7 Dimension    65 NMult    60 NNew      5
 CISAX will form     3 AO SS matrices at one time.
 NMat=     3 NSing=     3 JSym2X= 0.
 NMat=     2 NSing=     2 JSym2X= 0.
 Root      1 not converged, maximum delta is    0.001328381687523
 Root      2 not converged, maximum delta is    0.001166331121522
 Root      3 has converged.
 Root      4 has converged.
 Root      5 not converged, maximum delta is    0.009488645452046
 Excitation Energies [eV] at current iteration:
 Root      1 :     3.488299910258626   Change is   -0.001995392613613
 Root      2 :     3.799766011435348   Change is   -0.000560240637934
 Root      3 :     4.232312240410071   Change is   -0.000860614565591
 Root      4 :     4.323491409068342   Change is   -0.000122389001578
 Root      5 :     4.670765741637440   Change is   -0.000478532982854
 Iteration     8 Dimension    68 NMult    65 NNew      3
 CISAX will form     3 AO SS matrices at one time.
 NMat=     3 NSing=     3 JSym2X= 0.
 Root      1 not converged, maximum delta is    0.001681430564782
 Root      2 not converged, maximum delta is    0.001116914404550
 Root      3 has converged.
 Root      4 has converged.
 Root      5 not converged, maximum delta is    0.014889757342367
 Excitation Energies [eV] at current iteration:
 Root      1 :     3.486322218259887   Change is   -0.001977691998739
 Root      2 :     3.799155653905435   Change is   -0.000610357529912
 Root      3 :     4.231936802656843   Change is   -0.000375437753227
 Root      4 :     4.323433436207043   Change is   -0.000057972861299
 Root      5 :     4.670292538765421   Change is   -0.000473202872018
 Iteration     9 Dimension    71 NMult    68 NNew      3
 CISAX will form     3 AO SS matrices at one time.
 NMat=     3 NSing=     3 JSym2X= 0.
 Root      1 not converged, maximum delta is    0.001274717660509
 Root      2 has converged.
 Root      3 has converged.
 Root      4 has converged.
 Root      5 not converged, maximum delta is    0.012074158961018
 Excitation Energies [eV] at current iteration:
 Root      1 :     3.485073122896768   Change is   -0.001249095363119
 Root      2 :     3.798874274248329   Change is   -0.000281379657106
 Root      3 :     4.231765188056769   Change is   -0.000171614600074
 Root      4 :     4.323400113793865   Change is   -0.000033322413177
 Root      5 :     4.669923944245105   Change is   -0.000368594520316
 Iteration    10 Dimension    73 NMult    71 NNew      2
 CISAX will form     2 AO SS matrices at one time.
 NMat=     2 NSing=     2 JSym2X= 0.
 Root      1 not converged, maximum delta is    0.001381299695476
 Root      2 has converged.
 Root      3 has converged.
 Root      4 has converged.
 Root      5 not converged, maximum delta is    0.009319154216735
 Excitation Energies [eV] at current iteration:
 Root      1 :     3.484134213480969   Change is   -0.000938909415798
 Root      2 :     3.798805553615539   Change is   -0.000068720632790
 Root      3 :     4.231552633352937   Change is   -0.000212554703833
 Root      4 :     4.323389586469729   Change is   -0.000010527324136
 Root      5 :     4.669755344890697   Change is   -0.000168599354408
 Iteration    11 Dimension    75 NMult    73 NNew      2
 CISAX will form     2 AO SS matrices at one time.
 NMat=     2 NSing=     2 JSym2X= 0.
 Root      1 has converged.
 Root      2 has converged.
 Root      3 has converged.
 Root      4 has converged.
 Root      5 not converged, maximum delta is    0.011967092502726
 Excitation Energies [eV] at current iteration:
 Root      1 :     3.483677768661976   Change is   -0.000456444818994
 Root      2 :     3.798787361169497   Change is   -0.000018192446042
 Root      3 :     4.231413918770459   Change is   -0.000138714582478
 Root      4 :     4.323376924390113   Change is   -0.000012662079616
 Root      5 :     4.669575957295934   Change is   -0.000179387594762
 Iteration    12 Dimension    76 NMult    75 NNew      1
 CISAX will form     1 AO SS matrices at one time.
 NMat=     1 NSing=     1 JSym2X= 0.
 Root      1 has converged.
 Root      2 has converged.
 Root      3 has converged.
 Root      4 has converged.
 Root      5 not converged, maximum delta is    0.004574042300585
 Excitation Energies [eV] at current iteration:
 Root      1 :     3.483677688580743   Change is   -0.000000080081233
 Root      2 :     3.798783889388301   Change is   -0.000003471781197
 Root      3 :     4.231413434743227   Change is   -0.000000484027232
 Root      4 :     4.323376922206185   Change is   -0.000000002183928
 Root      5 :     4.669527428527359   Change is   -0.000048528768576
 Iteration    13 Dimension    77 NMult    76 NNew      1
 CISAX will form     1 AO SS matrices at one time.
 NMat=     1 NSing=     1 JSym2X= 0.
 Root      1 has converged.
 Root      2 has converged.
 Root      3 has converged.
 Root      4 has converged.
 Root      5 not converged, maximum delta is    0.005491446142490
 Excitation Energies [eV] at current iteration:
 Root      1 :     3.483677372295214   Change is   -0.000000316285529
 Root      2 :     3.798782819033595   Change is   -0.000001070354705
 Root      3 :     4.231413398104891   Change is   -0.000000036638336
 Root      4 :     4.323376026635763   Change is   -0.000000895570421
 Root      5 :     4.669469468173176   Change is   -0.000057960354182
 Iteration    14 Dimension    78 NMult    77 NNew      1
 CISAX will form     1 AO SS matrices at one time.
 NMat=     1 NSing=     1 JSym2X= 0.
 Root      1 has converged.
 Root      2 has converged.
 Root      3 has converged.
 Root      4 has converged.
 Root      5 not converged, maximum delta is    0.003987825359994
 Excitation Energies [eV] at current iteration:
 Root      1 :     3.483668779435977   Change is   -0.000008592859237
 Root      2 :     3.798782247130712   Change is   -0.000000571902883
 Root      3 :     4.231409168981251   Change is   -0.000004229123640
 Root      4 :     4.323370231972957   Change is   -0.000005794662807
 Root      5 :     4.669424396792698   Change is   -0.000045071380478
 Iteration    15 Dimension    79 NMult    78 NNew      1
 CISAX will form     1 AO SS matrices at one time.
 NMat=     1 NSing=     1 JSym2X= 0.
 Root      1 has converged.
 Root      2 has converged.
 Root      3 has converged.
 Root      4 has converged.
 Root      5 not converged, maximum delta is    0.005879436603183
 Excitation Energies [eV] at current iteration:
 Root      1 :     3.483668712996691   Change is   -0.000000066439286
 Root      2 :     3.798777056214794   Change is   -0.000005190915918
 Root      3 :     4.231409007150837   Change is   -0.000000161830414
 Root      4 :     4.323369400429459   Change is   -0.000000831543499
 Root      5 :     4.669385588152387   Change is   -0.000038808640311
 Iteration    16 Dimension    80 NMult    79 NNew      1
 CISAX will form     1 AO SS matrices at one time.
 NMat=     1 NSing=     1 JSym2X= 0.
 Root      1 has converged.
 Root      2 has converged.
 Root      3 has converged.
 Root      4 has converged.
 Root      5 not converged, maximum delta is    0.001619198798752
 Excitation Energies [eV] at current iteration:
 Root      1 :     3.483668619314866   Change is   -0.000000093681825
 Root      2 :     3.798775742930426   Change is   -0.000001313284369
 Root      3 :     4.231408966287936   Change is   -0.000000040862901
 Root      4 :     4.323369168379480   Change is   -0.000000232049979
 Root      5 :     4.669376278845352   Change is   -0.000009309307035
 Convergence on energies, max DE= 9.31D-06.
 Convergence on expansion vectors.
 ***********************************************************************
 Excited states from <AA,BB:AA,BB> singles matrix:
 ***********************************************************************
 
 1PDM for each excited state written to RWF  633
 Ground to excited state transition densities written to RWF  633
 Ground to excited state transition electric dipole moments (Au):
       state          X           Y           Z        Dip. S.      Osc.
         1         0.4478     -0.6177      0.0607      0.5858      0.0500
         2         0.7003     -0.0178      0.0137      0.4909      0.0457
         3         0.7807      0.2037     -0.0292      0.6519      0.0676
         4        -0.2430     -0.0566     -0.0262      0.0629      0.0067
         5        -0.4729     -0.0310      0.0320      0.2256      0.0258
 Ground to excited state transition velocity dipole moments (Au):
       state          X           Y           Z        Dip. S.      Osc.
         1        -0.0572      0.0797     -0.0077      0.0097      0.0504
         2        -0.0980      0.0027     -0.0018      0.0096      0.0459
         3        -0.1220     -0.0317      0.0047      0.0159      0.0682
         4         0.0393      0.0096      0.0035      0.0017      0.0069
         5         0.0806      0.0051     -0.0056      0.0066      0.0255
 Ground to excited state transition magnetic dipole moments (Au):
       state          X           Y           Z
         1        -0.0217     -0.0674      0.0440
         2         0.0606     -0.0897      0.3584
         3         0.0480     -0.1331      0.0075
         4        -0.1051      0.1151     -0.4257
         5         0.0290      0.1619      0.3140
 Ground to excited state transition velocity quadrupole moments (Au):
       state          XX          YY          ZZ          XY          XZ          YZ
         1        -0.2130      0.0888      0.0293      0.2545     -0.0064      0.0108
         2         0.0033      0.0078      0.0675      0.0380      0.0428      0.0153
         3         0.0467     -0.0869      0.0512     -0.0078      0.0267      0.0128
         4        -0.2198      0.0166     -0.0448      0.0260     -0.0305     -0.0189
         5         0.3479     -0.1428     -0.0349      0.1125     -0.0407     -0.0134
 <0|del|b> * <b|rxdel|0> + <0|del|b> * <b|delr+rdel|0>
 Rotatory Strengths (R) in cgs (10**-40 erg-esu-cm/Gauss)
       state          XX          YY          ZZ    R(velocity)    E-M Angle
         1       -19.8033      6.2123    -11.1017     -8.2309      123.02
         2        -2.7251    -20.3248    -11.5515    -11.5338      100.72
         3        11.5283    -16.7249     -2.0924     -2.4297       95.14
         4         0.0026    -14.3550     -5.7446     -6.6990      104.19
         5        -2.7836      0.2671      8.3282      1.9372       87.18
 1/2[<0|r|b>*<b|rxdel|0> + (<0|rxdel|b>*<b|r|0>)*]
 Rotatory Strengths (R) in cgs (10**-40 erg-esu-cm/Gauss)
       state          XX          YY          ZZ     R(length)
         1         6.8812    -29.4568     -1.8871     -8.1542
         2       -30.0096     -1.1321     -3.4731    -11.5383
         3       -26.5240     19.1818      0.1539     -2.3961
         4       -18.0582      4.6064     -7.8870     -7.1129
         5         9.7012      3.5471     -7.1045      2.0479
  1/2[<0|del|b>*<b|r|0> + (<0|r|b>*<b|del|0>)*] (Au)
       state          X           Y           Z        Dip. S.   Osc.(frdel)
         1        -0.0256     -0.0492     -0.0005      0.0753      0.0502
         2        -0.0686     -0.0000     -0.0000      0.0687      0.0458
         3        -0.0953     -0.0065     -0.0001      0.1019      0.0679
         4        -0.0096     -0.0005     -0.0001      0.0102      0.0068
         5        -0.0381     -0.0002     -0.0002      0.0385      0.0256

 Excitation energies and oscillator strengths:
 
 Excited State   1:      Singlet-A      3.4837 eV  355.90 nm  f=0.0500  <S**2>=0.000
      60 -> 63         0.10627
      61 -> 62         0.67315
 This state for optimization and/or second-order correction.
 Total Energy, E(TD-HF/TD-DFT) =  -767.501147327    
 Copying the excited state density for this state as the 1-particle RhoCI density.
 
 Excited State   2:      Singlet-A      3.7988 eV  326.38 nm  f=0.0457  <S**2>=0.000
      60 -> 62        -0.29412
      61 -> 63         0.61828
      61 -> 64         0.13493
 
 Excited State   3:      Singlet-A      4.2314 eV  293.01 nm  f=0.0676  <S**2>=0.000
      60 -> 62         0.46232
      61 -> 62        -0.11471
      61 -> 63         0.13253
      61 -> 64         0.49419
 
 Excited State   4:      Singlet-A      4.3234 eV  286.78 nm  f=0.0067  <S**2>=0.000
      59 -> 62         0.68786
      61 -> 65        -0.13033
 
 Excited State   5:      Singlet-A      4.6694 eV  265.53 nm  f=0.0258  <S**2>=0.000
      58 -> 62        -0.39803
      60 -> 62        -0.11034
      61 -> 64         0.13063
      61 -> 65         0.53448
 SavETr:  write IOETrn=   770 NScale= 10 NData=  16 NLR=1 NState=    5 LETran=     100.
 Leave Link  914 at Wed Jan 30 21:04:34 2019, MaxMem=   104857600 cpu:           16978.4 elap:            1065.5
 (Enter /util/academic/gaussian/g16.A03/x86-64-SSE4_2/g16/l601.exe)
 Copying SCF densities to generalized density rwf, IOpCl= 0 IROHF=0.

 **********************************************************************

            Population analysis using the SCF density.

 **********************************************************************

 Orbital symmetries:
       Occupied  (A) (A) (A) (A) (A) (A) (A) (A) (A) (A) (A) (A)
                 (A) (A) (A) (A) (A) (A) (A) (A) (A) (A) (A) (A)
                 (A) (A) (A) (A) (A) (A) (A) (A) (A) (A) (A) (A)
                 (A) (A) (A) (A) (A) (A) (A) (A) (A) (A) (A) (A)
                 (A) (A) (A) (A) (A) (A) (A) (A) (A) (A) (A) (A)
                 (A)
       Virtual   (A) (A) (A) (A) (A) (A) (A) (A) (A) (A) (A) (A)
                 (A) (A) (A) (A) (A) (A) (A) (A) (A) (A) (A) (A)
                 (A) (A) (A) (A) (A) (A) (A) (A) (A) (A) (A) (A)
                 (A) (A) (A) (A) (A) (A) (A) (A) (A) (A) (A) (A)
                 (A) (A) (A) (A) (A) (A) (A) (A) (A) (A) (A) (A)
                 (A) (A) (A) (A) (A) (A) (A) (A) (A) (A) (A) (A)
                 (A) (A) (A) (A) (A) (A) (A) (A) (A) (A) (A) (A)
                 (A) (A) (A) (A) (A) (A) (A) (A) (A) (A) (A) (A)
                 (A) (A) (A) (A) (A) (A) (A) (A) (A) (A) (A) (A)
                 (A) (A) (A) (A) (A) (A) (A) (A) (A) (A) (A) (A)
                 (A) (A) (A) (A) (A) (A) (A) (A) (A) (A) (A) (A)
                 (A) (A) (A) (A) (A) (A) (A) (A) (A) (A) (A) (A)
                 (A) (A) (A) (A) (A) (A) (A) (A) (A) (A) (A) (A)
                 (A) (A) (A) (A) (A) (A) (A) (A) (A) (A) (A) (A)
                 (A) (A) (A) (A) (A) (A) (A) (A) (A) (A) (A) (A)
                 (A) (A) (A) (A) (A) (A) (A) (A) (A) (A) (A) (A)
                 (A) (A) (A) (A) (A) (A) (A) (A) (A) (A) (A) (A)
                 (A) (A) (A) (A) (A) (A) (A) (A) (A) (A) (A) (A)
                 (A) (A) (A) (A) (A) (A) (A) (A) (A) (A) (A) (A)
                 (A) (A) (A) (A) (A) (A) (A) (A) (A) (A) (A) (A)
                 (A) (A) (A) (A) (A) (A) (A) (A) (A) (A) (A) (A)
                 (A) (A) (A) (A) (A) (A) (A) (A) (A) (A) (A) (A)
                 (A) (A) (A) (A) (A) (A) (A) (A) (A) (A) (A) (A)
                 (A) (A) (A) (A) (A) (A) (A) (A) (A) (A) (A) (A)
                 (A) (A) (A) (A) (A) (A) (A) (A) (A) (A) (A) (A)
                 (A) (A) (A) (A) (A) (A) (A) (A) (A) (A) (A) (A)
                 (A) (A) (A) (A) (A) (A) (A) (A) (A) (A) (A) (A)
                 (A) (A) (A) (A) (A) (A) (A) (A) (A) (A) (A) (A)
                 (A) (A) (A) (A) (A) (A) (A) (A) (A) (A) (A) (A)
                 (A) (A) (A) (A) (A) (A) (A) (A) (A) (A) (A) (A)
                 (A) (A) (A) (A) (A) (A) (A) (A) (A) (A) (A) (A)
                 (A) (A) (A) (A) (A) (A) (A) (A) (A) (A) (A) (A)
                 (A) (A) (A) (A) (A) (A) (A) (A) (A) (A) (A) (A)
                 (A) (A) (A) (A) (A) (A) (A) (A) (A) (A) (A) (A)
                 (A) (A) (A) (A) (A) (A) (A) (A) (A) (A) (A) (A)
                 (A) (A) (A) (A) (A) (A) (A) (A) (A) (A) (A) (A)
                 (A) (A) (A) (A) (A) (A) (A) (A) (A) (A) (A) (A)
                 (A) (A) (A) (A) (A) (A) (A) (A) (A) (A) (A) (A)
                 (A) (A) (A) (A) (A) (A) (A) (A) (A) (A) (A) (A)
                 (A) (A) (A) (A) (A) (A) (A) (A) (A) (A) (A) (A)
                 (A) (A) (A) (A) (A) (A) (A) (A) (A) (A) (A) (A)
                 (A) (A) (A) (A) (A) (A) (A) (A) (A) (A) (A) (A)
                 (A) (A) (A) (A) (A) (A) (A) (A) (A) (A) (A) (A)
                 (A) (A) (A) (A) (A) (A) (A) (A) (A) (A) (A) (A)
                 (A) (A) (A) (A) (A) (A) (A) (A) (A) (A) (A) (A)
                 (A) (A) (A) (A) (A) (A) (A) (A) (A) (A)
 The electronic state is 1-A.
 Alpha  occ. eigenvalues --  -18.82026 -18.80721 -18.76347 -10.03459  -9.97096
 Alpha  occ. eigenvalues --   -9.96591  -9.93545  -9.92222  -9.92137  -9.91838
 Alpha  occ. eigenvalues --   -9.91668  -9.91598  -9.91106  -9.91060  -9.90968
 Alpha  occ. eigenvalues --   -9.90778  -9.90591  -1.00254  -0.96600  -0.92062
 Alpha  occ. eigenvalues --   -0.78800  -0.75057  -0.71374  -0.69475  -0.66223
 Alpha  occ. eigenvalues --   -0.65574  -0.61876  -0.59618  -0.56821  -0.54639
 Alpha  occ. eigenvalues --   -0.53517  -0.51855  -0.47645  -0.45957  -0.45342
 Alpha  occ. eigenvalues --   -0.42569  -0.41991  -0.41588  -0.41408  -0.40248
 Alpha  occ. eigenvalues --   -0.39568  -0.38944  -0.37845  -0.36947  -0.36308
 Alpha  occ. eigenvalues --   -0.35768  -0.34919  -0.34516  -0.33504  -0.33324
 Alpha  occ. eigenvalues --   -0.31572  -0.30963  -0.30025  -0.29559  -0.28192
 Alpha  occ. eigenvalues --   -0.27684  -0.26743  -0.24761  -0.22802  -0.20964
 Alpha  occ. eigenvalues --   -0.17974
 Alpha virt. eigenvalues --   -0.07070  -0.04562  -0.02314  -0.01334   0.00424
 Alpha virt. eigenvalues --    0.01647   0.03222   0.03694   0.04113   0.05143
 Alpha virt. eigenvalues --    0.05547   0.06085   0.06757   0.07491   0.08337
 Alpha virt. eigenvalues --    0.08583   0.08734   0.09379   0.10548   0.11591
 Alpha virt. eigenvalues --    0.12004   0.12189   0.13111   0.14382   0.15345
 Alpha virt. eigenvalues --    0.15512   0.15978   0.16803   0.17331   0.17694
 Alpha virt. eigenvalues --    0.18804   0.19028   0.19452   0.20392   0.20481
 Alpha virt. eigenvalues --    0.21504   0.22082   0.22309   0.23146   0.23467
 Alpha virt. eigenvalues --    0.23964   0.24820   0.25590   0.26125   0.26424
 Alpha virt. eigenvalues --    0.27222   0.27971   0.28397   0.28492   0.28923
 Alpha virt. eigenvalues --    0.29526   0.30087   0.31064   0.31749   0.32236
 Alpha virt. eigenvalues --    0.33115   0.33281   0.33578   0.34194   0.35125
 Alpha virt. eigenvalues --    0.35630   0.36016   0.36402   0.37339   0.37519
 Alpha virt. eigenvalues --    0.37819   0.37979   0.38728   0.39273   0.39697
 Alpha virt. eigenvalues --    0.40142   0.40942   0.41462   0.42115   0.42491
 Alpha virt. eigenvalues --    0.42674   0.43100   0.43321   0.43730   0.44851
 Alpha virt. eigenvalues --    0.45354   0.45635   0.46466   0.47265   0.47746
 Alpha virt. eigenvalues --    0.48375   0.48640   0.49830   0.50993   0.52170
 Alpha virt. eigenvalues --    0.52553   0.53680   0.53877   0.54740   0.55568
 Alpha virt. eigenvalues --    0.56434   0.57529   0.58511   0.58840   0.59553
 Alpha virt. eigenvalues --    0.60863   0.61271   0.61859   0.62452   0.63705
 Alpha virt. eigenvalues --    0.64304   0.65131   0.65568   0.65990   0.67398
 Alpha virt. eigenvalues --    0.68076   0.68463   0.69085   0.70638   0.71596
 Alpha virt. eigenvalues --    0.73456   0.73716   0.74027   0.74685   0.75149
 Alpha virt. eigenvalues --    0.76619   0.76813   0.78022   0.79354   0.79548
 Alpha virt. eigenvalues --    0.80127   0.80763   0.81976   0.83356   0.84111
 Alpha virt. eigenvalues --    0.84677   0.85351   0.85408   0.86880   0.88080
 Alpha virt. eigenvalues --    0.88715   0.89629   0.90118   0.92135   0.92794
 Alpha virt. eigenvalues --    0.93587   0.95098   0.95450   0.95861   0.96039
 Alpha virt. eigenvalues --    0.97822   0.99998   1.00707   1.01657   1.02189
 Alpha virt. eigenvalues --    1.02801   1.03670   1.04864   1.07668   1.09154
 Alpha virt. eigenvalues --    1.09664   1.10537   1.12001   1.12402   1.13712
 Alpha virt. eigenvalues --    1.15184   1.15708   1.16360   1.18543   1.19278
 Alpha virt. eigenvalues --    1.19868   1.20851   1.22119   1.23554   1.23678
 Alpha virt. eigenvalues --    1.24670   1.25141   1.26354   1.27550   1.30115
 Alpha virt. eigenvalues --    1.30720   1.32448   1.33231   1.33950   1.35744
 Alpha virt. eigenvalues --    1.36499   1.37842   1.39178   1.39683   1.39972
 Alpha virt. eigenvalues --    1.40836   1.41552   1.41608   1.42899   1.43845
 Alpha virt. eigenvalues --    1.44435   1.45083   1.45364   1.46332   1.46661
 Alpha virt. eigenvalues --    1.47736   1.48923   1.50093   1.51200   1.51937
 Alpha virt. eigenvalues --    1.52657   1.53464   1.53679   1.54094   1.54507
 Alpha virt. eigenvalues --    1.56637   1.56797   1.57686   1.59804   1.60349
 Alpha virt. eigenvalues --    1.60938   1.61431   1.62179   1.62996   1.63561
 Alpha virt. eigenvalues --    1.63728   1.66124   1.67276   1.68914   1.69704
 Alpha virt. eigenvalues --    1.72336   1.73779   1.74240   1.75447   1.76905
 Alpha virt. eigenvalues --    1.78342   1.79034   1.79584   1.81137   1.82282
 Alpha virt. eigenvalues --    1.82629   1.84857   1.86168   1.86551   1.87910
 Alpha virt. eigenvalues --    1.88409   1.88842   1.90100   1.90233   1.92144
 Alpha virt. eigenvalues --    1.94445   1.96065   1.96653   1.97321   1.98540
 Alpha virt. eigenvalues --    2.00180   2.00415   2.01226   2.02434   2.04846
 Alpha virt. eigenvalues --    2.05758   2.06364   2.07551   2.08221   2.08851
 Alpha virt. eigenvalues --    2.10295   2.11137   2.11723   2.12795   2.13976
 Alpha virt. eigenvalues --    2.15921   2.16720   2.17471   2.18142   2.19801
 Alpha virt. eigenvalues --    2.21221   2.22407   2.22628   2.24059   2.25060
 Alpha virt. eigenvalues --    2.26437   2.27067   2.27843   2.29194   2.31698
 Alpha virt. eigenvalues --    2.33338   2.33814   2.35340   2.37065   2.38140
 Alpha virt. eigenvalues --    2.39148   2.40567   2.41708   2.42585   2.43956
 Alpha virt. eigenvalues --    2.45424   2.45818   2.46523   2.46990   2.48309
 Alpha virt. eigenvalues --    2.49317   2.50259   2.51845   2.52689   2.55173
 Alpha virt. eigenvalues --    2.55673   2.57296   2.58264   2.58889   2.59464
 Alpha virt. eigenvalues --    2.60604   2.61402   2.62785   2.63122   2.64693
 Alpha virt. eigenvalues --    2.65457   2.66882   2.67547   2.68664   2.69026
 Alpha virt. eigenvalues --    2.70791   2.71436   2.72105   2.72717   2.73343
 Alpha virt. eigenvalues --    2.73800   2.74981   2.75482   2.76234   2.77040
 Alpha virt. eigenvalues --    2.77863   2.77997   2.78758   2.80261   2.80901
 Alpha virt. eigenvalues --    2.81568   2.82125   2.83884   2.84103   2.85597
 Alpha virt. eigenvalues --    2.86485   2.88402   2.88733   2.90225   2.90733
 Alpha virt. eigenvalues --    2.91954   2.92494   2.93158   2.94609   2.95023
 Alpha virt. eigenvalues --    2.96923   2.97502   2.97843   2.99621   2.99958
 Alpha virt. eigenvalues --    3.01074   3.02002   3.04485   3.04740   3.05075
 Alpha virt. eigenvalues --    3.06291   3.06680   3.07282   3.07701   3.07857
 Alpha virt. eigenvalues --    3.08982   3.09629   3.10966   3.11579   3.12279
 Alpha virt. eigenvalues --    3.13257   3.14960   3.15186   3.15636   3.16298
 Alpha virt. eigenvalues --    3.17377   3.18459   3.18930   3.20606   3.20853
 Alpha virt. eigenvalues --    3.21317   3.22115   3.23649   3.24168   3.24679
 Alpha virt. eigenvalues --    3.25957   3.26287   3.27058   3.27948   3.28267
 Alpha virt. eigenvalues --    3.29524   3.30915   3.31749   3.32880   3.34480
 Alpha virt. eigenvalues --    3.35057   3.35481   3.36547   3.37348   3.37454
 Alpha virt. eigenvalues --    3.38422   3.38807   3.40764   3.41713   3.42000
 Alpha virt. eigenvalues --    3.42983   3.43437   3.43950   3.44527   3.44964
 Alpha virt. eigenvalues --    3.46159   3.46849   3.48712   3.49329   3.50427
 Alpha virt. eigenvalues --    3.51166   3.51594   3.53605   3.55352   3.57234
 Alpha virt. eigenvalues --    3.58397   3.59609   3.60252   3.62373   3.63570
 Alpha virt. eigenvalues --    3.66256   3.66577   3.68649   3.71846   3.72905
 Alpha virt. eigenvalues --    3.74684   3.75831   3.77293   3.80168   3.81161
 Alpha virt. eigenvalues --    3.82235   3.83788   3.86156   3.88104   3.89009
 Alpha virt. eigenvalues --    3.89235   3.91857   3.92447   3.95724   3.97455
 Alpha virt. eigenvalues --    3.97880   4.00571   4.03229   4.03819   4.05426
 Alpha virt. eigenvalues --    4.06359   4.07257   4.08545   4.08943   4.09161
 Alpha virt. eigenvalues --    4.09930   4.11993   4.12405   4.13957   4.15524
 Alpha virt. eigenvalues --    4.15807   4.19109   4.19689   4.20634   4.22591
 Alpha virt. eigenvalues --    4.24804   4.26048   4.27093   4.28048   4.32315
 Alpha virt. eigenvalues --    4.35143   4.37953   4.40735   4.41444   4.42293
 Alpha virt. eigenvalues --    4.45801   4.46599   4.46991   4.49741   4.51580
 Alpha virt. eigenvalues --    4.53588   4.56333   4.58821   4.66206   4.66764
 Alpha virt. eigenvalues --    4.68322   4.69533   4.72095   4.73638   4.76571
 Alpha virt. eigenvalues --    4.81295   4.83496   4.87878   4.94595   4.95852
 Alpha virt. eigenvalues --    5.03153   5.04307   5.05312   5.08071   5.09872
 Alpha virt. eigenvalues --    5.09936   5.11844   5.20304   5.21533   5.24258
 Alpha virt. eigenvalues --    5.26626   5.27328   5.29308   5.33208   5.38452
 Alpha virt. eigenvalues --    5.39347   5.46191   5.51271   5.54580   5.59630
 Alpha virt. eigenvalues --    5.60137   5.61177   5.73576   5.75272   5.75418
 Alpha virt. eigenvalues --    5.81194   5.88715   6.04967   6.09564   6.20060
 Alpha virt. eigenvalues --    6.22395   6.23015   6.33451   6.35734   6.36362
 Alpha virt. eigenvalues --    6.49261   6.51952   6.57465   6.63585   6.64743
 Alpha virt. eigenvalues --    6.70135   6.71444   6.78094   6.94667   6.97679
 Alpha virt. eigenvalues --    7.02527   7.16797   7.28496  21.77812  22.00253
 Alpha virt. eigenvalues --   22.06286  22.23199  22.34853  22.37430  22.41259
 Alpha virt. eigenvalues --   22.45801  22.52220  22.60357  22.71970  22.77368
 Alpha virt. eigenvalues --   22.86765  23.28745  43.35848  43.44990  43.76716
          Condensed to atoms (all electrons):
               1          2          3          4          5          6
     1  O    7.855697   0.430814  -0.077649   0.003811  -0.000157  -0.000008
     2  C    0.430814   5.134365   0.329200   0.100636   0.016134  -0.001072
     3  C   -0.077649   0.329200   5.253047   0.326814  -0.096986   0.003767
     4  C    0.003811   0.100636   0.326814   5.090563   0.358147   0.038823
     5  C   -0.000157   0.016134  -0.096986   0.358147   5.132569   0.428942
     6  C   -0.000008  -0.001072   0.003767   0.038823   0.428942   5.130420
     7  C   -0.000002   0.000057  -0.001219  -0.125549   0.066025   0.293871
     8  C    0.000023   0.001683   0.019713   0.065358  -0.142772   0.003870
     9  C   -0.003035  -0.173205   0.025987   0.228449   0.020445  -0.090696
    10  C   -0.111452  -0.127274   0.151614  -0.170983  -0.007847   0.000154
    11  C    0.000000  -0.000023  -0.000016  -0.003645   0.018730  -0.064646
    12  C   -0.000000   0.000001  -0.000012   0.000727  -0.001069   0.006400
    13  O   -0.000000  -0.000000   0.000006   0.000602  -0.000244  -0.000459
    14  O    0.000000   0.000000  -0.000002  -0.000053  -0.000027   0.003957
    15  C   -0.000000   0.000004  -0.000042  -0.000707   0.000294  -0.004439
    16  H    0.000000   0.000001   0.000009   0.001282  -0.000494   0.006484
    17  H   -0.000000   0.000000  -0.000006  -0.000084  -0.000340   0.004695
    18  H    0.000000   0.000001  -0.000002   0.000152  -0.000146   0.001722
    19  H   -0.000000  -0.000000   0.000001   0.000014  -0.000005  -0.000690
    20  H    0.000000  -0.000000   0.000000  -0.000029   0.000020  -0.000087
    21  H   -0.000018   0.000317  -0.002812  -0.077639   0.442490  -0.066330
    22  H   -0.000000   0.000036  -0.000715   0.015734  -0.067443   0.434169
    23  H   -0.000001  -0.000266   0.000283   0.012653  -0.004691   0.015277
    24  C    0.017820   0.277853  -0.159496   0.061047   0.020550   0.002752
    25  H   -0.011148  -0.087631   0.008156  -0.002139  -0.000094   0.000001
    26  H   -0.000106   0.006949  -0.000303   0.010061  -0.000506   0.000144
    27  H    0.011175  -0.100927   0.467480  -0.100197  -0.009722   0.000472
    28  C    0.257595  -0.091302   0.003905  -0.001377   0.000050  -0.000003
    29  H   -0.044641  -0.017180   0.001340  -0.000283  -0.000006  -0.000000
    30  H   -0.044642  -0.017671   0.001480  -0.000411  -0.000012  -0.000000
    31  H   -0.031725   0.006861  -0.000491   0.000148   0.000001   0.000000
               7          8          9         10         11         12
     1  O   -0.000002   0.000023  -0.003035  -0.111452   0.000000  -0.000000
     2  C    0.000057   0.001683  -0.173205  -0.127274  -0.000023   0.000001
     3  C   -0.001219   0.019713   0.025987   0.151614  -0.000016  -0.000012
     4  C   -0.125549   0.065358   0.228449  -0.170983  -0.003645   0.000727
     5  C    0.066025  -0.142772   0.020445  -0.007847   0.018730  -0.001069
     6  C    0.293871   0.003870  -0.090696   0.000154  -0.064646   0.006400
     7  C    5.250398   0.102869   0.212315  -0.001005   0.308122  -0.002545
     8  C    0.102869   6.069892  -0.112476   0.004656  -0.121813  -0.017219
     9  C    0.212315  -0.112476   5.398940   0.168186   0.018661   0.002796
    10  C   -0.001005   0.004656   0.168186   5.776402   0.000053  -0.000006
    11  C    0.308122  -0.121813   0.018661   0.000053   5.296144   0.255367
    12  C   -0.002545  -0.017219   0.002796  -0.000006   0.255367   4.553869
    13  O   -0.040047   0.031265  -0.009763   0.000001  -0.129995   0.365340
    14  O   -0.006235  -0.003559   0.000798  -0.000000  -0.110909   0.704679
    15  C   -0.044130  -0.013235   0.008332  -0.000008   0.222036  -0.015996
    16  H   -0.047915   0.020918  -0.003573  -0.000001   0.370637  -0.046612
    17  H   -0.004012  -0.003494   0.000099  -0.000001  -0.030240   0.007644
    18  H   -0.011160   0.004596  -0.000808  -0.000009  -0.022429  -0.012110
    19  H    0.014588   0.000641  -0.000153   0.000000  -0.051530   0.000518
    20  H    0.001198  -0.001131  -0.000148  -0.000000   0.022231  -0.019240
    21  H    0.015188  -0.003397   0.013714  -0.000247  -0.000677  -0.000019
    22  H   -0.072704   0.023087  -0.005004   0.000004  -0.013550  -0.000867
    23  H   -0.075169   0.462727  -0.095167   0.000838  -0.007297  -0.000776
    24  C    0.012785  -0.104460   0.240569   0.050008  -0.001350  -0.000326
    25  H    0.000074  -0.000954   0.015909   0.455102   0.000001   0.000000
    26  H    0.001577  -0.005390  -0.061703  -0.049253  -0.000089  -0.000002
    27  H   -0.000046  -0.000203   0.021279   0.035395  -0.000004  -0.000000
    28  C    0.000001  -0.000047   0.001628   0.002922  -0.000000   0.000000
    29  H    0.000000  -0.000010   0.000297   0.013953   0.000000   0.000000
    30  H    0.000000   0.000003   0.000449   0.014605   0.000000   0.000000
    31  H    0.000000   0.000000  -0.000081  -0.002822  -0.000000  -0.000000
              13         14         15         16         17         18
     1  O   -0.000000   0.000000  -0.000000   0.000000  -0.000000   0.000000
     2  C   -0.000000   0.000000   0.000004   0.000001   0.000000   0.000001
     3  C    0.000006  -0.000002  -0.000042   0.000009  -0.000006  -0.000002
     4  C    0.000602  -0.000053  -0.000707   0.001282  -0.000084   0.000152
     5  C   -0.000244  -0.000027   0.000294  -0.000494  -0.000340  -0.000146
     6  C   -0.000459   0.003957  -0.004439   0.006484   0.004695   0.001722
     7  C   -0.040047  -0.006235  -0.044130  -0.047915  -0.004012  -0.011160
     8  C    0.031265  -0.003559  -0.013235   0.020918  -0.003494   0.004596
     9  C   -0.009763   0.000798   0.008332  -0.003573   0.000099  -0.000808
    10  C    0.000001  -0.000000  -0.000008  -0.000001  -0.000001  -0.000009
    11  C   -0.129995  -0.110909   0.222036   0.370637  -0.030240  -0.022429
    12  C    0.365340   0.704679  -0.015996  -0.046612   0.007644  -0.012110
    13  O    7.948896  -0.105680   0.012958   0.005989   0.000176   0.004131
    14  O   -0.105680   7.752813   0.007155   0.014367  -0.000579   0.000039
    15  C    0.012958   0.007155   5.025163  -0.033300   0.388660   0.393004
    16  H    0.005989   0.014367  -0.033300   0.650338  -0.008887   0.006673
    17  H    0.000176  -0.000579   0.388660  -0.008887   0.586967  -0.023003
    18  H    0.004131   0.000039   0.393004   0.006673  -0.023003   0.566772
    19  H   -0.000356   0.000411   0.397113  -0.004633  -0.026733  -0.025192
    20  H    0.258519   0.010544  -0.002645  -0.001209   0.000133  -0.000225
    21  H    0.000000  -0.000004   0.000030  -0.000156   0.000004  -0.000001
    22  H    0.000019  -0.000300  -0.000422   0.010512   0.000195   0.000061
    23  H    0.017461   0.000221  -0.003642   0.000472   0.000202   0.005021
    24  C   -0.000282  -0.000001   0.000104   0.000017   0.000000  -0.000018
    25  H   -0.000000   0.000000  -0.000000   0.000000   0.000000   0.000000
    26  H   -0.000089   0.000000   0.000023  -0.000003   0.000002   0.000013
    27  H   -0.000000   0.000000  -0.000000  -0.000000   0.000000   0.000000
    28  C   -0.000000   0.000000   0.000000   0.000000  -0.000000  -0.000000
    29  H   -0.000000  -0.000000   0.000000   0.000000  -0.000000   0.000000
    30  H    0.000000   0.000000  -0.000000  -0.000000   0.000000  -0.000000
    31  H   -0.000000   0.000000  -0.000000   0.000000  -0.000000   0.000000
              19         20         21         22         23         24
     1  O   -0.000000   0.000000  -0.000018  -0.000000  -0.000001   0.017820
     2  C   -0.000000  -0.000000   0.000317   0.000036  -0.000266   0.277853
     3  C    0.000001   0.000000  -0.002812  -0.000715   0.000283  -0.159496
     4  C    0.000014  -0.000029  -0.077639   0.015734   0.012653   0.061047
     5  C   -0.000005   0.000020   0.442490  -0.067443  -0.004691   0.020550
     6  C   -0.000690  -0.000087  -0.066330   0.434169   0.015277   0.002752
     7  C    0.014588   0.001198   0.015188  -0.072704  -0.075169   0.012785
     8  C    0.000641  -0.001131  -0.003397   0.023087   0.462727  -0.104460
     9  C   -0.000153  -0.000148   0.013714  -0.005004  -0.095167   0.240569
    10  C    0.000000  -0.000000  -0.000247   0.000004   0.000838   0.050008
    11  C   -0.051530   0.022231  -0.000677  -0.013550  -0.007297  -0.001350
    12  C    0.000518  -0.019240  -0.000019  -0.000867  -0.000776  -0.000326
    13  O   -0.000356   0.258519   0.000000   0.000019   0.017461  -0.000282
    14  O    0.000411   0.010544  -0.000004  -0.000300   0.000221  -0.000001
    15  C    0.397113  -0.002645   0.000030  -0.000422  -0.003642   0.000104
    16  H   -0.004633  -0.001209  -0.000156   0.010512   0.000472   0.000017
    17  H   -0.026733   0.000133   0.000004   0.000195   0.000202   0.000000
    18  H   -0.025192  -0.000225  -0.000001   0.000061   0.005021  -0.000018
    19  H    0.587665  -0.000125  -0.000001  -0.000073  -0.000180  -0.000004
    20  H   -0.000125   0.432566   0.000000   0.000000  -0.000435   0.000032
    21  H   -0.000001   0.000000   0.599789  -0.010277   0.000093  -0.000130
    22  H   -0.000073   0.000000  -0.010277   0.600084  -0.000202   0.000064
    23  H   -0.000180  -0.000435   0.000093  -0.000202   0.576073  -0.002670
    24  C   -0.000004   0.000032  -0.000130   0.000064  -0.002670   5.441332
    25  H   -0.000000  -0.000000  -0.000007   0.000000  -0.000049  -0.057883
    26  H   -0.000001   0.000003   0.000037  -0.000007   0.007422   0.420977
    27  H    0.000000   0.000000   0.006502  -0.000064   0.000034  -0.012472
    28  C   -0.000000   0.000000   0.000000   0.000000   0.000001  -0.005909
    29  H   -0.000000  -0.000000  -0.000000   0.000000   0.000000  -0.002462
    30  H    0.000000   0.000000  -0.000000   0.000000   0.000000  -0.002719
    31  H   -0.000000  -0.000000  -0.000000  -0.000000  -0.000000   0.000522
              25         26         27         28         29         30
     1  O   -0.011148  -0.000106   0.011175   0.257595  -0.044641  -0.044642
     2  C   -0.087631   0.006949  -0.100927  -0.091302  -0.017180  -0.017671
     3  C    0.008156  -0.000303   0.467480   0.003905   0.001340   0.001480
     4  C   -0.002139   0.010061  -0.100197  -0.001377  -0.000283  -0.000411
     5  C   -0.000094  -0.000506  -0.009722   0.000050  -0.000006  -0.000012
     6  C    0.000001   0.000144   0.000472  -0.000003  -0.000000  -0.000000
     7  C    0.000074   0.001577  -0.000046   0.000001   0.000000   0.000000
     8  C   -0.000954  -0.005390  -0.000203  -0.000047  -0.000010   0.000003
     9  C    0.015909  -0.061703   0.021279   0.001628   0.000297   0.000449
    10  C    0.455102  -0.049253   0.035395   0.002922   0.013953   0.014605
    11  C    0.000001  -0.000089  -0.000004  -0.000000   0.000000   0.000000
    12  C    0.000000  -0.000002  -0.000000   0.000000   0.000000   0.000000
    13  O   -0.000000  -0.000089  -0.000000  -0.000000  -0.000000   0.000000
    14  O    0.000000   0.000000   0.000000   0.000000  -0.000000   0.000000
    15  C   -0.000000   0.000023  -0.000000   0.000000   0.000000  -0.000000
    16  H    0.000000  -0.000003  -0.000000   0.000000   0.000000  -0.000000
    17  H    0.000000   0.000002   0.000000  -0.000000  -0.000000   0.000000
    18  H    0.000000   0.000013   0.000000  -0.000000   0.000000  -0.000000
    19  H   -0.000000  -0.000001   0.000000  -0.000000  -0.000000   0.000000
    20  H   -0.000000   0.000003   0.000000   0.000000  -0.000000   0.000000
    21  H   -0.000007   0.000037   0.006502   0.000000  -0.000000  -0.000000
    22  H    0.000000  -0.000007  -0.000064   0.000000   0.000000   0.000000
    23  H   -0.000049   0.007422   0.000034   0.000001   0.000000   0.000000
    24  C   -0.057883   0.420977  -0.012472  -0.005909  -0.002462  -0.002719
    25  H    0.572636  -0.007874   0.000068   0.010223   0.003812   0.003752
    26  H   -0.007874   0.590841   0.000100  -0.000210  -0.000020  -0.000031
    27  H    0.000068   0.000100   0.604161  -0.000789   0.000213   0.000219
    28  C    0.010223  -0.000210  -0.000789   4.809247   0.399636   0.399273
    29  H    0.003812  -0.000020   0.000213   0.399636   0.621570  -0.065151
    30  H    0.003752  -0.000031   0.000219   0.399273  -0.065151   0.622464
    31  H   -0.000690   0.000002  -0.000299   0.395540  -0.025148  -0.025285
              31
     1  O   -0.031725
     2  C    0.006861
     3  C   -0.000491
     4  C    0.000148
     5  C    0.000001
     6  C    0.000000
     7  C    0.000000
     8  C    0.000000
     9  C   -0.000081
    10  C   -0.002822
    11  C   -0.000000
    12  C   -0.000000
    13  O   -0.000000
    14  O    0.000000
    15  C   -0.000000
    16  H    0.000000
    17  H   -0.000000
    18  H    0.000000
    19  H   -0.000000
    20  H   -0.000000
    21  H   -0.000000
    22  H   -0.000000
    23  H   -0.000000
    24  C    0.000522
    25  H   -0.000690
    26  H    0.000002
    27  H   -0.000299
    28  C    0.395540
    29  H   -0.025148
    30  H   -0.025285
    31  H    0.554506
 Mulliken charges:
               1
     1  O   -0.252350
     2  C    0.311640
     3  C   -0.253051
     4  C    0.168076
     5  C   -0.171835
     6  C   -0.147490
     7  C    0.152667
     8  C   -0.281141
     9  C    0.176960
    10  C   -0.202983
    11  C    0.046232
    12  C    0.219455
    13  O   -0.358448
    14  O   -0.267635
    15  C   -0.336310
    16  H    0.059082
    17  H    0.108600
    18  H    0.112917
    19  H    0.108725
    20  H    0.300028
    21  H    0.083549
    22  H    0.087664
    23  H    0.091766
    24  C   -0.196250
    25  H    0.098734
    26  H    0.087436
    27  H    0.077626
    28  C   -0.180384
    29  H    0.114082
    30  H    0.113677
    31  H    0.128960
 Sum of Mulliken charges =  -0.00000
 Mulliken charges with hydrogens summed into heavy atoms:
               1
     1  O   -0.252350
     2  C    0.311640
     3  C   -0.175426
     4  C    0.168076
     5  C   -0.088285
     6  C   -0.059826
     7  C    0.152667
     8  C   -0.189375
     9  C    0.176960
    10  C   -0.104248
    11  C    0.105314
    12  C    0.219455
    13  O   -0.058420
    14  O   -0.267635
    15  C   -0.006067
    24  C   -0.108814
    28  C    0.176334
 Electronic spatial extent (au):  <R**2>=           5588.9078
 Charge=             -0.0000 electrons
 Dipole moment (field-independent basis, Debye):
    X=              2.0971    Y=             -2.1242    Z=              1.2563  Tot=              3.2386
 Quadrupole moment (field-independent basis, Debye-Ang):
   XX=            -92.0069   YY=            -92.5358   ZZ=           -105.2444
   XY=             -1.7098   XZ=             -6.5008   YZ=              3.5713
 Traceless Quadrupole moment (field-independent basis, Debye-Ang):
   XX=              4.5888   YY=              4.0599   ZZ=             -8.6487
   XY=             -1.7098   XZ=             -6.5008   YZ=              3.5713
 Octapole moment (field-independent basis, Debye-Ang**2):
  XXX=            102.7774  YYY=             -5.8393  ZZZ=             -8.0949  XYY=             -6.9088
  XXY=            -61.7934  XXZ=             22.4611  XZZ=             -0.9977  YZZ=            -13.1223
  YYZ=            -11.0427  XYZ=            -19.4119
 Hexadecapole moment (field-independent basis, Debye-Ang**3):
 XXXX=          -5593.8381 YYYY=           -815.9167 ZZZZ=           -466.5551 XXXY=            -35.5452
 XXXZ=           -119.8402 YYYX=             43.3692 YYYZ=             12.5167 ZZZX=             14.0896
 ZZZY=             24.3953 XXYY=          -1083.8740 XXZZ=          -1138.7380 YYZZ=           -218.2726
 XXYZ=             89.8130 YYXZ=             39.0509 ZZXY=             45.4393
 N-N= 1.121019519291D+03 E-N=-4.033224148517D+03  KE= 7.646777551690D+02
 Leave Link  601 at Wed Jan 30 21:04:36 2019, MaxMem=   104857600 cpu:              15.0 elap:               1.3
 (Enter /util/academic/gaussian/g16.A03/x86-64-SSE4_2/g16/l9999.exe)
 Electronic transition elements 
                 1             2             3             4             5 
      1  -0.767501D+03 -0.767490D+03 -0.767474D+03 -0.767470D+03 -0.767458D+03
      2  -0.269247D+00 -0.670177D+00 -0.807288D+00  0.247635D+00  0.465835D+00
      3  -0.711014D+00 -0.197373D+00 -0.482062D-02  0.744709D-02  0.924562D-01
      4  -0.878906D-01 -0.528354D-01 -0.136731D-01  0.395076D-01 -0.566918D-02
      5   0.341522D-01  0.937439D-01  0.126127D+00 -0.402341D-01 -0.794019D-01
      6   0.915539D-01  0.278067D-01  0.867570D-03 -0.828378D-03 -0.159352D-01
      7   0.111977D-01  0.729316D-02  0.200222D-02 -0.563630D-02  0.110440D-02
      8   0.407031D-01 -0.163067D-01 -0.115702D-01  0.491108D-01 -0.531649D-01
      9  -0.587551D-01 -0.958425D-01 -0.140865D+00  0.130577D+00  0.154616D+00
     10  -0.429632D-01 -0.361569D+00 -0.106314D-01  0.431339D+00 -0.314512D+00
     11  -0.650827D-01  0.179078D-01  0.307862D-01 -0.187010D+00  0.374663D+00
     12  -0.574581D-01 -0.112990D-01 -0.739192D-01 -0.123731D-01 -0.166348D+00
     13   0.276875D-01  0.719442D-01  0.541081D-01 -0.486395D-01 -0.381884D-01
     14  -0.294654D+00 -0.345863D-01  0.398623D-01 -0.812057D-01  0.252823D-01
     15  -0.136853D-01  0.420412D-01  0.287997D-01 -0.433891D-01 -0.205968D-01
     16  -0.292984D-01 -0.707428D-02 -0.566848D-02  0.669466D-02  0.146068D-02
 1\1\GINC-CPN-U28-26\SP\RBLYP TD-FC\def2TZVP\C14H14O3\HERBERTL\30-Jan-2
 019\0\\#P BLYP/def2TZVP TD=(Singlet, NStates=5)\\tddft\\0,1\O,0,-2.048
 605,-0.72184,-0.456245\C,0,-0.674837,-0.646757,-0.541043\C,0,-0.121449
 ,0.623317,-0.436988\C,0,1.280742,0.814044,-0.510481\C,0,1.888654,2.099
 382,-0.404783\C,0,3.258877,2.245662,-0.480267\C,0,4.118443,1.123988,-0
 .672416\C,0,3.549889,-0.136576,-0.772394\C,0,2.142032,-0.328023,-0.697
 301\C,0,0.169398,-1.77861,-0.724219\C,0,5.634881,1.350781,-0.764054\C,
 0,6.329694,0.808178,0.491346\O,0,6.541226,-0.550744,0.437182\O,0,6.660
 201,1.475679,1.451632\C,0,6.258275,0.813497,-2.075214\H,0,5.805717,2.4
 32788,-0.713085\H,0,5.78375,1.30391,-2.934209\H,0,6.120036,-0.267962,-
 2.175928\H,0,7.335476,1.023528,-2.110083\H,0,6.954226,-0.794152,1.2931
 69\H,0,1.253413,2.973426,-0.260687\H,0,3.699429,3.238749,-0.391841\H,0
 ,4.181605,-1.014996,-0.901885\C,0,1.540695,-1.611935,-0.798985\H,0,-0.
 25324,-2.776231,-0.806365\H,0,2.180166,-2.483691,-0.939531\H,0,-0.7833
 32,1.476876,-0.295943\C,0,-2.680932,-2.008541,-0.553144\H,0,-2.359134,
 -2.679527,0.257524\H,0,-2.482311,-2.484864,-1.525086\H,0,-3.753242,-1.
 813967,-0.457828\\Version=ES64L-G16RevA.03\State=1-A\HF=-767.6291698\R
 MSD=3.076e-09\PG=C01 [X(C14H14O3)]\\@


 HOW IS IT THAT THE SKY FEEDS THE STARS?

                           -- LUCRETIUS
 Job cpu time:       0 days  5 hours 20 minutes 43.2 seconds.
 Elapsed time:       0 days  0 hours 20 minutes  8.7 seconds.
 File lengths (MBytes):  RWF=   1153 Int=      0 D2E=      0 Chk=     77 Scr=      1
 Normal termination of Gaussian 16 at Wed Jan 30 21:04:36 2019.
