 Entering Gaussian System, Link 0=g16
 Initial command:
 /util/academic/gaussian/g16.A03/x86-64-SSE4_2/g16/l1.exe "/scratch/2819080/Gau-13841.inp" -scrdir="/scratch/2819080/"
 Entering Link 1 = /util/academic/gaussian/g16.A03/x86-64-SSE4_2/g16/l1.exe PID=     13851.
  
 Copyright (c) 1988,1990,1992,1993,1995,1998,2003,2009,2016,
            Gaussian, Inc.  All Rights Reserved.
  
 This is part of the Gaussian(R) 16 program.  It is based on
 the Gaussian(R) 09 system (copyright 2009, Gaussian, Inc.),
 the Gaussian(R) 03 system (copyright 2003, Gaussian, Inc.),
 the Gaussian(R) 98 system (copyright 1998, Gaussian, Inc.),
 the Gaussian(R) 94 system (copyright 1995, Gaussian, Inc.),
 the Gaussian 92(TM) system (copyright 1992, Gaussian, Inc.),
 the Gaussian 90(TM) system (copyright 1990, Gaussian, Inc.),
 the Gaussian 88(TM) system (copyright 1988, Gaussian, Inc.),
 the Gaussian 86(TM) system (copyright 1986, Carnegie Mellon
 University), and the Gaussian 82(TM) system (copyright 1983,
 Carnegie Mellon University). Gaussian is a federally registered
 trademark of Gaussian, Inc.
  
 This software contains proprietary and confidential information,
 including trade secrets, belonging to Gaussian, Inc.
  
 This software is provided under written license and may be
 used, copied, transmitted, or stored only in accord with that
 written license.
  
 The following legend is applicable only to US Government
 contracts under FAR:
  
                    RESTRICTED RIGHTS LEGEND
  
 Use, reproduction and disclosure by the US Government is
 subject to restrictions as set forth in subparagraphs (a)
 and (c) of the Commercial Computer Software - Restricted
 Rights clause in FAR 52.227-19.
  
 Gaussian, Inc.
 340 Quinnipiac St., Bldg. 40, Wallingford CT 06492
  
  
 ---------------------------------------------------------------
 Warning -- This program may not be used in any manner that
 competes with the business of Gaussian, Inc. or will provide
 assistance to any competitor of Gaussian, Inc.  The licensee
 of this program is prohibited from giving any competitor of
 Gaussian, Inc. access to this program.  By using this program,
 the user acknowledges that Gaussian, Inc. is engaged in the
 business of creating and licensing software in the field of
 computational chemistry and represents and warrants to the
 licensee that it is not a competitor of Gaussian, Inc. and that
 it will not use this program in any manner prohibited above.
 ---------------------------------------------------------------
  

 Cite this work as:
 Gaussian 16, Revision A.03,
 M. J. Frisch, G. W. Trucks, H. B. Schlegel, G. E. Scuseria, 
 M. A. Robb, J. R. Cheeseman, G. Scalmani, V. Barone, 
 G. A. Petersson, H. Nakatsuji, X. Li, M. Caricato, A. V. Marenich, 
 J. Bloino, B. G. Janesko, R. Gomperts, B. Mennucci, H. P. Hratchian, 
 J. V. Ortiz, A. F. Izmaylov, J. L. Sonnenberg, D. Williams-Young, 
 F. Ding, F. Lipparini, F. Egidi, J. Goings, B. Peng, A. Petrone, 
 T. Henderson, D. Ranasinghe, V. G. Zakrzewski, J. Gao, N. Rega, 
 G. Zheng, W. Liang, M. Hada, M. Ehara, K. Toyota, R. Fukuda, 
 J. Hasegawa, M. Ishida, T. Nakajima, Y. Honda, O. Kitao, H. Nakai, 
 T. Vreven, K. Throssell, J. A. Montgomery, Jr., J. E. Peralta, 
 F. Ogliaro, M. J. Bearpark, J. J. Heyd, E. N. Brothers, K. N. Kudin, 
 V. N. Staroverov, T. A. Keith, R. Kobayashi, J. Normand, 
 K. Raghavachari, A. P. Rendell, J. C. Burant, S. S. Iyengar, 
 J. Tomasi, M. Cossi, J. M. Millam, M. Klene, C. Adamo, R. Cammi, 
 J. W. Ochterski, R. L. Martin, K. Morokuma, O. Farkas, 
 J. B. Foresman, and D. J. Fox, Gaussian, Inc., Wallingford CT, 2016.
 
 ******************************************
 Gaussian 16:  ES64L-G16RevA.03 25-Dec-2016
                16-Mar-2019 
 ******************************************
 %NProc=12
 Will use up to   12 processors via shared memory.
 %chk=chk.chk
 ----------------------------------------------------------------------
 #P blyp/def2TZVP OPT=VeryTight SCF=Tight Int=UltraFine NoSymm FREQ=(Sa
 veNormalModes, HPModes) gfinput pop=full
 ----------------------------------------------------------------------
 1/7=1,18=20,19=15,26=4,38=1/1,3;
 2/9=110,12=2,15=1,17=6,18=5,40=1/2;
 3/5=44,7=101,11=2,24=10,25=1,30=1,71=1,74=402,75=-5/1,2,3;
 4//1;
 5/5=2,32=2,38=5/2;
 6/7=3,28=1/1;
 7/30=1,92=1/1,2,3,16;
 1/7=1,18=20,19=15,26=4/3(2);
 2/9=110,15=1/2;
 99//99;
 2/9=110,15=1/2;
 3/5=44,7=101,11=2,25=1,30=1,71=1,74=402,75=-5/1,2,3;
 4/5=5,16=3,69=1/1;
 5/5=2,32=2,38=5/2;
 7/30=1,92=1/1,2,3,16;
 1/7=1,18=20,19=15,26=4/3(-5);
 2/9=110,15=1/2;
 6/7=3,19=2,28=1/1;
 99/9=1/99;
 Leave Link    1 at Sat Mar 16 13:25:31 2019, MaxMem=           0 cpu:               0.9 elap:               0.1
 (Enter /util/academic/gaussian/g16.A03/x86-64-SSE4_2/g16/l101.exe)
 ---
 opt
 ---
 Symbolic Z-matrix:
 Charge =  0 Multiplicity = 1
 O                    -0.85156  -0.17078   0.20068 
 C                     0.57036  -0.15885   0.12281 
 C                    -0.19298   1.08068   0.33748 
 C                     1.1836   -0.51897  -1.2074 
 H                     1.06383  -0.6041    1.00242 
 H                    -0.23516   1.53584   1.33917 
 H                    -0.3288    1.78401  -0.49895 
 H                     2.24749  -0.22024  -1.24367 
 H                     1.13157  -1.6102   -1.37547 
 H                     0.64775  -0.02025  -2.03334 
 
 ITRead=  0  0  0  0  0  0  0  0  0  0
 MicOpt= -1 -1 -1 -1 -1 -1 -1 -1 -1 -1
 NAtoms=     10 NQM=       10 NQMF=       0 NMMI=      0 NMMIF=      0
                NMic=       0 NMicF=      0.
                    Isotopes and Nuclear Properties:
 (Nuclear quadrupole moments (NQMom) in fm**2, nuclear magnetic moments (NMagM)
  in nuclear magnetons)

  Atom         1           2           3           4           5           6           7           8           9          10
 IAtWgt=          16          12          12          12           1           1           1           1           1           1
 AtmWgt=  15.9949146  12.0000000  12.0000000  12.0000000   1.0078250   1.0078250   1.0078250   1.0078250   1.0078250   1.0078250
 NucSpn=           0           0           0           0           1           1           1           1           1           1
 AtZEff=  -0.0000000  -0.0000000  -0.0000000  -0.0000000  -0.0000000  -0.0000000  -0.0000000  -0.0000000  -0.0000000  -0.0000000
 NQMom=    0.0000000   0.0000000   0.0000000   0.0000000   0.0000000   0.0000000   0.0000000   0.0000000   0.0000000   0.0000000
 NMagM=    0.0000000   0.0000000   0.0000000   0.0000000   2.7928460   2.7928460   2.7928460   2.7928460   2.7928460   2.7928460
 AtZNuc=   8.0000000   6.0000000   6.0000000   6.0000000   1.0000000   1.0000000   1.0000000   1.0000000   1.0000000   1.0000000
 Leave Link  101 at Sat Mar 16 13:25:32 2019, MaxMem=   104857600 cpu:               1.9 elap:               0.2
 (Enter /util/academic/gaussian/g16.A03/x86-64-SSE4_2/g16/l103.exe)

 GradGradGradGradGradGradGradGradGradGradGradGradGradGradGradGradGradGrad
 Berny optimization.
 Initialization pass.
                           ----------------------------
                           !    Initial Parameters    !
                           ! (Angstroms and Degrees)  !
 --------------------------                            --------------------------
 ! Name  Definition              Value          Derivative Info.                !
 --------------------------------------------------------------------------------
 ! R1    R(1,2)                  1.4241         estimate D2E/DX2                !
 ! R2    R(1,3)                  1.4208         estimate D2E/DX2                !
 ! R3    R(2,3)                  1.4715         estimate D2E/DX2                !
 ! R4    R(2,4)                  1.5084         estimate D2E/DX2                !
 ! R5    R(2,5)                  1.1025         estimate D2E/DX2                !
 ! R6    R(3,6)                  1.1011         estimate D2E/DX2                !
 ! R7    R(3,7)                  1.1012         estimate D2E/DX2                !
 ! R8    R(4,8)                  1.1056         estimate D2E/DX2                !
 ! R9    R(4,9)                  1.1053         estimate D2E/DX2                !
 ! R10   R(4,10)                 1.1037         estimate D2E/DX2                !
 ! A1    A(1,2,4)              116.8818         estimate D2E/DX2                !
 ! A2    A(1,2,5)              113.5719         estimate D2E/DX2                !
 ! A3    A(3,2,4)              122.7297         estimate D2E/DX2                !
 ! A4    A(3,2,5)              117.1298         estimate D2E/DX2                !
 ! A5    A(4,2,5)              115.1638         estimate D2E/DX2                !
 ! A6    A(1,3,6)              115.7187         estimate D2E/DX2                !
 ! A7    A(1,3,7)              115.6108         estimate D2E/DX2                !
 ! A8    A(2,3,6)              120.0537         estimate D2E/DX2                !
 ! A9    A(2,3,7)              119.4178         estimate D2E/DX2                !
 ! A10   A(6,3,7)              114.977          estimate D2E/DX2                !
 ! A11   A(2,4,8)              110.8318         estimate D2E/DX2                !
 ! A12   A(2,4,9)              110.5278         estimate D2E/DX2                !
 ! A13   A(2,4,10)             110.7749         estimate D2E/DX2                !
 ! A14   A(8,4,9)              107.8817         estimate D2E/DX2                !
 ! A15   A(8,4,10)             108.6962         estimate D2E/DX2                !
 ! A16   A(9,4,10)             108.0277         estimate D2E/DX2                !
 ! D1    D(4,2,3,6)           -152.4867         estimate D2E/DX2                !
 ! D2    D(4,2,3,7)             -0.0726         estimate D2E/DX2                !
 ! D3    D(5,2,3,6)              1.3145         estimate D2E/DX2                !
 ! D4    D(5,2,3,7)            153.7286         estimate D2E/DX2                !
 ! D5    D(1,2,4,8)            164.6863         estimate D2E/DX2                !
 ! D6    D(1,2,4,9)            -75.7574         estimate D2E/DX2                !
 ! D7    D(1,2,4,10)            43.9446         estimate D2E/DX2                !
 ! D8    D(3,2,4,8)             96.1391         estimate D2E/DX2                !
 ! D9    D(3,2,4,9)           -144.3046         estimate D2E/DX2                !
 ! D10   D(3,2,4,10)           -24.6026         estimate D2E/DX2                !
 ! D11   D(5,2,4,8)            -58.1321         estimate D2E/DX2                !
 ! D12   D(5,2,4,9)             61.4242         estimate D2E/DX2                !
 ! D13   D(5,2,4,10)          -178.8738         estimate D2E/DX2                !
 --------------------------------------------------------------------------------
 Trust Radius=3.00D-01 FncErr=1.00D-07 GrdErr=1.00D-06 EigMax=2.50D+02 EigMin=1.00D-04
 Number of steps in this run=     49 maximum allowed number of steps=    100.
 GradGradGradGradGradGradGradGradGradGradGradGradGradGradGradGradGradGrad

 Leave Link  103 at Sat Mar 16 13:25:32 2019, MaxMem=   104857600 cpu:               0.7 elap:               0.1
 (Enter /util/academic/gaussian/g16.A03/x86-64-SSE4_2/g16/l202.exe)
                          Input orientation:                          
 ---------------------------------------------------------------------
 Center     Atomic      Atomic             Coordinates (Angstroms)
 Number     Number       Type             X           Y           Z
 ---------------------------------------------------------------------
      1          8           0       -0.851564   -0.170778    0.200679
      2          6           0        0.570363   -0.158845    0.122809
      3          6           0       -0.192981    1.080683    0.337475
      4          6           0        1.183600   -0.518969   -1.207399
      5          1           0        1.063833   -0.604101    1.002423
      6          1           0       -0.235157    1.535838    1.339171
      7          1           0       -0.328803    1.784005   -0.498952
      8          1           0        2.247487   -0.220236   -1.243668
      9          1           0        1.131573   -1.610199   -1.375467
     10          1           0        0.647749   -0.020246   -2.033343
 ---------------------------------------------------------------------
                    Distance matrix (angstroms):
                    1          2          3          4          5
     1  O    0.000000
     2  C    1.424108   0.000000
     3  C    1.420774   1.471464   0.000000
     4  C    2.499162   1.508377   2.615434   0.000000
     5  H    2.121157   1.102491   2.204594   2.214702   0.000000
     6  H    2.142116   2.236146   1.101063   3.566528   2.525889
     7  H    2.141014   2.229294   1.101235   2.844811   3.145888
     8  H    3.419459   2.164203   3.185638   1.105628   2.567745
     9  H    2.913589   2.160143   3.453905   1.105322   2.582863
    10  H    2.694708   2.161987   2.745842   1.103650   3.119277
                    6          7          8          9         10
     6  H    0.000000
     7  H    1.857163   0.000000
     8  H    3.989784   3.347963   0.000000
     9  H    4.374330   3.797578   1.787353   0.000000
    10  H    3.817692   2.561900   1.795200   1.787411   0.000000
 Symmetry turned off by external request.
 Stoichiometry    C3H6O
 Framework group  C1[X(C3H6O)]
 Deg. of freedom    24
 Full point group                 C1      NOp   1
 Rotational constants (GHZ):          18.2700766           6.6025096           5.9106120
 Leave Link  202 at Sat Mar 16 13:25:32 2019, MaxMem=   104857600 cpu:               2.1 elap:               0.2
 (Enter /util/academic/gaussian/g16.A03/x86-64-SSE4_2/g16/l301.exe)
 Standard basis: def2TZVP (5D, 7F)
 Ernie: Thresh=  0.10000D-02 Tol=  0.10000D-05 Strict=F.
 AO basis set in the form of general basis input (Overlap normalization):
      1 0
 S   6 1.00       0.000000000000
      0.2703238263D+05  0.5722733521D-03
      0.4052387139D+04  0.4435323349D-02
      0.9223272271D+03  0.2302010771D-01
      0.2612407099D+03  0.9282249067D-01
      0.8535464135D+02  0.2937850001D+00
      0.3103503525D+02  0.6740160450D+00
 S   2 1.00       0.000000000000
      0.1226086073D+02  0.6383993703D+00
      0.4998707601D+01  0.3953458713D+00
 S   1 1.00       0.000000000000
      0.1170310816D+01  0.1000000000D+01
 S   1 1.00       0.000000000000
      0.4647474099D+00  0.1000000000D+01
 S   1 1.00       0.000000000000
      0.1850453636D+00  0.1000000000D+01
 P   4 1.00       0.000000000000
      0.6327495480D+02  0.1201833222D-01
      0.1462704938D+02  0.8300542179D-01
      0.4450122346D+01  0.3199174393D+00
      0.1527579965D+01  0.7071554292D+00
 P   1 1.00       0.000000000000
      0.5293511794D+00  0.1000000000D+01
 P   1 1.00       0.000000000000
      0.1747842127D+00  0.1000000000D+01
 D   1 1.00       0.000000000000
      0.2314000000D+01  0.1000000000D+01
 D   1 1.00       0.000000000000
      0.6450000000D+00  0.1000000000D+01
 F   1 1.00       0.000000000000
      0.1428000000D+01  0.1000000000D+01
 ****
      2 0
 S   6 1.00       0.000000000000
      0.1357534968D+05  0.6064550360D-03
      0.2035233368D+04  0.4697908888D-02
      0.4632256236D+03  0.2433247765D-01
      0.1312001960D+03  0.9739996831D-01
      0.4285301589D+02  0.3019558425D+00
      0.1558418577D+02  0.6623360914D+00
 S   2 1.00       0.000000000000
      0.6206713851D+01  0.6559530854D+00
      0.2576489653D+01  0.3758563329D+00
 S   1 1.00       0.000000000000
      0.5769633942D+00  0.1000000000D+01
 S   1 1.00       0.000000000000
      0.2297283136D+00  0.1000000000D+01
 S   1 1.00       0.000000000000
      0.9516444003D-01  0.1000000000D+01
 P   4 1.00       0.000000000000
      0.3469723224D+02  0.1132722000D-01
      0.7958262283D+01  0.7616965920D-01
      0.2378082688D+01  0.3019225220D+00
      0.8143320818D+00  0.7278502735D+00
 P   1 1.00       0.000000000000
      0.2888754725D+00  0.1000000000D+01
 P   1 1.00       0.000000000000
      0.1005682367D+00  0.1000000000D+01
 D   1 1.00       0.000000000000
      0.1097000000D+01  0.1000000000D+01
 D   1 1.00       0.000000000000
      0.3180000000D+00  0.1000000000D+01
 F   1 1.00       0.000000000000
      0.7610000000D+00  0.1000000000D+01
 ****
      3 0
 S   6 1.00       0.000000000000
      0.1357534968D+05  0.6064550360D-03
      0.2035233368D+04  0.4697908888D-02
      0.4632256236D+03  0.2433247765D-01
      0.1312001960D+03  0.9739996831D-01
      0.4285301589D+02  0.3019558425D+00
      0.1558418577D+02  0.6623360914D+00
 S   2 1.00       0.000000000000
      0.6206713851D+01  0.6559530854D+00
      0.2576489653D+01  0.3758563329D+00
 S   1 1.00       0.000000000000
      0.5769633942D+00  0.1000000000D+01
 S   1 1.00       0.000000000000
      0.2297283136D+00  0.1000000000D+01
 S   1 1.00       0.000000000000
      0.9516444003D-01  0.1000000000D+01
 P   4 1.00       0.000000000000
      0.3469723224D+02  0.1132722000D-01
      0.7958262283D+01  0.7616965920D-01
      0.2378082688D+01  0.3019225220D+00
      0.8143320818D+00  0.7278502735D+00
 P   1 1.00       0.000000000000
      0.2888754725D+00  0.1000000000D+01
 P   1 1.00       0.000000000000
      0.1005682367D+00  0.1000000000D+01
 D   1 1.00       0.000000000000
      0.1097000000D+01  0.1000000000D+01
 D   1 1.00       0.000000000000
      0.3180000000D+00  0.1000000000D+01
 F   1 1.00       0.000000000000
      0.7610000000D+00  0.1000000000D+01
 ****
      4 0
 S   6 1.00       0.000000000000
      0.1357534968D+05  0.6064550360D-03
      0.2035233368D+04  0.4697908888D-02
      0.4632256236D+03  0.2433247765D-01
      0.1312001960D+03  0.9739996831D-01
      0.4285301589D+02  0.3019558425D+00
      0.1558418577D+02  0.6623360914D+00
 S   2 1.00       0.000000000000
      0.6206713851D+01  0.6559530854D+00
      0.2576489653D+01  0.3758563329D+00
 S   1 1.00       0.000000000000
      0.5769633942D+00  0.1000000000D+01
 S   1 1.00       0.000000000000
      0.2297283136D+00  0.1000000000D+01
 S   1 1.00       0.000000000000
      0.9516444003D-01  0.1000000000D+01
 P   4 1.00       0.000000000000
      0.3469723224D+02  0.1132722000D-01
      0.7958262283D+01  0.7616965920D-01
      0.2378082688D+01  0.3019225220D+00
      0.8143320818D+00  0.7278502735D+00
 P   1 1.00       0.000000000000
      0.2888754725D+00  0.1000000000D+01
 P   1 1.00       0.000000000000
      0.1005682367D+00  0.1000000000D+01
 D   1 1.00       0.000000000000
      0.1097000000D+01  0.1000000000D+01
 D   1 1.00       0.000000000000
      0.3180000000D+00  0.1000000000D+01
 F   1 1.00       0.000000000000
      0.7610000000D+00  0.1000000000D+01
 ****
      5 0
 S   3 1.00       0.000000000000
      0.3406134100D+02  0.2543930721D-01
      0.5123574600D+01  0.1900859489D+00
      0.1164662600D+01  0.8524411301D+00
 S   1 1.00       0.000000000000
      0.3272304100D+00  0.1000000000D+01
 S   1 1.00       0.000000000000
      0.1030724100D+00  0.1000000000D+01
 P   1 1.00       0.000000000000
      0.8000000000D+00  0.1000000000D+01
 ****
      6 0
 S   3 1.00       0.000000000000
      0.3406134100D+02  0.2543930721D-01
      0.5123574600D+01  0.1900859489D+00
      0.1164662600D+01  0.8524411301D+00
 S   1 1.00       0.000000000000
      0.3272304100D+00  0.1000000000D+01
 S   1 1.00       0.000000000000
      0.1030724100D+00  0.1000000000D+01
 P   1 1.00       0.000000000000
      0.8000000000D+00  0.1000000000D+01
 ****
      7 0
 S   3 1.00       0.000000000000
      0.3406134100D+02  0.2543930721D-01
      0.5123574600D+01  0.1900859489D+00
      0.1164662600D+01  0.8524411301D+00
 S   1 1.00       0.000000000000
      0.3272304100D+00  0.1000000000D+01
 S   1 1.00       0.000000000000
      0.1030724100D+00  0.1000000000D+01
 P   1 1.00       0.000000000000
      0.8000000000D+00  0.1000000000D+01
 ****
      8 0
 S   3 1.00       0.000000000000
      0.3406134100D+02  0.2543930721D-01
      0.5123574600D+01  0.1900859489D+00
      0.1164662600D+01  0.8524411301D+00
 S   1 1.00       0.000000000000
      0.3272304100D+00  0.1000000000D+01
 S   1 1.00       0.000000000000
      0.1030724100D+00  0.1000000000D+01
 P   1 1.00       0.000000000000
      0.8000000000D+00  0.1000000000D+01
 ****
      9 0
 S   3 1.00       0.000000000000
      0.3406134100D+02  0.2543930721D-01
      0.5123574600D+01  0.1900859489D+00
      0.1164662600D+01  0.8524411301D+00
 S   1 1.00       0.000000000000
      0.3272304100D+00  0.1000000000D+01
 S   1 1.00       0.000000000000
      0.1030724100D+00  0.1000000000D+01
 P   1 1.00       0.000000000000
      0.8000000000D+00  0.1000000000D+01
 ****
     10 0
 S   3 1.00       0.000000000000
      0.3406134100D+02  0.2543930721D-01
      0.5123574600D+01  0.1900859489D+00
      0.1164662600D+01  0.8524411301D+00
 S   1 1.00       0.000000000000
      0.3272304100D+00  0.1000000000D+01
 S   1 1.00       0.000000000000
      0.1030724100D+00  0.1000000000D+01
 P   1 1.00       0.000000000000
      0.8000000000D+00  0.1000000000D+01
 ****

   160 basis functions,   252 primitive gaussians,   180 cartesian basis functions
    16 alpha electrons       16 beta electrons
       nuclear repulsion energy       124.4453955657 Hartrees.
 IExCor=  402 DFT=T Ex=B Corr=LYP ExCW=0 ScaHFX=  0.000000
 ScaDFX=  1.000000  1.000000  1.000000  1.000000 ScalE2=  1.000000  1.000000
 IRadAn=      5 IRanWt=     -1 IRanGd=            0 ICorTp=0 IEmpDi=  4
 NAtoms=   10 NActive=   10 NUniq=   10 SFac= 1.00D+00 NAtFMM=   60 NAOKFM=F Big=F
 Integral buffers will be    131072 words long.
 Raffenetti 2 integral format.
 Two-electron integral symmetry is turned off.
 Leave Link  301 at Sat Mar 16 13:25:33 2019, MaxMem=   104857600 cpu:               1.7 elap:               0.3
 (Enter /util/academic/gaussian/g16.A03/x86-64-SSE4_2/g16/l302.exe)
 NPDir=0 NMtPBC=     1 NCelOv=     1 NCel=       1 NClECP=     1 NCelD=      1
         NCelK=      1 NCelE2=     1 NClLst=     1 CellRange=     0.0.
 One-electron integrals computed using PRISM.
   1 Symmetry operations used in ECPInt.
 ECPInt:  NShTT=    2346 NPrTT=    6892 LenC2=    2340 LenP2D=    5998.
 LDataN:  DoStor=T MaxTD1= 6 Len=  172
 NBasis=   160 RedAO= T EigKep=  2.94D-04  NBF=   160
 NBsUse=   160 1.00D-06 EigRej= -1.00D+00 NBFU=   160
 Precomputing XC quadrature grid using
 IXCGrd= 4 IRadAn=           5 IRanWt=          -1 IRanGd=           0 AccXCQ= 0.00D+00.
 Generated NRdTot=       0 NPtTot=           0 NUsed=           0 NTot=          32
 NSgBfM=   180   180   180   180   180 MxSgAt=    10 MxSgA2=    10.
 Leave Link  302 at Sat Mar 16 13:25:34 2019, MaxMem=   104857600 cpu:               4.7 elap:               0.6
 (Enter /util/academic/gaussian/g16.A03/x86-64-SSE4_2/g16/l303.exe)
 DipDrv:  MaxL=1.
 Leave Link  303 at Sat Mar 16 13:25:34 2019, MaxMem=   104857600 cpu:               1.4 elap:               0.4
 (Enter /util/academic/gaussian/g16.A03/x86-64-SSE4_2/g16/l401.exe)
 ExpMin= 9.52D-02 ExpMax= 2.70D+04 ExpMxC= 9.22D+02 IAcc=3 IRadAn=         5 AccDes= 0.00D+00
 Harris functional with IExCor=  402 and IRadAn=       5 diagonalized for initial guess.
 HarFok:  IExCor=  402 AccDes= 0.00D+00 IRadAn=         5 IDoV= 1 UseB2=F ITyADJ=14
 ICtDFT=  3500011 ScaDFX=  1.000000  1.000000  1.000000  1.000000
 FoFCou: FMM=F IPFlag=           0 FMFlag=      100000 FMFlg1=           0
         NFxFlg=           0 DoJE=T BraDBF=F KetDBF=T FulRan=T
         wScrn=  0.000000 ICntrl=       500 IOpCl=  0 I1Cent=   200000004 NGrid=           0
         NMat0=    1 NMatS0=      1 NMatT0=    0 NMatD0=    1 NMtDS0=    0 NMtDT0=    0
 Symmetry not used in FoFCou.
 Harris En= -193.208248991608    
 JPrj=0 DoOrth=F DoCkMO=F.
 Leave Link  401 at Sat Mar 16 13:25:36 2019, MaxMem=   104857600 cpu:              11.5 elap:               1.1
 (Enter /util/academic/gaussian/g16.A03/x86-64-SSE4_2/g16/l502.exe)
 Keep J ints in memory in canonical form, NReq=95053554.
 FoFCou: FMM=F IPFlag=           0 FMFlag=           0 FMFlg1=           0
         NFxFlg=           0 DoJE=F BraDBF=F KetDBF=F FulRan=T
         wScrn=  0.000000 ICntrl=       600 IOpCl=  0 I1Cent=           0 NGrid=           0
         NMat0=    1 NMatS0=  12880 NMatT0=    0 NMatD0=    1 NMtDS0=    0 NMtDT0=    0
 Symmetry not used in FoFCou.
 CoulSu:  requested number of processors reduced to:  10 ShMem   1 Linda.
 Two-electron integral symmetry not used.
 Closed shell SCF:
 Using DIIS extrapolation, IDIIS=  1040.
 NGot=   104857600 LenX=    21835618 LenY=    21802777
 Requested convergence on RMS density matrix=1.00D-08 within 128 cycles.
 Requested convergence on MAX density matrix=1.00D-06.
 Requested convergence on             energy=1.00D-06.
 No special actions if energy rises.
 Integral accuracy reduced to 1.0D-05 until final iterations.

 Cycle   1  Pass 0  IDiag  1:
 E= -192.995386240034    
 DIIS: error= 2.59D-02 at cycle   1 NSaved=   1.
 NSaved= 1 IEnMin= 1 EnMin= -192.995386240034     IErMin= 1 ErrMin= 2.59D-02
 ErrMax= 2.59D-02  0.00D+00 EMaxC= 1.00D-01 BMatC= 1.11D-01 BMatP= 1.11D-01
 IDIUse=3 WtCom= 7.41D-01 WtEn= 2.59D-01
 Coeff-Com:  0.100D+01
 Coeff-En:   0.100D+01
 Coeff:      0.100D+01
 Gap=     0.246 Goal=   None    Shift=    0.000
 GapD=    0.246 DampG=1.000 DampE=0.500 DampFc=0.5000 IDamp=-1.
 Damping current iteration by 5.00D-01
 RMSDP=6.74D-03 MaxDP=1.48D-01              OVMax= 1.99D-01

 Cycle   2  Pass 0  IDiag  1:
 E= -193.021933073960     Delta-E=       -0.026546833926 Rises=F Damp=T
 DIIS: error= 8.14D-03 at cycle   2 NSaved=   2.
 NSaved= 2 IEnMin= 2 EnMin= -193.021933073960     IErMin= 2 ErrMin= 8.14D-03
 ErrMax= 8.14D-03  0.00D+00 EMaxC= 1.00D-01 BMatC= 1.79D-02 BMatP= 1.11D-01
 IDIUse=3 WtCom= 9.19D-01 WtEn= 8.14D-02
 Coeff-Com:  0.247D+00 0.753D+00
 Coeff-En:   0.382D+00 0.618D+00
 Coeff:      0.258D+00 0.742D+00
 Gap=     0.263 Goal=   None    Shift=    0.000
 RMSDP=2.00D-03 MaxDP=6.15D-02 DE=-2.65D-02 OVMax= 1.50D-01

 Cycle   3  Pass 0  IDiag  1:
 E= -193.100102782305     Delta-E=       -0.078169708345 Rises=F Damp=F
 DIIS: error= 6.49D-03 at cycle   3 NSaved=   3.
 NSaved= 3 IEnMin= 3 EnMin= -193.100102782305     IErMin= 3 ErrMin= 6.49D-03
 ErrMax= 6.49D-03  0.00D+00 EMaxC= 1.00D-01 BMatC= 1.08D-02 BMatP= 1.79D-02
 IDIUse=3 WtCom= 9.35D-01 WtEn= 6.49D-02
 Coeff-Com:  0.113D+00 0.450D+00 0.437D+00
 Coeff-En:   0.000D+00 0.000D+00 0.100D+01
 Coeff:      0.105D+00 0.421D+00 0.474D+00
 Gap=     0.241 Goal=   None    Shift=    0.000
 RMSDP=6.26D-04 MaxDP=1.61D-02 DE=-7.82D-02 OVMax= 2.86D-02

 Cycle   4  Pass 0  IDiag  1:
 E= -193.105788496929     Delta-E=       -0.005685714624 Rises=F Damp=F
 DIIS: error= 3.77D-03 at cycle   4 NSaved=   4.
 NSaved= 4 IEnMin= 4 EnMin= -193.105788496929     IErMin= 4 ErrMin= 3.77D-03
 ErrMax= 3.77D-03  0.00D+00 EMaxC= 1.00D-01 BMatC= 3.38D-03 BMatP= 1.08D-02
 IDIUse=3 WtCom= 9.62D-01 WtEn= 3.77D-02
 Coeff-Com:  0.222D-01 0.122D+00 0.350D+00 0.506D+00
 Coeff-En:   0.000D+00 0.000D+00 0.285D+00 0.715D+00
 Coeff:      0.213D-01 0.118D+00 0.347D+00 0.514D+00
 Gap=     0.248 Goal=   None    Shift=    0.000
 RMSDP=2.40D-04 MaxDP=5.86D-03 DE=-5.69D-03 OVMax= 1.07D-02

 Cycle   5  Pass 0  IDiag  1:
 E= -193.108251018075     Delta-E=       -0.002462521146 Rises=F Damp=F
 DIIS: error= 5.56D-04 at cycle   5 NSaved=   5.
 NSaved= 5 IEnMin= 5 EnMin= -193.108251018075     IErMin= 5 ErrMin= 5.56D-04
 ErrMax= 5.56D-04  0.00D+00 EMaxC= 1.00D-01 BMatC= 6.25D-05 BMatP= 3.38D-03
 IDIUse=3 WtCom= 9.94D-01 WtEn= 5.56D-03
 Coeff-Com:  0.394D-02 0.306D-01 0.137D+00 0.239D+00 0.590D+00
 Coeff-En:   0.000D+00 0.000D+00 0.000D+00 0.000D+00 0.100D+01
 Coeff:      0.392D-02 0.305D-01 0.136D+00 0.237D+00 0.592D+00
 Gap=     0.248 Goal=   None    Shift=    0.000
 RMSDP=4.64D-05 MaxDP=1.22D-03 DE=-2.46D-03 OVMax= 3.19D-03

 Cycle   6  Pass 0  IDiag  1:
 E= -193.108291846829     Delta-E=       -0.000040828753 Rises=F Damp=F
 DIIS: error= 2.89D-04 at cycle   6 NSaved=   6.
 NSaved= 6 IEnMin= 6 EnMin= -193.108291846829     IErMin= 6 ErrMin= 2.89D-04
 ErrMax= 2.89D-04  0.00D+00 EMaxC= 1.00D-01 BMatC= 1.38D-05 BMatP= 6.25D-05
 IDIUse=3 WtCom= 9.97D-01 WtEn= 2.89D-03
 Coeff-Com:  0.724D-03 0.830D-02 0.552D-01 0.105D+00 0.374D+00 0.456D+00
 Coeff-En:   0.000D+00 0.000D+00 0.000D+00 0.000D+00 0.181D+00 0.819D+00
 Coeff:      0.722D-03 0.828D-02 0.550D-01 0.105D+00 0.374D+00 0.457D+00
 Gap=     0.248 Goal=   None    Shift=    0.000
 RMSDP=1.71D-05 MaxDP=5.62D-04 DE=-4.08D-05 OVMax= 1.47D-03

 Cycle   7  Pass 0  IDiag  1:
 E= -193.108304211516     Delta-E=       -0.000012364687 Rises=F Damp=F
 DIIS: error= 2.98D-05 at cycle   7 NSaved=   7.
 NSaved= 7 IEnMin= 7 EnMin= -193.108304211516     IErMin= 7 ErrMin= 2.98D-05
 ErrMax= 2.98D-05  0.00D+00 EMaxC= 1.00D-01 BMatC= 2.54D-07 BMatP= 1.38D-05
 IDIUse=1 WtCom= 1.00D+00 WtEn= 0.00D+00
 Coeff-Com:  0.212D-03 0.195D-02 0.168D-01 0.334D-01 0.132D+00 0.204D+00
 Coeff-Com:  0.611D+00
 Coeff:      0.212D-03 0.195D-02 0.168D-01 0.334D-01 0.132D+00 0.204D+00
 Coeff:      0.611D+00
 Gap=     0.247 Goal=   None    Shift=    0.000
 RMSDP=3.87D-06 MaxDP=6.42D-05 DE=-1.24D-05 OVMax= 2.11D-04

 Initial convergence to 1.0D-05 achieved.  Increase integral accuracy.
 Cycle   8  Pass 1  IDiag  1:
 E= -193.108304035077     Delta-E=        0.000000176439 Rises=F Damp=F
 DIIS: error= 1.25D-05 at cycle   1 NSaved=   1.
 NSaved= 1 IEnMin= 1 EnMin= -193.108304035077     IErMin= 1 ErrMin= 1.25D-05
 ErrMax= 1.25D-05  0.00D+00 EMaxC= 1.00D-01 BMatC= 3.06D-08 BMatP= 3.06D-08
 IDIUse=1 WtCom= 1.00D+00 WtEn= 0.00D+00
 Coeff-Com:  0.100D+01
 Coeff:      0.100D+01
 Gap=     0.248 Goal=   None    Shift=    0.000
 RMSDP=3.87D-06 MaxDP=6.42D-05 DE= 1.76D-07 OVMax= 1.24D-04

 Cycle   9  Pass 1  IDiag  1:
 E= -193.108303991858     Delta-E=        0.000000043219 Rises=F Damp=F
 DIIS: error= 2.06D-05 at cycle   2 NSaved=   2.
 NSaved= 2 IEnMin= 1 EnMin= -193.108304035077     IErMin= 1 ErrMin= 1.25D-05
 ErrMax= 2.06D-05  0.00D+00 EMaxC= 1.00D-01 BMatC= 7.55D-08 BMatP= 3.06D-08
 IDIUse=1 WtCom= 1.00D+00 WtEn= 0.00D+00
 Coeff-Com:  0.614D+00 0.386D+00
 Coeff:      0.614D+00 0.386D+00
 Gap=     0.247 Goal=   None    Shift=    0.000
 RMSDP=1.37D-06 MaxDP=3.15D-05 DE= 4.32D-08 OVMax= 8.26D-05

 Cycle  10  Pass 1  IDiag  1:
 E= -193.108304065558     Delta-E=       -0.000000073700 Rises=F Damp=F
 DIIS: error= 1.46D-06 at cycle   3 NSaved=   3.
 NSaved= 3 IEnMin= 3 EnMin= -193.108304065558     IErMin= 3 ErrMin= 1.46D-06
 ErrMax= 1.46D-06  0.00D+00 EMaxC= 1.00D-01 BMatC= 5.66D-10 BMatP= 3.06D-08
 IDIUse=1 WtCom= 1.00D+00 WtEn= 0.00D+00
 Coeff-Com:  0.226D+00 0.159D+00 0.615D+00
 Coeff:      0.226D+00 0.159D+00 0.615D+00
 Gap=     0.247 Goal=   None    Shift=    0.000
 RMSDP=1.71D-07 MaxDP=4.53D-06 DE=-7.37D-08 OVMax= 1.11D-05

 Cycle  11  Pass 1  IDiag  1:
 E= -193.108304065938     Delta-E=       -0.000000000380 Rises=F Damp=F
 DIIS: error= 9.03D-07 at cycle   4 NSaved=   4.
 NSaved= 4 IEnMin= 4 EnMin= -193.108304065938     IErMin= 4 ErrMin= 9.03D-07
 ErrMax= 9.03D-07  0.00D+00 EMaxC= 1.00D-01 BMatC= 1.67D-10 BMatP= 5.66D-10
 IDIUse=1 WtCom= 1.00D+00 WtEn= 0.00D+00
 Coeff-Com:  0.485D-01 0.410D-01 0.368D+00 0.542D+00
 Coeff:      0.485D-01 0.410D-01 0.368D+00 0.542D+00
 Gap=     0.247 Goal=   None    Shift=    0.000
 RMSDP=7.53D-08 MaxDP=1.96D-06 DE=-3.80D-10 OVMax= 5.07D-06

 Cycle  12  Pass 1  IDiag  1:
 E= -193.108304066086     Delta-E=       -0.000000000148 Rises=F Damp=F
 DIIS: error= 3.06D-07 at cycle   5 NSaved=   5.
 NSaved= 5 IEnMin= 5 EnMin= -193.108304066086     IErMin= 5 ErrMin= 3.06D-07
 ErrMax= 3.06D-07  0.00D+00 EMaxC= 1.00D-01 BMatC= 1.00D-11 BMatP= 1.67D-10
 IDIUse=1 WtCom= 1.00D+00 WtEn= 0.00D+00
 Coeff-Com: -0.444D-03 0.348D-02 0.112D+00 0.267D+00 0.618D+00
 Coeff:     -0.444D-03 0.348D-02 0.112D+00 0.267D+00 0.618D+00
 Gap=     0.247 Goal=   None    Shift=    0.000
 RMSDP=2.34D-08 MaxDP=3.90D-07 DE=-1.48D-10 OVMax= 1.05D-06

 Cycle  13  Pass 1  IDiag  1:
 E= -193.108304066095     Delta-E=       -0.000000000010 Rises=F Damp=F
 DIIS: error= 4.04D-08 at cycle   6 NSaved=   6.
 NSaved= 6 IEnMin= 6 EnMin= -193.108304066095     IErMin= 6 ErrMin= 4.04D-08
 ErrMax= 4.04D-08  0.00D+00 EMaxC= 1.00D-01 BMatC= 2.99D-13 BMatP= 1.00D-11
 IDIUse=1 WtCom= 1.00D+00 WtEn= 0.00D+00
 Coeff-Com: -0.145D-02 0.626D-03 0.430D-01 0.110D+00 0.287D+00 0.561D+00
 Coeff:     -0.145D-02 0.626D-03 0.430D-01 0.110D+00 0.287D+00 0.561D+00
 Gap=     0.247 Goal=   None    Shift=    0.000
 RMSDP=3.61D-09 MaxDP=5.80D-08 DE=-9.72D-12 OVMax= 1.54D-07

 SCF Done:  E(RB-LYP) =  -193.108304066     A.U. after   13 cycles
            NFock= 13  Conv=0.36D-08     -V/T= 2.0037
 KE= 1.923995229327D+02 PE=-6.998412802826D+02 EE= 1.898880577181D+02
 Leave Link  502 at Sat Mar 16 13:25:44 2019, MaxMem=   104857600 cpu:              78.0 elap:               8.3
 (Enter /util/academic/gaussian/g16.A03/x86-64-SSE4_2/g16/l601.exe)
 Copying SCF densities to generalized density rwf, IOpCl= 0 IROHF=0.

 **********************************************************************

            Population analysis using the SCF density.

 **********************************************************************

 Alpha  occ. eigenvalues --  -18.78175  -9.96238  -9.95569  -9.90850  -0.98215
 Alpha  occ. eigenvalues --   -0.66834  -0.58675  -0.53067  -0.45075  -0.41706
 Alpha  occ. eigenvalues --   -0.37830  -0.35583  -0.33163  -0.32223  -0.26075
 Alpha  occ. eigenvalues --   -0.22177
 Alpha virt. eigenvalues --    0.02572   0.04870   0.05057   0.05082   0.07054
 Alpha virt. eigenvalues --    0.08659   0.09275   0.10237   0.13947   0.17088
 Alpha virt. eigenvalues --    0.19943   0.20238   0.23713   0.24869   0.26966
 Alpha virt. eigenvalues --    0.29020   0.30250   0.33664   0.36247   0.37154
 Alpha virt. eigenvalues --    0.38657   0.39334   0.39905   0.41424   0.42506
 Alpha virt. eigenvalues --    0.44444   0.45738   0.46721   0.50637   0.53811
 Alpha virt. eigenvalues --    0.66071   0.67564   0.70917   0.76201   0.79665
 Alpha virt. eigenvalues --    0.83595   0.85649   0.87296   0.92316   0.96196
 Alpha virt. eigenvalues --    0.99232   1.01601   1.04389   1.07977   1.10530
 Alpha virt. eigenvalues --    1.15061   1.21685   1.35192   1.41592   1.43453
 Alpha virt. eigenvalues --    1.44287   1.44849   1.47286   1.47884   1.51356
 Alpha virt. eigenvalues --    1.53979   1.57400   1.60023   1.64335   1.68728
 Alpha virt. eigenvalues --    1.70261   1.79310   1.81531   1.84790   1.86470
 Alpha virt. eigenvalues --    1.93732   1.99347   2.00199   2.08087   2.08909
 Alpha virt. eigenvalues --    2.17299   2.20468   2.23211   2.24444   2.26884
 Alpha virt. eigenvalues --    2.28276   2.34442   2.38963   2.45676   2.46993
 Alpha virt. eigenvalues --    2.47892   2.52501   2.53486   2.55971   2.61371
 Alpha virt. eigenvalues --    2.64985   2.67673   2.71411   2.74307   2.81816
 Alpha virt. eigenvalues --    2.83445   2.85750   2.90016   2.96756   2.97279
 Alpha virt. eigenvalues --    2.99273   3.01208   3.03427   3.06317   3.14966
 Alpha virt. eigenvalues --    3.16786   3.19617   3.27997   3.30479   3.32020
 Alpha virt. eigenvalues --    3.35632   3.38616   3.43454   3.46036   3.56619
 Alpha virt. eigenvalues --    3.58309   3.64046   3.76681   3.78994   3.88306
 Alpha virt. eigenvalues --    3.89938   3.98940   4.04722   4.14301   4.19480
 Alpha virt. eigenvalues --    4.25380   4.28418   4.34423   4.46424   4.55806
 Alpha virt. eigenvalues --    4.57131   4.74276   4.78236   5.20287   5.37519
 Alpha virt. eigenvalues --    5.62192   5.64426   5.71795   5.81319   5.95454
 Alpha virt. eigenvalues --    6.48835   6.53360   6.69650   6.85012   7.05393
 Alpha virt. eigenvalues --   21.95423  21.97878  22.14071  43.44353
     Molecular Orbital Coefficients:
                           1         2         3         4         5
                           O         O         O         O         O
     Eigenvalues --   -18.78175  -9.96238  -9.95569  -9.90850  -0.98215
   1 1   O  1S          0.43542  -0.00000  -0.00001   0.00000  -0.08278
   2        2S          0.63844  -0.00010  -0.00008  -0.00002  -0.19236
   3        3S          0.04023   0.00097   0.00076   0.00017   0.27611
   4        4S         -0.03447  -0.00017   0.00079  -0.00036   0.37375
   5        5S          0.01103  -0.00126  -0.00141  -0.00186   0.12013
   6        6PX         0.00231   0.00052   0.00024   0.00014   0.09725
   7        6PY         0.00137   0.00005   0.00043  -0.00003   0.05927
   8        6PZ         0.00004  -0.00004   0.00003  -0.00010   0.00245
   9        7PX        -0.00732  -0.00170  -0.00014  -0.00094   0.08803
  10        7PY        -0.00404   0.00025  -0.00163   0.00044   0.05347
  11        7PZ        -0.00002   0.00030  -0.00016   0.00059   0.00197
  12        8PX         0.00112  -0.00009   0.00133  -0.00083   0.01141
  13        8PY         0.00017   0.00232  -0.00053   0.00090   0.00577
  14        8PZ        -0.00042   0.00041   0.00022   0.00060  -0.00013
  15        9D 0       -0.00031  -0.00010  -0.00007   0.00001  -0.00389
  16        9D+1       -0.00000  -0.00003   0.00000  -0.00008  -0.00001
  17        9D-1        0.00006  -0.00001   0.00004   0.00001   0.00052
  18        9D+2        0.00010   0.00023  -0.00014   0.00006   0.00166
  19        9D-2        0.00018  -0.00001   0.00017  -0.00003   0.00328
  20       10D 0        0.00169   0.00081   0.00068  -0.00004  -0.01473
  21       10D+1        0.00005   0.00033  -0.00008   0.00050  -0.00033
  22       10D-1       -0.00027   0.00001  -0.00033  -0.00000   0.00208
  23       10D+2       -0.00072  -0.00171   0.00127  -0.00041   0.00631
  24       10D-2       -0.00115   0.00021  -0.00128   0.00021   0.01202
  25       11F 0        0.00002  -0.00008   0.00012  -0.00004  -0.00018
  26       11F+1        0.00030   0.00051   0.00020  -0.00004  -0.00264
  27       11F-1        0.00017  -0.00001   0.00043  -0.00001  -0.00159
  28       11F+2        0.00007   0.00013   0.00011   0.00006  -0.00048
  29       11F-2       -0.00005  -0.00002  -0.00012  -0.00001   0.00041
  30       11F+3       -0.00002  -0.00054   0.00057  -0.00002  -0.00006
  31       11F-3       -0.00002   0.00004   0.00013   0.00001   0.00081
  32 2   C  1S          0.00003   0.46724  -0.00654  -0.00054  -0.04244
  33        2S         -0.00012   0.60686  -0.00843  -0.00061  -0.08747
  34        3S         -0.00186   0.04217   0.00078  -0.00055   0.14064
  35        4S          0.00336  -0.02523  -0.00038   0.00685   0.10248
  36        5S         -0.00937   0.03691  -0.00575  -0.00469   0.00153
  37        6PX         0.00022  -0.00128  -0.00065   0.00053  -0.09350
  38        6PY        -0.00031   0.00058   0.00034  -0.00030   0.02627
  39        6PZ        -0.00009  -0.00038   0.00029  -0.00033   0.00769
  40        7PX        -0.00582  -0.00067   0.00532  -0.00523  -0.03570
  41        7PY        -0.00043  -0.00120  -0.00329   0.00452   0.01065
  42        7PZ         0.00089   0.00326  -0.00342   0.00256  -0.00140
  43        8PX         0.00208  -0.00219   0.00159  -0.00537   0.00299
  44        8PY        -0.00015   0.00351  -0.00256   0.00444  -0.00321
  45        8PZ         0.00306  -0.00430  -0.00454   0.00348   0.00158
  46        9D 0       -0.00023   0.00001   0.00002  -0.00014  -0.00608
  47        9D+1       -0.00009  -0.00029  -0.00002   0.00002  -0.00173
  48        9D-1       -0.00005   0.00015  -0.00002   0.00002   0.00072
  49        9D+2        0.00075   0.00050   0.00021  -0.00003   0.00808
  50        9D-2        0.00010  -0.00096   0.00018   0.00006  -0.00542
  51       10D 0       -0.00264   0.00028   0.00408  -0.00333  -0.00171
  52       10D+1        0.00019   0.00244   0.00026   0.00247  -0.00361
  53       10D-1        0.00028  -0.00234  -0.00073  -0.00153   0.00209
  54       10D+2        0.00272   0.00092  -0.00005  -0.00011   0.00409
  55       10D-2        0.00021   0.00033   0.00217  -0.00143  -0.00616
  56       11F 0       -0.00009  -0.00003   0.00025   0.00059  -0.00111
  57       11F+1        0.00049   0.00110  -0.00046  -0.00074   0.00443
  58       11F-1       -0.00000  -0.00064   0.00058   0.00044  -0.00182
  59       11F+2        0.00013   0.00008   0.00018   0.00024   0.00018
  60       11F-2       -0.00001  -0.00053   0.00036  -0.00057  -0.00075
  61       11F+3       -0.00083  -0.00051  -0.00079  -0.00001  -0.00108
  62       11F-3        0.00004  -0.00016   0.00011   0.00001   0.00118
  63 3   C  1S          0.00002   0.00650   0.46721   0.00001  -0.04171
  64        2S         -0.00009   0.00849   0.60699  -0.00002  -0.08599
  65        3S         -0.00241   0.00159   0.03938   0.00101   0.14038
  66        4S          0.00617   0.00074  -0.01437  -0.00590   0.08974
  67        5S         -0.00175  -0.01680   0.02168  -0.00766   0.01429
  68        6PX        -0.00037  -0.00004  -0.00009   0.00010  -0.01877
  69        6PY         0.00032  -0.00061  -0.00172  -0.00030  -0.09558
  70        6PZ         0.00008  -0.00010  -0.00028  -0.00012  -0.01247
  71        7PX        -0.00100   0.00095   0.00006  -0.00227  -0.00776
  72        7PY        -0.00590   0.00258  -0.00050   0.00554  -0.03758
  73        7PZ        -0.00078   0.00074   0.00013   0.00206  -0.00528
  74        8PX         0.00094  -0.00246   0.00118  -0.00117   0.00052
  75        8PY         0.00015   0.00421  -0.00161   0.00251  -0.00434
  76        8PZ        -0.00061   0.00208   0.00050   0.00012  -0.00159
  77        9D 0       -0.00029   0.00007   0.00001  -0.00001  -0.00615
  78        9D+1        0.00010   0.00006   0.00000  -0.00002   0.00034
  79        9D-1        0.00009  -0.00002   0.00020  -0.00001   0.00260
  80        9D+2       -0.00039   0.00002  -0.00114   0.00002  -0.00908
  81        9D-2        0.00067   0.00026  -0.00018  -0.00000   0.00340
  82       10D 0       -0.00257   0.00185   0.00105   0.00153  -0.00249
  83       10D+1       -0.00015   0.00046   0.00037   0.00089  -0.00004
  84       10D-1        0.00075  -0.00142  -0.00037  -0.00124   0.00214
  85       10D+2       -0.00116   0.00078  -0.00131   0.00075  -0.00620
  86       10D-2        0.00123   0.00015  -0.00022   0.00100   0.00085
  87       11F 0        0.00013  -0.00030   0.00064  -0.00000   0.00147
  88       11F+1        0.00024   0.00031  -0.00017  -0.00004   0.00043
  89       11F-1        0.00042  -0.00056   0.00189   0.00011   0.00432
  90       11F+2        0.00007  -0.00013   0.00036   0.00001   0.00121
  91       11F-2       -0.00011  -0.00032   0.00011  -0.00014   0.00006
  92       11F+3        0.00063   0.00067   0.00035   0.00008   0.00101
  93       11F-3        0.00007   0.00021  -0.00017  -0.00004   0.00132
  94 4   C  1S          0.00000   0.00050  -0.00001   0.46722  -0.00616
  95        2S         -0.00002   0.00075  -0.00004   0.60699  -0.01248
  96        3S         -0.00003   0.00018   0.00090   0.04054   0.01954
  97        4S          0.00205   0.00342  -0.00486  -0.01973   0.00979
  98        5S          0.00424  -0.01089  -0.00363   0.03588  -0.00194
  99        6PX        -0.00003  -0.00008  -0.00012  -0.00027  -0.00852
 100        6PY         0.00002   0.00012   0.00011   0.00020   0.00353
 101        6PZ         0.00000   0.00019   0.00016   0.00051   0.00878
 102        7PX        -0.00120  -0.00040   0.00154   0.00050  -0.00331
 103        7PY        -0.00019  -0.00061  -0.00172  -0.00059   0.00115
 104        7PZ         0.00130   0.00084  -0.00292  -0.00037   0.00025
 105        8PX        -0.00116   0.00365   0.00124  -0.00017  -0.00144
 106        8PY         0.00099  -0.00198  -0.00076  -0.00013   0.00155
 107        8PZ         0.00108  -0.00356  -0.00140   0.00255  -0.00096
 108        9D 0       -0.00000  -0.00015   0.00000   0.00003  -0.00001
 109        9D+1       -0.00001   0.00013  -0.00003  -0.00008  -0.00087
 110        9D-1        0.00002  -0.00005   0.00002   0.00005   0.00020
 111        9D+2        0.00014   0.00001   0.00003   0.00006   0.00038
 112        9D-2        0.00002   0.00002   0.00001  -0.00008  -0.00040
 113       10D 0        0.00019  -0.00051  -0.00001  -0.00030  -0.00254
 114       10D+1       -0.00043   0.00105   0.00142   0.00046  -0.00086
 115       10D-1        0.00048  -0.00093  -0.00108  -0.00028   0.00039
 116       10D+2       -0.00132  -0.00065  -0.00063  -0.00029   0.00130
 117       10D-2       -0.00044   0.00048   0.00032   0.00055  -0.00019
 118       11F 0        0.00004  -0.00041   0.00012   0.00038  -0.00053
 119       11F+1        0.00006   0.00090   0.00013  -0.00106   0.00008
 120       11F-1        0.00013  -0.00047   0.00004   0.00082  -0.00022
 121       11F+2       -0.00006  -0.00023   0.00002   0.00019   0.00061
 122       11F-2       -0.00007   0.00059   0.00019   0.00043  -0.00015
 123       11F+3        0.00002   0.00008  -0.00005   0.00062  -0.00013
 124       11F-3       -0.00001   0.00007  -0.00008   0.00117   0.00052
 125 5   H  1S          0.00010  -0.00100  -0.00004  -0.00003   0.01228
 126        2S          0.00097  -0.00362  -0.00106  -0.00099   0.00942
 127        3S         -0.00039  -0.00242   0.00207   0.00103  -0.00175
 128        4PX        -0.00018   0.00117   0.00031  -0.00027  -0.00248
 129        4PY         0.00004  -0.00107  -0.00034   0.00017   0.00079
 130        4PZ         0.00003   0.00212  -0.00021   0.00042  -0.00051
 131 6   H  1S          0.00011   0.00005  -0.00083  -0.00017   0.01113
 132        2S          0.00124  -0.00097  -0.00294  -0.00087   0.00815
 133        3S          0.00067   0.00039  -0.00356   0.00057   0.00101
 134        4PX         0.00005  -0.00017  -0.00014  -0.00008  -0.00048
 135        4PY        -0.00016   0.00048   0.00122   0.00027  -0.00218
 136        4PZ        -0.00008   0.00001   0.00240   0.00021  -0.00076
 137 7   H  1S          0.00010  -0.00002  -0.00084  -0.00014   0.01135
 138        2S          0.00139  -0.00156  -0.00320  -0.00094   0.00882
 139        3S          0.00023   0.00188  -0.00297   0.00019  -0.00004
 140        4PX         0.00004  -0.00014  -0.00034   0.00000  -0.00043
 141        4PY        -0.00023   0.00040   0.00181   0.00018  -0.00232
 142        4PZ         0.00003  -0.00006  -0.00199  -0.00018   0.00033
 143 8   H  1S          0.00017   0.00003   0.00002  -0.00059   0.00159
 144        2S          0.00100  -0.00002   0.00092  -0.00265   0.00076
 145        3S         -0.00048  -0.00165  -0.00059  -0.00607   0.00114
 146        4PX        -0.00015  -0.00001  -0.00019   0.00237  -0.00025
 147        4PY        -0.00016  -0.00018  -0.00001   0.00059  -0.00000
 148        4PZ        -0.00002  -0.00034  -0.00003  -0.00011   0.00019
 149 9   H  1S         -0.00013  -0.00011  -0.00008  -0.00061   0.00232
 150        2S         -0.00112  -0.00085  -0.00020  -0.00293   0.00243
 151        3S          0.00091  -0.00066  -0.00028  -0.00594   0.00172
 152        4PX        -0.00013   0.00014  -0.00006  -0.00005  -0.00027
 153        4PY        -0.00020  -0.00010  -0.00006  -0.00246   0.00044
 154        4PZ         0.00002  -0.00039  -0.00005  -0.00040   0.00055
 155 10  H  1S          0.00002  -0.00002  -0.00007  -0.00055   0.00363
 156        2S          0.00026  -0.00063  -0.00052  -0.00249   0.00433
 157        3S         -0.00036   0.00088   0.00016  -0.00537  -0.00058
 158        4PX        -0.00012   0.00009  -0.00015  -0.00118   0.00010
 159        4PY        -0.00015  -0.00012   0.00005   0.00108  -0.00024
 160        4PZ         0.00008  -0.00024  -0.00004  -0.00178   0.00099
                           6         7         8         9        10
                           O         O         O         O         O
     Eigenvalues --    -0.66834  -0.58675  -0.53067  -0.45075  -0.41706
   1 1   O  1S          0.02798   0.04707   0.02013  -0.01807  -0.02073
   2        2S          0.06560   0.11059   0.04738  -0.04264  -0.04890
   3        3S         -0.09780  -0.16699  -0.07289   0.06779   0.07828
   4        4S         -0.14170  -0.24031  -0.09966   0.08309   0.09376
   5        5S         -0.07069  -0.14973  -0.07186   0.06880   0.08040
   6        6PX         0.02365   0.02322   0.11841  -0.11694  -0.14312
   7        6PY        -0.02710   0.09340  -0.08346  -0.04221  -0.13327
   8        6PZ        -0.01753   0.01961   0.02162   0.13839  -0.09942
   9        7PX         0.00949   0.00619   0.08705  -0.09248  -0.11402
  10        7PY        -0.02451   0.06199  -0.06547  -0.03344  -0.10891
  11        7PZ        -0.01423   0.01525   0.01831   0.11186  -0.08104
  12        8PX         0.00669   0.00739   0.03528  -0.04673  -0.06490
  13        8PY        -0.00710   0.02634  -0.02274  -0.01703  -0.05288
  14        8PZ        -0.00501   0.00531   0.00735   0.04979  -0.03554
  15        9D 0        0.00019  -0.00077  -0.00080   0.00168   0.00221
  16        9D+1       -0.00070   0.00072   0.00088   0.00347  -0.00242
  17        9D-1       -0.00036   0.00029   0.00008   0.00235  -0.00164
  18        9D+2        0.00147  -0.00131   0.00508  -0.00227  -0.00136
  19        9D-2       -0.00047   0.00323  -0.00060  -0.00278  -0.00510
  20       10D 0        0.00271   0.00020  -0.00211   0.00580   0.00788
  21       10D+1       -0.00265   0.00251   0.00383   0.01234  -0.00797
  22       10D-1       -0.00109   0.00014   0.00029   0.00815  -0.00621
  23       10D+2        0.00284  -0.00377   0.01332  -0.00723  -0.00546
  24       10D-2       -0.00292   0.00665  -0.00150  -0.00967  -0.01827
  25       11F 0        0.00051  -0.00047  -0.00050  -0.00267   0.00192
  26       11F+1        0.00025   0.00000  -0.00130   0.00139   0.00195
  27       11F-1        0.00045  -0.00067   0.00085   0.00112   0.00130
  28       11F+2       -0.00016   0.00024   0.00061   0.00066  -0.00005
  29       11F-2       -0.00015   0.00002   0.00033   0.00127  -0.00119
  30       11F+3        0.00044  -0.00087   0.00145  -0.00007   0.00059
  31       11F-3        0.00020   0.00109   0.00100  -0.00182  -0.00269
  32 2   C  1S         -0.05222  -0.01606  -0.06538   0.00944  -0.01287
  33        2S         -0.10914  -0.03358  -0.13796   0.02045  -0.02723
  34        3S          0.17437   0.05526   0.22466  -0.03711   0.04041
  35        4S          0.18676   0.03891   0.30002  -0.04948   0.05951
  36        5S          0.00394   0.02375   0.06372   0.03277   0.08664
  37        6PX         0.06930   0.02158   0.00626   0.10614   0.12229
  38        6PY        -0.02103   0.10828  -0.03178  -0.10586  -0.13857
  39        6PZ        -0.06670   0.04171   0.09847   0.15594  -0.09289
  40        7PX         0.02449   0.02988  -0.01331   0.06030   0.07510
  41        7PY        -0.00119   0.05247  -0.00351  -0.06757  -0.10016
  42        7PZ        -0.03273   0.01703   0.04927   0.10366  -0.07212
  43        8PX         0.01500   0.00241   0.01285   0.00467   0.00656
  44        8PY        -0.00857   0.02101  -0.00986  -0.01282  -0.02584
  45        8PZ         0.00197   0.00372   0.01480   0.03437  -0.02943
  46        9D 0        0.00673  -0.00062   0.00137   0.00431   0.00701
  47        9D+1       -0.00224   0.00002   0.00111  -0.00209   0.00454
  48        9D-1        0.00128   0.00039  -0.00176   0.00025  -0.00287
  49        9D+2       -0.00234  -0.00816   0.00079  -0.00054  -0.00108
  50        9D-2       -0.00253  -0.00708  -0.00255   0.00400   0.00750
  51       10D 0       -0.00192   0.00628  -0.00536  -0.00164   0.00268
  52       10D+1       -0.00302  -0.00116  -0.00989  -0.01209   0.00667
  53       10D-1        0.00365   0.00215   0.00695   0.00746  -0.00410
  54       10D+2       -0.00044  -0.00754   0.00182   0.00209   0.00199
  55       10D-2       -0.00709  -0.00437  -0.00907   0.00743   0.00926
  56       11F 0       -0.00098  -0.00037  -0.00190  -0.00041   0.00168
  57       11F+1        0.00306   0.00038   0.00461  -0.00265   0.00091
  58       11F-1       -0.00199  -0.00055  -0.00273   0.00187  -0.00073
  59       11F+2       -0.00070  -0.00020  -0.00016   0.00083  -0.00094
  60       11F-2        0.00017  -0.00075  -0.00132  -0.00143   0.00300
  61       11F+3        0.00047   0.00275  -0.00021  -0.00123  -0.00171
  62       11F-3       -0.00117   0.00054  -0.00107  -0.00198  -0.00414
  63 3   C  1S         -0.00178  -0.08244   0.02736  -0.00502  -0.00196
  64        2S         -0.00349  -0.17295   0.05758  -0.01038  -0.00366
  65        3S          0.00387   0.27950  -0.09125   0.01304  -0.00315
  66        4S         -0.00269   0.33114  -0.14051   0.03016   0.02764
  67        5S          0.01904   0.04989  -0.03295   0.01508   0.02731
  68        6PX         0.04654   0.04161   0.09785  -0.05136  -0.03778
  69        6PY         0.00975   0.04359  -0.07866   0.08317   0.21770
  70        6PZ        -0.01360   0.01078   0.02904   0.20675  -0.10853
  71        7PX         0.02620   0.03398   0.05770  -0.03771  -0.02454
  72        7PY         0.01083  -0.00452  -0.01932   0.04315   0.11926
  73        7PZ        -0.00857   0.00152   0.02313   0.13061  -0.07151
  74        8PX         0.00855   0.00780   0.01939  -0.01756  -0.01827
  75        8PY        -0.00398   0.01614  -0.01468   0.01651   0.04710
  76        8PZ        -0.00496   0.00475   0.00614   0.05513  -0.03184
  77        9D 0        0.00131   0.00467  -0.00416   0.00455   0.00876
  78        9D+1       -0.00108  -0.00035  -0.00099   0.00013   0.00190
  79        9D-1        0.00070  -0.00078   0.00003  -0.00328  -0.00389
  80        9D+2        0.00122  -0.00275  -0.00151   0.00414   0.00611
  81        9D-2       -0.00526  -0.00733  -0.00796   0.00462   0.00103
  82       10D 0        0.00333  -0.00859   0.00520  -0.00559  -0.00282
  83       10D+1       -0.00223  -0.00170   0.00170   0.00220   0.00175
  84       10D-1        0.00251   0.00360  -0.00684  -0.01631   0.00841
  85       10D+2        0.00256  -0.00958   0.00308   0.00034   0.00208
  86       10D-2       -0.00392  -0.01066  -0.00613   0.00497   0.00262
  87       11F 0        0.00017   0.00194  -0.00146  -0.00206   0.00034
  88       11F+1        0.00011  -0.00057  -0.00042   0.00001   0.00009
  89       11F-1       -0.00087   0.00562  -0.00145   0.00113  -0.00179
  90       11F+2        0.00010   0.00088  -0.00076  -0.00290   0.00065
  91       11F-2        0.00067   0.00087  -0.00046  -0.00097  -0.00038
  92       11F+3       -0.00123  -0.00128  -0.00277   0.00154   0.00123
  93       11F-3       -0.00038  -0.00134   0.00164  -0.00178  -0.00298
  94 4   C  1S         -0.08359   0.02128   0.03903  -0.00854   0.01212
  95        2S         -0.17449   0.04466   0.08207  -0.01799   0.02537
  96        3S          0.27714  -0.07117  -0.13184   0.02911  -0.04164
  97        4S          0.28781  -0.08687  -0.16016   0.03312  -0.05289
  98        5S          0.06646  -0.01955  -0.06388   0.02874  -0.06519
  99        6PX        -0.01016   0.00161  -0.02659   0.09340  -0.06675
 100        6PY         0.00899   0.02238   0.00788  -0.07655  -0.00277
 101        6PZ         0.03454   0.01228   0.09466  -0.01353   0.14971
 102        7PX        -0.01208   0.00485  -0.01223   0.05947  -0.04171
 103        7PY         0.00977   0.01325   0.00263  -0.04948  -0.00284
 104        7PZ         0.03193   0.00031   0.04657  -0.00932   0.09581
 105        8PX        -0.00100   0.00314  -0.00547   0.02426  -0.01993
 106        8PY         0.00344   0.00389  -0.00034  -0.02443  -0.00686
 107        8PZ         0.00506   0.00251   0.01523   0.00197   0.04018
 108        9D 0        0.00255   0.00050   0.00430  -0.00171   0.00608
 109        9D+1       -0.00186   0.00026  -0.00337   0.00238  -0.00553
 110        9D-1        0.00129   0.00134   0.00171  -0.00132   0.00252
 111        9D+2        0.00033  -0.00032   0.00021  -0.00104  -0.00023
 112        9D-2       -0.00051  -0.00064  -0.00010   0.00409  -0.00059
 113       10D 0        0.00586  -0.00239   0.00020   0.00749   0.00341
 114       10D+1       -0.00548   0.00340   0.00243   0.00538   0.00034
 115       10D-1        0.00427   0.00186  -0.00217  -0.00611  -0.00252
 116       10D+2       -0.00015  -0.00383   0.00044  -0.00082   0.00081
 117       10D-2       -0.00241  -0.00133   0.00115   0.00108   0.00005
 118       11F 0        0.00192  -0.00051  -0.00035   0.00234   0.00017
 119       11F+1       -0.00442   0.00173   0.00217  -0.00056  -0.00007
 120       11F-1        0.00318  -0.00045  -0.00171   0.00015  -0.00051
 121       11F+2        0.00091  -0.00103  -0.00034  -0.00050   0.00007
 122       11F-2       -0.00004  -0.00045   0.00047   0.00170   0.00033
 123       11F+3        0.00166   0.00007  -0.00093   0.00008  -0.00026
 124       11F-3        0.00327  -0.00081  -0.00167  -0.00053  -0.00064
 125 5   H  1S          0.04039   0.01576   0.10318   0.08268   0.03708
 126        2S          0.04486   0.01725   0.12884   0.11569   0.04746
 127        3S          0.00213   0.00482   0.02441   0.03059   0.02200
 128        4PX        -0.00110  -0.00035  -0.00812  -0.00535   0.00162
 129        4PY         0.00196   0.00397   0.00648   0.00454  -0.00243
 130        4PZ        -0.00661  -0.00040  -0.01073  -0.00919  -0.00747
 131 6   H  1S         -0.00085   0.08822  -0.03246   0.10346   0.00275
 132        2S         -0.00191   0.10297  -0.03890   0.13957   0.00263
 133        3S          0.00096   0.01857  -0.00949   0.03339   0.00355
 134        4PX         0.00123   0.00192   0.00277  -0.00044  -0.00124
 135        4PY         0.00039  -0.00549  -0.00011  -0.00737   0.00604
 136        4PZ        -0.00002  -0.01180   0.00528  -0.01145  -0.00338
 137 7   H  1S          0.00587   0.08436  -0.06081  -0.03495   0.10931
 138        2S          0.00782   0.09894  -0.07646  -0.05142   0.15052
 139        3S         -0.00103   0.02003  -0.01492  -0.00847   0.04538
 140        4PX         0.00163   0.00282   0.00124  -0.00290   0.00142
 141        4PY        -0.00100  -0.00768   0.00588   0.00801  -0.00752
 142        4PZ         0.00038   0.00962  -0.00658   0.00084   0.01148
 143 8   H  1S          0.06659  -0.01728  -0.05042   0.04261  -0.04898
 144        2S          0.06996  -0.01728  -0.05714   0.05658  -0.06329
 145        3S          0.00813  -0.00819  -0.01170   0.01607  -0.01388
 146        4PX        -0.00990   0.00191   0.00624  -0.00443   0.00537
 147        4PY        -0.00244   0.00133   0.00225  -0.00427   0.00220
 148        4PZ         0.00156   0.00053   0.00300   0.00061   0.00470
 149 9   H  1S          0.06432  -0.02871  -0.04765   0.04395  -0.02242
 150        2S          0.06626  -0.03277  -0.05285   0.05694  -0.02754
 151        3S          0.01050  -0.00506  -0.01186   0.01051  -0.00959
 152        4PX         0.00012  -0.00007  -0.00128   0.00323  -0.00281
 153        4PY         0.00949  -0.00407  -0.00647   0.00526  -0.00314
 154        4PZ         0.00261  -0.00055   0.00245   0.00131   0.00484
 155 10  H  1S          0.06362  -0.01900  -0.06268  -0.02395  -0.05101
 156        2S          0.06612  -0.01924  -0.07438  -0.04023  -0.06764
 157        3S          0.00929  -0.00345  -0.01519  -0.00448  -0.01122
 158        4PX         0.00424  -0.00137  -0.00521   0.00113  -0.00714
 159        4PY        -0.00382   0.00230   0.00429  -0.00076   0.00437
 160        4PZ         0.00789  -0.00118  -0.00517  -0.00647  -0.00160
                          11        12        13        14        15
                           O         O         O         O         O
     Eigenvalues --    -0.37830  -0.35583  -0.33163  -0.32223  -0.26075
   1 1   O  1S         -0.00872  -0.01274  -0.00261   0.00101  -0.01632
   2        2S         -0.02068  -0.03011  -0.00624   0.00244  -0.03862
   3        3S          0.03358   0.04829   0.01056  -0.00404   0.06210
   4        4S          0.04224   0.06069   0.01065  -0.00635   0.08463
   5        5S          0.03256   0.05811   0.01565  -0.00468   0.06143
   6        6PX        -0.13110  -0.04510   0.13479  -0.09601  -0.23283
   7        6PY         0.14844  -0.17468  -0.20477   0.10492  -0.10636
   8        6PZ         0.01051   0.02329  -0.02333   0.04559  -0.04174
   9        7PX        -0.10713  -0.03356   0.11000  -0.07918  -0.18198
  10        7PY         0.12476  -0.13935  -0.16619   0.08718  -0.08210
  11        7PZ         0.00972   0.01969  -0.01915   0.03794  -0.03325
  12        8PX        -0.05845  -0.02995   0.05737  -0.04149  -0.15750
  13        8PY         0.05696  -0.07828  -0.08967   0.04462  -0.07884
  14        8PZ         0.00338   0.01007  -0.01130   0.02143  -0.02479
  15        9D 0        0.00021   0.00177  -0.00050   0.00012   0.00227
  16        9D+1        0.00031   0.00025   0.00032   0.00157  -0.00021
  17        9D-1       -0.00030   0.00039  -0.00156  -0.00056  -0.00065
  18        9D+2       -0.00438   0.00204   0.00499  -0.00306  -0.00043
  19        9D-2        0.00206  -0.00292  -0.00205   0.00066   0.00035
  20       10D 0        0.00016   0.00646  -0.00218   0.00054   0.00866
  21       10D+1        0.00167   0.00141   0.00165   0.00690  -0.00056
  22       10D-1       -0.00191   0.00205  -0.00633  -0.00340  -0.00241
  23       10D+2       -0.01465   0.00583   0.01575  -0.01050  -0.00196
  24       10D-2        0.00791  -0.00929  -0.00601   0.00140   0.00063
  25       11F 0       -0.00029  -0.00035   0.00054  -0.00089   0.00043
  26       11F+1        0.00087   0.00076  -0.00152   0.00074   0.00160
  27       11F-1       -0.00141   0.00176   0.00125  -0.00089   0.00063
  28       11F+2        0.00037  -0.00000   0.00154   0.00143   0.00058
  29       11F-2       -0.00051   0.00028  -0.00057  -0.00054  -0.00047
  30       11F+3       -0.00197   0.00130   0.00212  -0.00120  -0.00049
  31       11F-3        0.00023  -0.00002   0.00050  -0.00077   0.00232
  32 2   C  1S         -0.00387  -0.00166   0.00994  -0.00108  -0.00226
  33        2S         -0.00829  -0.00363   0.02135  -0.00187  -0.00502
  34        3S          0.01018   0.00618  -0.02932  -0.00313   0.00439
  35        4S          0.02988   0.00050  -0.08310   0.02536   0.02905
  36        5S          0.03302   0.02169   0.00696  -0.02386   0.04117
  37        6PX         0.14547   0.00478  -0.12936   0.08174   0.07680
  38        6PY         0.06593   0.03405   0.00249  -0.02496   0.25800
  39        6PZ         0.00467  -0.01045   0.14720   0.20399   0.02531
  40        7PX         0.08996   0.00388  -0.07506   0.03408   0.04916
  41        7PY         0.06869   0.02065  -0.01893   0.00615   0.20139
  42        7PZ         0.00701  -0.00466   0.09946   0.13960   0.02507
  43        8PX         0.03485  -0.00768  -0.05836   0.04204   0.01715
  44        8PY         0.02669  -0.00352  -0.00207  -0.01674   0.10469
  45        8PZ        -0.00984   0.00168   0.04870   0.06605   0.01149
  46        9D 0        0.00133   0.00398  -0.01087   0.00508  -0.00359
  47        9D+1       -0.00231  -0.00162   0.00394   0.00955   0.00196
  48        9D-1       -0.00426  -0.00261  -0.00615  -0.00888   0.00433
  49        9D+2       -0.00130  -0.00041   0.00374  -0.00463  -0.01569
  50        9D-2       -0.00599   0.00851   0.00563  -0.00357  -0.00352
  51       10D 0       -0.01169   0.01415  -0.00908   0.00180  -0.00563
  52       10D+1       -0.00795   0.00317  -0.00124   0.00824   0.00729
  53       10D-1       -0.00495  -0.01196  -0.00989  -0.00842   0.01121
  54       10D+2        0.01013   0.00838   0.00802  -0.00812  -0.01718
  55       10D-2       -0.01127   0.01879   0.01852  -0.01021  -0.00088
  56       11F 0        0.00163  -0.00294   0.00306  -0.00099   0.00087
  57       11F+1        0.00166   0.00003  -0.00016  -0.00165  -0.00133
  58       11F-1        0.00078   0.00286   0.00134  -0.00066  -0.00093
  59       11F+2       -0.00185  -0.00141   0.00040   0.00260  -0.00045
  60       11F-2        0.00005  -0.00220   0.00046  -0.00146  -0.00018
  61       11F+3        0.00263  -0.00004  -0.00155   0.00119   0.00483
  62       11F-3        0.00088  -0.00263  -0.00238   0.00140  -0.00296
  63 3   C  1S          0.00720   0.00655  -0.00321   0.00415  -0.00514
  64        2S          0.01509   0.01415  -0.00669   0.00881  -0.01145
  65        3S         -0.02086  -0.03086   0.00509  -0.01169   0.02148
  66        4S         -0.04849  -0.00787   0.04141  -0.04323   0.01166
  67        5S         -0.01752   0.00614  -0.02244   0.02881   0.10592
  68        6PX        -0.04078   0.08421   0.09061  -0.05712   0.26811
  69        6PY        -0.08690   0.07169   0.10027  -0.02600  -0.06327
  70        6PZ        -0.08547   0.10094  -0.13763  -0.14397  -0.01593
  71        7PX        -0.03567   0.07105   0.08170  -0.05179   0.19882
  72        7PY        -0.03895   0.03311   0.04788  -0.00057  -0.04054
  73        7PZ        -0.05167   0.06399  -0.09071  -0.08406  -0.01429
  74        8PX        -0.02168   0.02550   0.03896  -0.02103   0.10709
  75        8PY        -0.02686   0.00769   0.04778  -0.03050  -0.05051
  76        8PZ        -0.01538   0.03297  -0.04075  -0.05952  -0.01690
  77        9D 0       -0.00595   0.00463   0.00146  -0.00463  -0.00298
  78        9D+1        0.00046  -0.00255   0.00239   0.00370  -0.00176
  79        9D-1       -0.00162   0.00191  -0.00837  -0.01036   0.00199
  80        9D+2        0.00419   0.00273  -0.00566   0.00218   0.00720
  81        9D-2        0.00439  -0.00532  -0.00838   0.00301  -0.01181
  82       10D 0        0.00302  -0.00107  -0.00513   0.00586   0.00119
  83       10D+1        0.00137  -0.00414   0.00145   0.00640   0.00007
  84       10D-1       -0.00126  -0.00069   0.00008  -0.00881  -0.00031
  85       10D+2        0.01408   0.00011  -0.01217   0.00834   0.01275
  86       10D-2        0.00847  -0.00709  -0.01388   0.00686   0.00074
  87       11F 0        0.00008  -0.00031  -0.00071  -0.00186   0.00008
  88       11F+1        0.00032   0.00014  -0.00087  -0.00001   0.00018
  89       11F-1       -0.00044  -0.00135   0.00085  -0.00007  -0.00092
  90       11F+2       -0.00028  -0.00124   0.00082  -0.00037  -0.00037
  91       11F-2       -0.00017   0.00108  -0.00028  -0.00159   0.00054
  92       11F+3        0.00174  -0.00148  -0.00295   0.00120  -0.00404
  93       11F-3       -0.00249  -0.00125   0.00179  -0.00158  -0.00400
  94 4   C  1S          0.00140  -0.00023   0.00751   0.00542   0.00408
  95        2S          0.00285  -0.00052   0.01646   0.01179   0.00876
  96        3S         -0.00516   0.00021  -0.02927  -0.02084  -0.01625
  97        4S         -0.00180   0.00350  -0.03878  -0.02439  -0.01431
  98        5S         -0.02582  -0.00179   0.00402  -0.01268  -0.03802
  99        6PX         0.19360  -0.05212   0.20839  -0.10437  -0.01112
 100        6PY         0.14097   0.26913  -0.03299   0.00398  -0.11069
 101        6PZ         0.10032  -0.08811  -0.11544  -0.19087  -0.02739
 102        7PX         0.12415  -0.03309   0.13813  -0.06689  -0.00054
 103        7PY         0.09427   0.17538  -0.02615   0.00013  -0.06733
 104        7PZ         0.06859  -0.05573  -0.08439  -0.12725  -0.01984
 105        8PX         0.06772  -0.03034   0.07651  -0.03971  -0.02060
 106        8PY         0.04111   0.10806  -0.00389   0.00720  -0.06192
 107        8PZ         0.03305  -0.03735  -0.03112  -0.07464  -0.01407
 108        9D 0        0.00035   0.00541  -0.00975   0.00310  -0.00383
 109        9D+1       -0.00127   0.00415   0.00270   0.00916   0.00168
 110        9D-1        0.00300  -0.00508  -0.00222  -0.00617   0.00599
 111        9D+2        0.00807   0.00783   0.00386  -0.00469  -0.00845
 112        9D-2        0.00345  -0.00333   0.00510  -0.00321  -0.00138
 113       10D 0        0.00295   0.00148  -0.00480   0.00689  -0.00228
 114       10D+1        0.00107  -0.00148  -0.00128   0.00561   0.00493
 115       10D-1        0.00183  -0.00057  -0.00416  -0.00222   0.01363
 116       10D+2       -0.00423  -0.00253   0.00077  -0.00381  -0.00513
 117       10D-2       -0.00244   0.00368  -0.00213   0.00191  -0.00341
 118       11F 0        0.00078   0.00032  -0.00122   0.00153  -0.00064
 119       11F+1        0.00062   0.00011   0.00093   0.00116   0.00088
 120       11F-1        0.00132   0.00032  -0.00098  -0.00063   0.00161
 121       11F+2       -0.00078   0.00007   0.00054  -0.00101  -0.00205
 122       11F-2       -0.00016  -0.00008   0.00026   0.00051  -0.00113
 123       11F+3        0.00022  -0.00000  -0.00043   0.00024   0.00078
 124       11F-3       -0.00012   0.00018  -0.00041  -0.00049  -0.00026
 125 5   H  1S          0.02907  -0.00819   0.01562   0.12633  -0.02600
 126        2S          0.04535  -0.02108   0.02611   0.18546  -0.04399
 127        3S          0.01744  -0.00484   0.01465   0.10671  -0.03548
 128        4PX         0.00303  -0.00011  -0.00539  -0.00612   0.00485
 129        4PY         0.00392   0.00116   0.00083   0.00689   0.00791
 130        4PZ        -0.00460   0.00302   0.00104  -0.00838   0.00401
 131 6   H  1S         -0.06939   0.05648  -0.04422  -0.09057  -0.02245
 132        2S         -0.10049   0.07995  -0.06538  -0.13908  -0.03617
 133        3S         -0.04371   0.03727  -0.04003  -0.06354  -0.03447
 134        4PX        -0.00203   0.00311   0.00320  -0.00221   0.01040
 135        4PY         0.00225  -0.00185   0.00610   0.00426  -0.00107
 136        4PZ         0.00780  -0.00550   0.00206   0.00854   0.00214
 137 7   H  1S         -0.00557  -0.02448   0.09825   0.05735  -0.03372
 138        2S         -0.00736  -0.03274   0.14662   0.08431  -0.05808
 139        3S          0.00087  -0.00887   0.07525   0.05370  -0.05708
 140        4PX        -0.00125   0.00330   0.00499  -0.00096   0.00910
 141        4PY        -0.00243   0.00385  -0.00556  -0.00619   0.00061
 142        4PZ        -0.00274  -0.00083   0.00751   0.00126  -0.00385
 143 8   H  1S          0.11577   0.01522   0.10543  -0.06440  -0.03540
 144        2S          0.16602   0.02265   0.15348  -0.09339  -0.05654
 145        3S          0.06691   0.01847   0.08141  -0.05309  -0.01464
 146        4PX        -0.01321  -0.00421  -0.00923   0.00520   0.00440
 147        4PY        -0.00003   0.00899  -0.00550   0.00263  -0.00212
 148        4PZ         0.00604  -0.00271  -0.00318  -0.00685  -0.00043
 149 9   H  1S         -0.08812  -0.13714   0.01365   0.01022   0.07613
 150        2S         -0.12439  -0.19751   0.01707   0.01555   0.11526
 151        3S         -0.04898  -0.07655   0.01883   0.01290   0.08815
 152        4PX         0.00673  -0.00267   0.00706  -0.00359   0.00077
 153        4PY        -0.01026  -0.01360   0.00100   0.00200   0.00591
 154        4PZ         0.00001  -0.00798  -0.00364  -0.00628  -0.00039
 155 10  H  1S         -0.05606   0.11689  -0.02484   0.11274  -0.02372
 156        2S         -0.07926   0.16514  -0.03803   0.16592  -0.03893
 157        3S         -0.02248   0.06135  -0.01175   0.09142  -0.02362
 158        4PX         0.00213   0.00746   0.00510   0.00443  -0.00194
 159        4PY         0.00925   0.00100   0.00115  -0.00691  -0.00238
 160        4PZ        -0.00441   0.01221  -0.00700   0.00658  -0.00303
                          16        17        18        19        20
                           O         V         V         V         V
     Eigenvalues --    -0.22177   0.02572   0.04870   0.05057   0.05082
   1 1   O  1S         -0.00096   0.00100   0.01961   0.02193  -0.00351
   2        2S         -0.00220   0.00254   0.04805   0.05395  -0.00875
   3        3S          0.00250  -0.00378  -0.09352  -0.10872   0.01971
   4        4S          0.01187  -0.01088  -0.03708  -0.01905  -0.01701
   5        5S         -0.03246  -0.07897  -0.85379  -1.03156   0.23406
   6        6PX         0.00423  -0.02860  -0.01383  -0.06519  -0.05043
   7        6PY        -0.06551  -0.03979  -0.15990  -0.10526   0.10543
   8        6PZ         0.44258  -0.04567  -0.03614   0.02642   0.01428
   9        7PX         0.00252  -0.04483  -0.04917  -0.07905  -0.03452
  10        7PY        -0.05412  -0.05350  -0.14618  -0.12566   0.07340
  11        7PZ         0.35374  -0.03704  -0.02441   0.00741   0.01345
  12        8PX        -0.00792   0.01088  -0.14885  -0.17085   0.06575
  13        8PY        -0.03473  -0.02602  -0.27613  -0.34812   0.12648
  14        8PZ         0.29138  -0.08619  -0.10797   0.13008  -0.03229
  15        9D 0        0.00033  -0.00086  -0.00194  -0.00142  -0.00003
  16        9D+1        0.00368   0.00087   0.00131  -0.00225   0.00070
  17        9D-1        0.00237  -0.00001   0.00158  -0.00045   0.00113
  18        9D+2        0.00049  -0.00032  -0.00062  -0.00248  -0.00126
  19        9D-2       -0.00038  -0.00109   0.00026   0.00173  -0.00106
  20       10D 0        0.00114  -0.00214   0.00977   0.00921  -0.00838
  21       10D+1        0.01543  -0.00007  -0.00090  -0.00025  -0.00207
  22       10D-1        0.00875  -0.00084   0.00016  -0.00461   0.00323
  23       10D+2        0.00135   0.00237  -0.00574   0.00547   0.00564
  24       10D-2       -0.00108  -0.00443  -0.01064  -0.01886  -0.00460
  25       11F 0       -0.00321  -0.00010  -0.00010   0.00078  -0.00051
  26       11F+1       -0.00008   0.00007   0.00067   0.00093  -0.00038
  27       11F-1        0.00090  -0.00001   0.00110   0.00082  -0.00044
  28       11F+2        0.00075   0.00036   0.00005   0.00031  -0.00065
  29       11F-2        0.00141  -0.00019   0.00018  -0.00106   0.00053
  30       11F+3        0.00016   0.00086   0.00057   0.00094  -0.00006
  31       11F-3        0.00017  -0.00079  -0.00036  -0.00041  -0.00154
  32 2   C  1S         -0.00125  -0.01774  -0.03226   0.00685  -0.00016
  33        2S         -0.00292  -0.03743  -0.06986   0.01416   0.00035
  34        3S          0.00661   0.07952   0.11229  -0.00736   0.01022
  35        4S          0.00146   0.02653   0.27017  -0.22712  -0.05475
  36        5S          0.06037  -0.26026   3.30812  -1.08047  -0.63850
  37        6PX         0.00316   0.02995   0.06577  -0.10477  -0.02311
  38        6PY         0.02600  -0.02502   0.09010   0.06133  -0.17453
  39        6PZ        -0.07847   0.09337   0.06950  -0.09094   0.00717
  40        7PX         0.00154   0.02799   0.01483   0.04775   0.12449
  41        7PY         0.01577  -0.03552   0.09324  -0.14222  -0.26694
  42        7PZ        -0.04937   0.04671  -0.06193  -0.05215  -0.08723
  43        8PX        -0.05419  -0.02621   0.20694  -0.51124   0.64610
  44        8PY        -0.00229  -0.01616   0.15832   0.02197  -1.21531
  45        8PZ        -0.03881   1.14694  -0.22979  -0.68660  -0.40834
  46        9D 0        0.00195   0.00091  -0.00146   0.00482  -0.00595
  47        9D+1       -0.01697  -0.00112  -0.00144   0.00369  -0.00027
  48        9D-1        0.00292   0.00131   0.00296  -0.00588   0.00452
  49        9D+2       -0.00257  -0.00178  -0.00239  -0.01062  -0.00759
  50        9D-2        0.00158   0.00127   0.00398  -0.00135   0.00074
  51       10D 0        0.00123  -0.01091  -0.00174   0.09360   0.05518
  52       10D+1       -0.02952  -0.02624  -0.07553   0.08420  -0.02138
  53       10D-1       -0.00134   0.02852   0.04905  -0.08846   0.01384
  54       10D+2       -0.00267   0.00459   0.03824   0.01938  -0.02015
  55       10D-2        0.00386   0.02954   0.00054   0.05196   0.02944
  56       11F 0       -0.00426  -0.00036  -0.00314   0.00257  -0.00216
  57       11F+1       -0.00070  -0.00162   0.00124   0.00101  -0.00306
  58       11F-1       -0.00036   0.00271   0.00323  -0.00242   0.00017
  59       11F+2        0.00575  -0.00134  -0.00152   0.00185  -0.00060
  60       11F-2        0.00152   0.00397   0.00333  -0.00320   0.00183
  61       11F+3        0.00071  -0.00078   0.00183  -0.00176  -0.00231
  62       11F-3       -0.00101  -0.00162   0.00064  -0.00163  -0.00139
  63 3   C  1S         -0.00126  -0.02349  -0.00926  -0.03303  -0.03362
  64        2S         -0.00271  -0.04914  -0.01912  -0.07044  -0.07230
  65        3S          0.00463   0.06454   0.01143   0.08360   0.13248
  66        4S          0.00956   0.28389   0.19673   0.49549   0.19546
  67        5S         -0.02258   0.75384  -0.57410   1.87831   3.39675
  68        6PX         0.01767  -0.02658  -0.16605  -0.07807   0.10991
  69        6PY         0.00416   0.07124  -0.06873   0.01283   0.10795
  70        6PZ        -0.07906   0.00423   0.08293  -0.10096   0.08272
  71        7PX         0.01643   0.01447  -0.16942  -0.02063   0.14950
  72        7PY        -0.00098  -0.02301  -0.09160  -0.31610  -0.04949
  73        7PZ        -0.05372   0.00060   0.02138  -0.07607   0.00683
  74        8PX         0.01136  -0.25528  -0.85721  -0.26938   0.74215
  75        8PY         0.00624   0.35683  -0.13706  -0.35574  -0.12843
  76        8PZ         0.04554  -0.26511   0.47814  -0.45025   0.32590
  77        9D 0       -0.00355  -0.00492   0.00160   0.00755  -0.00597
  78        9D+1       -0.00584   0.00194  -0.00200  -0.00543   0.00230
  79        9D-1       -0.01609  -0.00261  -0.00328   0.00586  -0.00245
  80        9D+2       -0.00210   0.00327   0.00635   0.00724   0.00297
  81        9D-2       -0.00104  -0.00570  -0.02188  -0.01176   0.01535
  82       10D 0       -0.00522  -0.04026  -0.01463  -0.10653  -0.08267
  83       10D+1       -0.02115  -0.00357  -0.00073  -0.01260  -0.01054
  84       10D-1       -0.01822   0.02093  -0.03042   0.05897  -0.00289
  85       10D+2       -0.00209  -0.01482   0.00484  -0.04008  -0.03081
  86       10D-2        0.00194  -0.00953  -0.01119  -0.03707  -0.02125
  87       11F 0       -0.00349  -0.00053  -0.00157   0.00120  -0.00274
  88       11F+1        0.00094   0.00107  -0.00230  -0.00049   0.00187
  89       11F-1        0.00104  -0.00080  -0.00044  -0.00129  -0.00285
  90       11F+2       -0.00235  -0.00043   0.00297  -0.00333   0.00263
  91       11F-2        0.00549  -0.00131   0.00185  -0.00063   0.00112
  92       11F+3        0.00041  -0.00156   0.00090  -0.00424  -0.00279
  93       11F-3        0.00037   0.00013  -0.00122   0.00214  -0.00035
  94 4   C  1S         -0.01037  -0.03622   0.02393   0.00327   0.02050
  95        2S         -0.02248  -0.07954   0.05236   0.00698   0.04520
  96        3S          0.04113   0.22039  -0.11776  -0.01476  -0.11139
  97        4S          0.04235  -0.22495  -0.02142   0.02192   0.01143
  98        5S          0.08718   4.49992  -3.06645  -0.48523  -2.46620
  99        6PX        -0.05375   0.06220   0.03453  -0.05633  -0.05817
 100        6PY         0.00684  -0.02678   0.01542   0.08222  -0.00955
 101        6PZ         0.08418  -0.09738   0.04310  -0.05305   0.03201
 102        7PX        -0.04674  -0.00180   0.04046  -0.00940  -0.00488
 103        7PY         0.00214   0.00870  -0.00692   0.00629  -0.02675
 104        7PZ         0.06336  -0.04402  -0.09989  -0.01758  -0.05414
 105        8PX         0.02818  -0.09524   0.30375  -0.04289  -0.14204
 106        8PY         0.06119  -0.02862  -0.12411   0.13103   0.06924
 107        8PZ         0.04058  -0.08235  -0.34490  -0.15403  -0.24348
 108        9D 0        0.00198   0.00432   0.00294  -0.00867   0.00424
 109        9D+1       -0.00222  -0.00006  -0.00048  -0.00671  -0.00170
 110        9D-1        0.00228  -0.00039   0.00391   0.00327  -0.00804
 111        9D+2       -0.00290   0.00133  -0.00127   0.00416   0.00581
 112        9D-2       -0.00105   0.00303   0.00012  -0.00141   0.00435
 113       10D 0        0.00104   0.04962  -0.03224  -0.01635  -0.03589
 114       10D+1        0.00094  -0.02786   0.06184  -0.01953   0.03956
 115       10D-1        0.00427   0.01200  -0.03204   0.01868  -0.04022
 116       10D+2       -0.00705  -0.00402  -0.02949  -0.02511   0.01762
 117       10D-2       -0.00307  -0.03453  -0.01246   0.03781   0.01851
 118       11F 0        0.00045  -0.00069  -0.00059   0.00103   0.00036
 119       11F+1       -0.00065   0.00556   0.00062   0.00252  -0.00281
 120       11F-1        0.00104  -0.00246   0.00509  -0.00147  -0.00267
 121       11F+2       -0.00060  -0.00074  -0.00045   0.00162  -0.00065
 122       11F-2       -0.00014  -0.00276   0.00697  -0.00438   0.00592
 123       11F+3        0.00083  -0.00613   0.00133   0.00077   0.00377
 124       11F-3       -0.00006  -0.01053   0.00399   0.00408   0.00438
[...]
     39  0.624109D-02  0.212365D-02  0.214285D-02  0.112835D-01
 Leave Link  716 at Sat Mar 16 13:28:56 2019, MaxMem=   104857600 cpu:               3.8 elap:               0.4
 (Enter /util/academic/gaussian/g16.A03/x86-64-SSE4_2/g16/l103.exe)

 GradGradGradGradGradGradGradGradGradGradGradGradGradGradGradGradGradGrad
 Berny optimization.
 Red2BG is reusing G-inverse.
 Internal  Forces:  Max     0.000000377 RMS     0.000000121
 Search for a local minimum.
 Step number   1 out of a maximum of    2
 All quantities printed in internal units (Hartrees-Bohrs-Radians)
 Second derivative matrix not updated -- analytic derivatives used.
 ITU=  0
     Eigenvalues ---    0.00176   0.02171   0.02660   0.04127   0.04290
     Eigenvalues ---    0.04562   0.08372   0.09206   0.10471   0.11828
     Eigenvalues ---    0.12074   0.13393   0.14707   0.20302   0.22375
     Eigenvalues ---    0.23228   0.28601   0.30796   0.31589   0.31900
     Eigenvalues ---    0.32337   0.32563   0.32939   0.33625
 Angle between quadratic step and forces=  64.21 degrees.
 Linear search not attempted -- first point.
 Iteration  1 RMS(Cart)=  0.00000180 RMS(Int)=  0.00000000
 Iteration  2 RMS(Cart)=  0.00000000 RMS(Int)=  0.00000000
 ITry= 1 IFail=0 DXMaxC= 5.08D-06 DCOld= 1.00D+10 DXMaxT= 3.00D-01 DXLimC= 3.00D+00 Rises=F
 Variable       Old X    -DE/DX   Delta X   Delta X   Delta X     New X
                                 (Linear)    (Quad)   (Total)
    R1        2.75113  -0.00000   0.00000  -0.00000  -0.00000   2.75113
    R2        2.74416   0.00000   0.00000   0.00000   0.00000   2.74416
    R3        2.78823   0.00000   0.00000   0.00000   0.00000   2.78823
    R4        2.85640   0.00000   0.00000   0.00000   0.00000   2.85640
    R5        2.07036  -0.00000   0.00000   0.00000   0.00000   2.07036
    R6        2.06573  -0.00000   0.00000  -0.00000  -0.00000   2.06573
    R7        2.06633  -0.00000   0.00000  -0.00000  -0.00000   2.06633
    R8        2.07816  -0.00000   0.00000  -0.00000  -0.00000   2.07816
    R9        2.07626  -0.00000   0.00000  -0.00000  -0.00000   2.07626
   R10        2.07309  -0.00000   0.00000  -0.00000  -0.00000   2.07309
    A1        2.03762  -0.00000   0.00000   0.00000   0.00000   2.03762
    A2        1.97106  -0.00000   0.00000   0.00000   0.00000   1.97106
    A3        2.14241   0.00000   0.00000  -0.00000  -0.00000   2.14241
    A4        2.04180  -0.00000   0.00000  -0.00000  -0.00000   2.04180
    A5        2.01390  -0.00000   0.00000  -0.00000  -0.00000   2.01390
    A6        2.01020   0.00000   0.00000  -0.00000  -0.00000   2.01020
    A7        2.00722   0.00000   0.00000  -0.00000  -0.00000   2.00722
    A8        2.09637  -0.00000   0.00000  -0.00000  -0.00000   2.09637
    A9        2.08235  -0.00000   0.00000  -0.00000  -0.00000   2.08235
   A10        2.01288   0.00000   0.00000   0.00000   0.00000   2.01288
   A11        1.92784   0.00000   0.00000   0.00000   0.00000   1.92784
   A12        1.93068   0.00000   0.00000   0.00000   0.00000   1.93068
   A13        1.93546   0.00000   0.00000   0.00000   0.00000   1.93546
   A14        1.88216  -0.00000   0.00000  -0.00000  -0.00000   1.88216
   A15        1.89591  -0.00000   0.00000  -0.00000  -0.00000   1.89591
   A16        1.89035  -0.00000   0.00000  -0.00000  -0.00000   1.89035
    D1       -2.66580   0.00000   0.00000   0.00000   0.00000  -2.66580
    D2        0.00850   0.00000   0.00000   0.00001   0.00001   0.00850
    D3        0.02396  -0.00000   0.00000  -0.00000  -0.00000   0.02396
    D4        2.69826   0.00000   0.00000   0.00000   0.00000   2.69826
    D5        2.87697   0.00000   0.00000  -0.00000  -0.00000   2.87697
    D6       -1.32365   0.00000   0.00000  -0.00000  -0.00000  -1.32365
    D7        0.77411   0.00000   0.00000  -0.00000  -0.00000   0.77411
    D8        1.66787  -0.00000   0.00000  -0.00001  -0.00001   1.66787
    D9       -2.53274  -0.00000   0.00000  -0.00001  -0.00001  -2.53275
   D10       -0.43498  -0.00000   0.00000  -0.00001  -0.00001  -0.43499
   D11       -1.02849   0.00000   0.00000  -0.00000  -0.00000  -1.02849
   D12        1.05408   0.00000   0.00000  -0.00000  -0.00000   1.05407
   D13       -3.13135  -0.00000   0.00000  -0.00000  -0.00000  -3.13135
         Item               Value     Threshold  Converged?
 Maximum Force            0.000000     0.000002     YES
 RMS     Force            0.000000     0.000001     YES
 Maximum Displacement     0.000005     0.000006     YES
 RMS     Displacement     0.000002     0.000004     YES
 Predicted change in Energy=-2.537063D-12
 Optimization completed.
    -- Stationary point found.
                           ----------------------------
                           !   Optimized Parameters   !
                           ! (Angstroms and Degrees)  !
 --------------------------                            --------------------------
 ! Name  Definition              Value          Derivative Info.                !
 --------------------------------------------------------------------------------
 ! R1    R(1,2)                  1.4558         -DE/DX =    0.0                 !
 ! R2    R(1,3)                  1.4521         -DE/DX =    0.0                 !
 ! R3    R(2,3)                  1.4755         -DE/DX =    0.0                 !
 ! R4    R(2,4)                  1.5115         -DE/DX =    0.0                 !
 ! R5    R(2,5)                  1.0956         -DE/DX =    0.0                 !
 ! R6    R(3,6)                  1.0931         -DE/DX =    0.0                 !
 ! R7    R(3,7)                  1.0935         -DE/DX =    0.0                 !
 ! R8    R(4,8)                  1.0997         -DE/DX =    0.0                 !
 ! R9    R(4,9)                  1.0987         -DE/DX =    0.0                 !
 ! R10   R(4,10)                 1.097          -DE/DX =    0.0                 !
 ! A1    A(1,2,4)              116.7468         -DE/DX =    0.0                 !
 ! A2    A(1,2,5)              112.9333         -DE/DX =    0.0                 !
 ! A3    A(3,2,4)              122.7513         -DE/DX =    0.0                 !
 ! A4    A(3,2,5)              116.9868         -DE/DX =    0.0                 !
 ! A5    A(4,2,5)              115.388          -DE/DX =    0.0                 !
 ! A6    A(1,3,6)              115.1761         -DE/DX =    0.0                 !
 ! A7    A(1,3,7)              115.0051         -DE/DX =    0.0                 !
 ! A8    A(2,3,6)              120.1132         -DE/DX =    0.0                 !
 ! A9    A(2,3,7)              119.3101         -DE/DX =    0.0                 !
 ! A10   A(6,3,7)              115.3295         -DE/DX =    0.0                 !
 ! A11   A(2,4,8)              110.4571         -DE/DX =    0.0                 !
 ! A12   A(2,4,9)              110.6198         -DE/DX =    0.0                 !
 ! A13   A(2,4,10)             110.8938         -DE/DX =    0.0                 !
 ! A14   A(8,4,9)              107.84           -DE/DX =    0.0                 !
 ! A15   A(8,4,10)             108.6275         -DE/DX =    0.0                 !
 ! A16   A(9,4,10)             108.3093         -DE/DX =    0.0                 !
 ! D1    D(4,2,3,6)           -152.7392         -DE/DX =    0.0                 !
 ! D2    D(4,2,3,7)              0.487          -DE/DX =    0.0                 !
 ! D3    D(5,2,3,6)              1.3728         -DE/DX =    0.0                 !
 ! D4    D(5,2,3,7)            154.5989         -DE/DX =    0.0                 !
 ! D5    D(1,2,4,8)            164.8382         -DE/DX =    0.0                 !
 ! D6    D(1,2,4,9)            -75.8394         -DE/DX =    0.0                 !
 ! D7    D(1,2,4,10)            44.3533         -DE/DX =    0.0                 !
 ! D8    D(3,2,4,8)             95.5621         -DE/DX =    0.0                 !
 ! D9    D(3,2,4,9)           -145.1155         -DE/DX =    0.0                 !
 ! D10   D(3,2,4,10)           -24.9228         -DE/DX =    0.0                 !
 ! D11   D(5,2,4,8)            -58.9282         -DE/DX =    0.0                 !
 ! D12   D(5,2,4,9)             60.3941         -DE/DX =    0.0                 !
 ! D13   D(5,2,4,10)          -179.4131         -DE/DX =    0.0                 !
 --------------------------------------------------------------------------------
 GradGradGradGradGradGradGradGradGradGradGradGradGradGradGradGradGradGrad

 Leave Link  103 at Sat Mar 16 13:28:56 2019, MaxMem=   104857600 cpu:               0.1 elap:               0.0
 (Enter /util/academic/gaussian/g16.A03/x86-64-SSE4_2/g16/l9999.exe)

 ----------------------------------------------------------------------

 Electric dipole moment (input orientation):
 (Debye = 10**-18 statcoulomb cm , SI units = C m)
                  (au)            (Debye)         (10**-30 SI)
   Tot        0.765514D+00      0.194574D+01      0.649030D+01
   x          0.690404D+00      0.175483D+01      0.585349D+01
   y          0.325712D+00      0.827877D+00      0.276150D+01
   z         -0.571492D-01     -0.145259D+00     -0.484531D+00

 Dipole polarizability, Alpha (input orientation).
 (esu units = cm**3 , SI units = C**2 m**2 J**-1)
 Alpha(0;0):
               (au)            (10**-24 esu)      (10**-40 SI)
   iso        0.407366D+02      0.603655D+01      0.671656D+01
   aniso      0.113626D+02      0.168376D+01      0.187344D+01
   xx         0.396781D+02      0.587969D+01      0.654204D+01
   yx        -0.484554D+01     -0.718035D+00     -0.798922D+00
   yy         0.425025D+02      0.629823D+01      0.700772D+01
   zx        -0.289329D+01     -0.428742D+00     -0.477040D+00
   zy         0.296918D+01      0.439988D+00      0.489552D+00
   zz         0.400292D+02      0.593172D+01      0.659993D+01

 ----------------------------------------------------------------------

 Dipole orientation:
     8         -0.40952396          0.24983439         -1.67220140
     6          0.04589058         -0.78816701          0.83456575
     6         -1.47497328          1.52623278          0.51092202
     6          2.74347171         -0.74596023          1.77279693
     1         -0.98585628         -2.55000037          1.17784488
     1         -3.53365345          1.44278028          0.65959222
     1         -0.63071129          3.36081315          0.94823507
     1          2.80497185         -1.08352878          3.82243414
     1          3.86203978         -2.23168380          0.84960574
     1          3.63580941          1.08265840          1.37579847

 Electric dipole moment (dipole orientation):
 (Debye = 10**-18 statcoulomb cm , SI units = C m)
                  (au)            (Debye)         (10**-30 SI)
   Tot        0.765514D+00      0.194574D+01      0.649030D+01
   x          0.000000D+00      0.000000D+00      0.000000D+00
   y          0.000000D+00      0.000000D+00      0.000000D+00
   z          0.765514D+00      0.194574D+01      0.649030D+01

 Dipole polarizability, Alpha (dipole orientation).
 (esu units = cm**3 , SI units = C**2 m**2 J**-1)
 Alpha(0;0):
               (au)            (10**-24 esu)      (10**-40 SI)
   iso        0.407366D+02      0.603655D+01      0.671656D+01
   aniso      0.113626D+02      0.168376D+01      0.187344D+01
   xx         0.437880D+02      0.648871D+01      0.721967D+01
   yx        -0.467546D+01     -0.692832D+00     -0.770880D+00
   yy         0.417483D+02      0.618646D+01      0.688337D+01
   zx         0.242017D+01      0.358632D+00      0.399032D+00
   zy        -0.137753D+01     -0.204130D+00     -0.227125D+00
   zz         0.366736D+02      0.543447D+01      0.604666D+01

 ----------------------------------------------------------------------
 1\1\GINC-CPN-F15-40\Freq\RBLYP\def2TZVP\C3H6O1\HERBERTL\16-Mar-2019\0\
 \#P Geom=AllCheck Guess=TCheck SCRF=Check GenChk RBLYP/def2TZVP Freq\\
 opt\\0,1\O,-0.8791116762,-0.1802943728,0.2052574267\C,0.5741995043,-0.
 1576463767,0.1225882564\C,-0.1855169746,1.0883533767,0.3401161854\C,1.
 1854197198,-0.520407282,-1.211416223\H,1.0586038004,-0.6038652497,0.99
 81196047\H,-0.2280519727,1.5380750863,1.3355495548\H,-0.3253464926,1.7
 824340452,-0.4931540167\H,2.2416363349,-0.2161028236,-1.2457343069\H,1
 .1424712988,-1.6061307057,-1.3742699071\H,0.651796458,-0.0272636977,-2
 .0333285742\\Version=ES64L-G16RevA.03\HF=-193.1093175\RMSD=2.621e-09\R
 MSF=4.125e-07\ZeroPoint=0.0826185\Thermal=0.0871394\Dipole=0.6904038,0
 .325712,-0.0571492\DipoleDeriv=-0.7629478,-0.1614554,0.0705197,-0.1944
 711,-0.4724232,-0.0313889,0.0471151,-0.0319163,-0.3686491,0.4846016,-0
 .1205392,-0.0958209,-0.0160126,0.2157749,0.0155498,-0.1023682,0.032595
 ,0.4146306,0.1659674,0.1580568,0.0425599,0.0436013,0.3335899,0.0002118
 ,0.0319917,-0.0117901,0.3050436,0.0690944,0.0307519,0.0442695,0.061984
 7,0.095159,-0.0259464,0.0691708,-0.0067032,-0.0535669,-0.0423725,0.062
 4229,-0.0265533,0.0869948,0.0131308,0.049634,-0.0609715,0.0437964,-0.1
 244465,0.0682201,0.0159188,0.013113,0.0073573,-0.0427339,-0.0601834,0.
 003826,-0.1063776,-0.1144582,0.0756814,0.0102006,-0.0082238,0.00364,-0
 .073286,0.0410499,-0.0184319,0.1042824,-0.0713093,-0.1331829,-0.032827
 5,0.0340876,-0.0635688,0.0521017,-0.0060222,0.0079757,-0.0294654,0.035
 4756,0.0613514,-0.0170942,0.0083663,0.0182181,-0.1382523,-0.0562952,0.
 0464791,-0.0300458,0.0266341,0.0135869,0.0545652,-0.0823181,0.0522563,
 0.0169392,0.0733907,-0.0247868,0.0356246,-0.0493538\Polar=39.6781381,-
 4.8455433,42.5025493,-2.8932947,2.9691828,40.0292222\Quadrupole=-1.339
 1983,0.8496921,0.4895062,-1.1113262,0.1524169,0.2501925\PG=C01 [X(C3H6
 O1)]\NImag=0\\0.28234188,0.08786949,0.20289502,0.00245475,0.01242764,0
 .08837454,-0.17711724,-0.02968757,-0.00516989,0.41253495,0.01459074,-0
 .02600402,0.00314428,-0.18365399,0.40591347,0.00468652,0.00513138,-0.0
 5804620,0.02084375,-0.03309701,0.54367420,-0.06312578,-0.05387531,-0.0
 0632976,-0.06342077,0.09682886,0.01242568,0.22478928,-0.09967670,-0.14
 526638,-0.00574269,0.15115067,-0.18631942,-0.02311277,-0.09365790,0.56
 171913,-0.01426743,-0.00962059,-0.05782126,0.02048042,-0.01803909,-0.0
 6167788,0.00638125,-0.00012789,0.60754279,-0.02630283,0.01231897,0.030
 79629,-0.07739993,0.01085499,0.02943581,-0.00694536,-0.00087272,-0.000
 61749,0.51853392,-0.00411542,0.00529484,0.01155863,0.01664207,-0.08192
 574,-0.02474457,0.00994108,-0.00705733,-0.02942817,-0.00001016,0.52545
 021,0.00605376,-0.00071198,0.00460154,0.03429932,-0.02447043,-0.180573
 19,0.00344961,-0.00207659,-0.00292274,0.03796037,-0.02257032,0.4740626
 7,-0.02609602,0.01727343,-0.01925531,-0.07903648,0.04213946,-0.0811482
 5,-0.00661010,-0.00045348,0.00032660,0.00830773,-0.00455317,0.01021437
 ,0.10227485,-0.00422681,0.00557851,-0.01143010,0.04764574,-0.08791070,
 0.08524937,0.01174565,-0.01114966,0.02412689,-0.00245363,0.00397219,-0
 .00729845,-0.05514056,0.08813087,-0.00286777,-0.00177100,0.00714328,-0
 .08161890,0.08559524,-0.21807279,0.00330577,-0.00424143,0.00454834,-0.
 01084755,0.01157562,-0.01924300,0.08871251,-0.08852419,0.22761386,0.00
 229998,-0.01366552,-0.02227493,-0.00093682,0.00214965,0.02422326,-0.04
 046092,0.01243356,0.01517699,0.00119627,0.00443939,-0.00071690,0.00011
 853,-0.00128339,-0.00089496,0.03654827,0.00047939,-0.01906499,-0.01892
 948,-0.00382017,-0.00846326,-0.01186353,0.00705878,-0.07977037,-0.0841
 1745,-0.00032605,-0.00096527,0.00081088,0.00065519,0.00067491,-0.00012
 761,-0.00420388,0.09774137,-0.00222291,-0.00601867,0.00676828,-0.00215
 100,0.00179082,-0.00011602,0.01397331,-0.08608331,-0.27434845,-0.00001
 134,0.00000829,-0.00001809,-0.00033684,-0.00045146,0.00046938,-0.01193
 232,0.09936003,0.28302215,0.00406714,-0.01969864,0.01834262,-0.0050092
 4,0.01157174,-0.02234816,-0.04435527,0.02962601,-0.03088189,0.00056874
 ,-0.00173296,-0.00062452,0.00094332,0.00361084,0.00134043,0.00207921,-
 0.00004311,0.00250806,0.04135029,0.00202049,-0.02391179,0.01073965,-0.
 00272312,-0.01146225,0.01020610,0.02428179,-0.13529145,0.11866224,0.00
 051574,0.00090103,0.00117924,-0.00067591,-0.00045348,-0.00041353,-0.00
 035074,0.00964235,-0.00870854,-0.02287198,0.16054007,0.00237481,-0.000
 50645,0.00856090,0.00167605,-0.00447690,0.00350585,-0.03093135,0.12043
 304,-0.21230170,0.00053256,-0.00020631,0.00083571,0.00024681,-0.000818
 09,0.00012995,-0.00463091,0.01580892,-0.01621036,0.03095555,-0.1303471
 2,0.21524151,0.00077328,0.00138797,0.00365406,-0.01281088,-0.00323237,
 -0.00156493,-0.00093932,-0.00030064,-0.00016740,-0.26889842,-0.0662732
 0,0.00532332,0.00047073,-0.00002272,0.00058167,0.00002820,0.00021519,0
 .00003266,-0.00008547,0.00015438,0.00004163,0.29564308,0.00201293,-0.0
 0026155,-0.00265809,0.00800139,0.00124012,0.00092126,-0.00001262,0.000
 75866,0.00108879,-0.06656704,-0.06228352,0.00178967,-0.00024120,0.0001
 7025,0.00019786,-0.00012672,0.00009824,-0.00000742,0.00007782,-0.00004
 957,0.00000071,0.07303443,0.06479667,0.00390548,-0.00197008,-0.0052870
 6,0.02656666,0.00874910,0.00223912,0.00005156,0.00062046,0.00138042,0.
 00504835,0.00183589,-0.04574469,-0.00141315,0.00033969,0.00028757,-0.0
 0014685,-0.00016064,-0.00011132,-0.00004518,-0.00040332,-0.00004654,-0
 .00816078,-0.00063255,0.04651576,0.00182474,-0.00084402,-0.00143001,-0
 .00158340,0.01479186,0.00256195,-0.00011455,0.00159247,0.00333727,-0.0
 4377349,-0.01146743,-0.00276175,0.00006143,-0.00056045,-0.00028410,-0.
 00087591,0.00010706,0.00012149,0.00029438,-0.00027532,-0.00003995,-0.0
 0092749,-0.03019594,-0.00418777,0.04462987,0.00145882,0.00092136,0.000
 11351,0.00114525,-0.00773289,-0.00216321,-0.00160967,0.00107212,-0.001
 49548,-0.01084102,-0.28631548,-0.03209300,0.00010469,0.00050497,-0.000
 58725,0.00059552,0.00016000,0.00004043,-0.00036057,0.00023895,0.000059
 36,-0.00083878,-0.00825311,-0.00061497,0.01139387,0.31252593,-0.000511
 83,0.00261952,0.00232061,0.00079086,-0.03236875,-0.00550137,-0.0006421
 5,-0.00035717,-0.00501437,-0.00208925,-0.03192543,-0.04929809,-0.00044
 444,0.00061405,0.00076803,0.00134076,-0.00055085,0.00019443,0.00001764
 ,-0.00017289,0.00007643,-0.00041179,0.00097752,-0.00062882,-0.00017700
 ,0.03833651,0.05347520,0.00133485,-0.00107881,-0.00078782,0.00477980,-
 0.00604093,0.01088437,0.00118279,0.00015873,0.00023168,-0.10528664,0.0
 5712980,-0.09319757,-0.00043398,0.00068535,0.00257289,0.00000319,-0.00
 012240,0.00001889,0.00014690,-0.00007533,-0.00022521,-0.01325371,0.014
 01696,-0.02161833,0.00046443,-0.00104811,0.00212720,0.11106236,-0.0004
 1292,-0.00018100,0.00077666,-0.00470026,0.00266467,-0.00652702,-0.0007
 0065,0.00130470,-0.00104924,0.05738092,-0.09707093,0.08544099,0.000891
 56,0.00048214,-0.00170372,0.00001214,-0.00005299,0.00006982,-0.0001791
 5,-0.00015384,0.00005282,-0.00412427,0.00378382,-0.00776357,0.01545789
 ,-0.01312186,0.02282748,-0.06362526,0.10234529,0.00039462,0.00042022,0
 .00338537,-0.01571726,0.01317273,-0.02543171,-0.00168391,0.00068835,0.
 00061486,-0.09020774,0.08389637,-0.18170011,0.00309768,-0.00180771,-0.
 00364460,-0.00014415,-0.00023026,0.00035001,0.00073545,-0.00074183,0.0
 0020825,0.00067156,-0.00167775,0.00139556,0.00285986,-0.00159590,0.003
 60796,0.09999389,-0.09212423,0.20121442\\-0.00000005,-0.00000006,0.000
 00046,0.00000068,0.00000027,0.,0.00000005,-0.00000125,0.00000016,-0.00
 000039,0.00000015,-0.00000037,0.00000054,-0.00000016,-0.00000024,0.000
 00029,-0.00000012,0.00000063,-0.00000035,0.00000018,0.00000044,-0.0000
 0009,0.00000046,-0.00000057,-0.00000009,0.00000019,-0.00000043,-0.0000
 0059,0.00000033,-0.00000008\\\@


 CLIMB THE MOUNTAINS AND GET THEIR GOOD TIDINGS.
 NATURE'S PEACE WILL FLOW INTO YOU AS SUNSHINE FLOWS INTO TREES.
 THE WINDS WILL BLOW THEIR OWN FRESHNESS INTO YOU, 
 AND CARES WILL DROP OFF LIKE AUTUMN LEAVES.

                                         -- JOHN MUIR
 Job cpu time:       0 days  0 hours 14 minutes 19.7 seconds.
 Elapsed time:       0 days  0 hours  1 minutes 15.0 seconds.
 File lengths (MBytes):  RWF=     27 Int=      0 D2E=      0 Chk=      3 Scr=      1
 Normal termination of Gaussian 16 at Sat Mar 16 13:28:56 2019.
