 Entering Gaussian System, Link 0=g16
 Initial command:
 /util/academic/gaussian/g16.A03/x86-64-SSE4_2/g16/l1.exe "/scratch/2819093/Gau-10532.inp" -scrdir="/scratch/2819093/"
 Entering Link 1 = /util/academic/gaussian/g16.A03/x86-64-SSE4_2/g16/l1.exe PID=     10542.
  
 Copyright (c) 1988,1990,1992,1993,1995,1998,2003,2009,2016,
            Gaussian, Inc.  All Rights Reserved.
  
 This is part of the Gaussian(R) 16 program.  It is based on
 the Gaussian(R) 09 system (copyright 2009, Gaussian, Inc.),
 the Gaussian(R) 03 system (copyright 2003, Gaussian, Inc.),
 the Gaussian(R) 98 system (copyright 1998, Gaussian, Inc.),
 the Gaussian(R) 94 system (copyright 1995, Gaussian, Inc.),
 the Gaussian 92(TM) system (copyright 1992, Gaussian, Inc.),
 the Gaussian 90(TM) system (copyright 1990, Gaussian, Inc.),
 the Gaussian 88(TM) system (copyright 1988, Gaussian, Inc.),
 the Gaussian 86(TM) system (copyright 1986, Carnegie Mellon
 University), and the Gaussian 82(TM) system (copyright 1983,
 Carnegie Mellon University). Gaussian is a federally registered
 trademark of Gaussian, Inc.
  
 This software contains proprietary and confidential information,
 including trade secrets, belonging to Gaussian, Inc.
  
 This software is provided under written license and may be
 used, copied, transmitted, or stored only in accord with that
 written license.
  
 The following legend is applicable only to US Government
 contracts under FAR:
  
                    RESTRICTED RIGHTS LEGEND
  
 Use, reproduction and disclosure by the US Government is
 subject to restrictions as set forth in subparagraphs (a)
 and (c) of the Commercial Computer Software - Restricted
 Rights clause in FAR 52.227-19.
  
 Gaussian, Inc.
 340 Quinnipiac St., Bldg. 40, Wallingford CT 06492
  
  
 ---------------------------------------------------------------
 Warning -- This program may not be used in any manner that
 competes with the business of Gaussian, Inc. or will provide
 assistance to any competitor of Gaussian, Inc.  The licensee
 of this program is prohibited from giving any competitor of
 Gaussian, Inc. access to this program.  By using this program,
 the user acknowledges that Gaussian, Inc. is engaged in the
 business of creating and licensing software in the field of
 computational chemistry and represents and warrants to the
 licensee that it is not a competitor of Gaussian, Inc. and that
 it will not use this program in any manner prohibited above.
 ---------------------------------------------------------------
  

 Cite this work as:
 Gaussian 16, Revision A.03,
 M. J. Frisch, G. W. Trucks, H. B. Schlegel, G. E. Scuseria, 
 M. A. Robb, J. R. Cheeseman, G. Scalmani, V. Barone, 
 G. A. Petersson, H. Nakatsuji, X. Li, M. Caricato, A. V. Marenich, 
 J. Bloino, B. G. Janesko, R. Gomperts, B. Mennucci, H. P. Hratchian, 
 J. V. Ortiz, A. F. Izmaylov, J. L. Sonnenberg, D. Williams-Young, 
 F. Ding, F. Lipparini, F. Egidi, J. Goings, B. Peng, A. Petrone, 
 T. Henderson, D. Ranasinghe, V. G. Zakrzewski, J. Gao, N. Rega, 
 G. Zheng, W. Liang, M. Hada, M. Ehara, K. Toyota, R. Fukuda, 
 J. Hasegawa, M. Ishida, T. Nakajima, Y. Honda, O. Kitao, H. Nakai, 
 T. Vreven, K. Throssell, J. A. Montgomery, Jr., J. E. Peralta, 
 F. Ogliaro, M. J. Bearpark, J. J. Heyd, E. N. Brothers, K. N. Kudin, 
 V. N. Staroverov, T. A. Keith, R. Kobayashi, J. Normand, 
 K. Raghavachari, A. P. Rendell, J. C. Burant, S. S. Iyengar, 
 J. Tomasi, M. Cossi, J. M. Millam, M. Klene, C. Adamo, R. Cammi, 
 J. W. Ochterski, R. L. Martin, K. Morokuma, O. Farkas, 
 J. B. Foresman, and D. J. Fox, Gaussian, Inc., Wallingford CT, 2016.
 
 ******************************************
 Gaussian 16:  ES64L-G16RevA.03 25-Dec-2016
                16-Mar-2019 
 ******************************************
 %NProc=16
 Will use up to   16 processors via shared memory.
 %Chk=chk.chk
 --------------------------------------------------------------------
 #P BLYP/def2TZVP FREQ=SaveNormalModes Int=UltraFine SCF=Tight NoSymm
 --------------------------------------------------------------------
 1/10=4,30=1,38=1/1,3;
 2/12=2,15=1,17=6,18=5,40=1/2;
 3/5=44,7=101,11=2,25=1,30=1,71=2,74=402,75=-5,140=1/1,2,3;
 4//1;
 5/5=2,32=2,38=5,98=1/2;
 8/6=4,10=90,11=11/1;
 11/6=1,8=1,9=11,15=111,16=1,31=1/1,2,10;
 10/6=1,31=1/2;
 6/7=2,8=2,9=2,10=2,28=1/1;
 7/8=1,10=1,25=1,30=1,92=1/1,2,3,16;
 1/10=4,30=1/3;
 99//99;
 Leave Link    1 at Sat Mar 16 15:41:13 2019, MaxMem=           0 cpu:               0.9 elap:               0.1
 (Enter /util/academic/gaussian/g16.A03/x86-64-SSE4_2/g16/l101.exe)
 ----------
 opt + freq
 ----------
 Symbolic Z-matrix:
 Charge =  0 Multiplicity = 1
 O                    -2.04861  -0.72184  -0.45625 
 C                    -0.67484  -0.64676  -0.54104 
 C                    -0.12145   0.62332  -0.43699 
 C                     1.28074   0.81404  -0.51048 
 C                     1.88865   2.09938  -0.40478 
 C                     3.25888   2.24566  -0.48027 
 C                     4.11844   1.12399  -0.67242 
 C                     3.54989  -0.13658  -0.77239 
 C                     2.14203  -0.32802  -0.6973 
 C                     0.1694   -1.77861  -0.72422 
 C                     5.63488   1.35078  -0.76405 
 C                     6.32969   0.80818   0.49135 
 O                     6.54123  -0.55074   0.43718 
 O                     6.6602    1.47568   1.45163 
 C                     6.25828   0.8135   -2.07521 
 H                     5.80572   2.43279  -0.71309 
 H                     5.78375   1.30391  -2.93421 
 H                     6.12004  -0.26796  -2.17593 
 H                     7.33548   1.02353  -2.11008 
 H                     6.95423  -0.79415   1.29317 
 H                     1.25341   2.97343  -0.26069 
 H                     3.69943   3.23875  -0.39184 
 H                     4.18161  -1.015    -0.90189 
 C                     1.5407   -1.61194  -0.79899 
 H                    -0.25324  -2.77623  -0.80637 
 H                     2.18017  -2.48369  -0.93953 
 H                    -0.78333   1.47688  -0.29594 
 C                    -2.68093  -2.00854  -0.55314 
 H                    -2.35913  -2.67953   0.25752 
 H                    -2.48231  -2.48486  -1.52509 
 H                    -3.75324  -1.81397  -0.45783 
 
 ITRead=  0  0  0  0  0  0  0  0  0  0  0  0  0  0  0  0  0  0  0  0
 ITRead=  0  0  0  0  0  0  0  0  0  0  0
 MicOpt= -1 -1 -1 -1 -1 -1 -1 -1 -1 -1 -1 -1 -1 -1 -1 -1 -1 -1 -1 -1
 MicOpt= -1 -1 -1 -1 -1 -1 -1 -1 -1 -1 -1
 NAtoms=     31 NQM=       31 NQMF=       0 NMMI=      0 NMMIF=      0
                NMic=       0 NMicF=      0.
                    Isotopes and Nuclear Properties:
 (Nuclear quadrupole moments (NQMom) in fm**2, nuclear magnetic moments (NMagM)
  in nuclear magnetons)

  Atom         1           2           3           4           5           6           7           8           9          10
 IAtWgt=          16          12          12          12          12          12          12          12          12          12
 AtmWgt=  15.9949146  12.0000000  12.0000000  12.0000000  12.0000000  12.0000000  12.0000000  12.0000000  12.0000000  12.0000000
 NucSpn=           0           0           0           0           0           0           0           0           0           0
 AtZEff=  -0.0000000  -0.0000000  -0.0000000  -0.0000000  -0.0000000  -0.0000000  -0.0000000  -0.0000000  -0.0000000  -0.0000000
 NQMom=    0.0000000   0.0000000   0.0000000   0.0000000   0.0000000   0.0000000   0.0000000   0.0000000   0.0000000   0.0000000
 NMagM=    0.0000000   0.0000000   0.0000000   0.0000000   0.0000000   0.0000000   0.0000000   0.0000000   0.0000000   0.0000000
 AtZNuc=   8.0000000   6.0000000   6.0000000   6.0000000   6.0000000   6.0000000   6.0000000   6.0000000   6.0000000   6.0000000

  Atom        11          12          13          14          15          16          17          18          19          20
 IAtWgt=          12          12          16          16          12           1           1           1           1           1
 AtmWgt=  12.0000000  12.0000000  15.9949146  15.9949146  12.0000000   1.0078250   1.0078250   1.0078250   1.0078250   1.0078250
 NucSpn=           0           0           0           0           0           1           1           1           1           1
 AtZEff=  -0.0000000  -0.0000000  -0.0000000  -0.0000000  -0.0000000  -0.0000000  -0.0000000  -0.0000000  -0.0000000  -0.0000000
 NQMom=    0.0000000   0.0000000   0.0000000   0.0000000   0.0000000   0.0000000   0.0000000   0.0000000   0.0000000   0.0000000
 NMagM=    0.0000000   0.0000000   0.0000000   0.0000000   0.0000000   2.7928460   2.7928460   2.7928460   2.7928460   2.7928460
 AtZNuc=   6.0000000   6.0000000   8.0000000   8.0000000   6.0000000   1.0000000   1.0000000   1.0000000   1.0000000   1.0000000

  Atom        21          22          23          24          25          26          27          28          29          30
 IAtWgt=           1           1           1          12           1           1           1          12           1           1
 AtmWgt=   1.0078250   1.0078250   1.0078250  12.0000000   1.0078250   1.0078250   1.0078250  12.0000000   1.0078250   1.0078250
 NucSpn=           1           1           1           0           1           1           1           0           1           1
 AtZEff=  -0.0000000  -0.0000000  -0.0000000  -0.0000000  -0.0000000  -0.0000000  -0.0000000  -0.0000000  -0.0000000  -0.0000000
 NQMom=    0.0000000   0.0000000   0.0000000   0.0000000   0.0000000   0.0000000   0.0000000   0.0000000   0.0000000   0.0000000
 NMagM=    2.7928460   2.7928460   2.7928460   0.0000000   2.7928460   2.7928460   2.7928460   0.0000000   2.7928460   2.7928460
 AtZNuc=   1.0000000   1.0000000   1.0000000   6.0000000   1.0000000   1.0000000   1.0000000   6.0000000   1.0000000   1.0000000

  Atom        31
 IAtWgt=           1
 AtmWgt=   1.0078250
 NucSpn=           1
 AtZEff=  -0.0000000
 NQMom=    0.0000000
 NMagM=    2.7928460
 AtZNuc=   1.0000000
 Leave Link  101 at Sat Mar 16 15:41:14 2019, MaxMem=   104857600 cpu:               1.5 elap:               0.2
 (Enter /util/academic/gaussian/g16.A03/x86-64-SSE4_2/g16/l103.exe)

 GradGradGradGradGradGradGradGradGradGradGradGradGradGradGradGradGradGrad
 Berny optimization.
 Initialization pass.
 Trust Radius=3.00D-01 FncErr=1.00D-07 GrdErr=1.00D-07 EigMax=2.50D+02 EigMin=1.00D-04
 Number of steps in this run=      2 maximum allowed number of steps=      2.
 GradGradGradGradGradGradGradGradGradGradGradGradGradGradGradGradGradGrad

 Leave Link  103 at Sat Mar 16 15:41:14 2019, MaxMem=   104857600 cpu:               0.4 elap:               0.1
 (Enter /util/academic/gaussian/g16.A03/x86-64-SSE4_2/g16/l202.exe)
                          Input orientation:                          
 ---------------------------------------------------------------------
 Center     Atomic      Atomic             Coordinates (Angstroms)
 Number     Number       Type             X           Y           Z
 ---------------------------------------------------------------------
      1          8           0       -2.048605   -0.721840   -0.456245
      2          6           0       -0.674837   -0.646757   -0.541043
      3          6           0       -0.121449    0.623317   -0.436988
      4          6           0        1.280742    0.814044   -0.510481
      5          6           0        1.888654    2.099382   -0.404783
      6          6           0        3.258877    2.245662   -0.480267
      7          6           0        4.118443    1.123988   -0.672416
      8          6           0        3.549889   -0.136576   -0.772394
      9          6           0        2.142032   -0.328023   -0.697301
     10          6           0        0.169398   -1.778610   -0.724219
     11          6           0        5.634881    1.350781   -0.764054
     12          6           0        6.329694    0.808178    0.491346
     13          8           0        6.541226   -0.550744    0.437182
     14          8           0        6.660201    1.475679    1.451632
     15          6           0        6.258275    0.813497   -2.075214
     16          1           0        5.805717    2.432788   -0.713085
     17          1           0        5.783750    1.303910   -2.934209
     18          1           0        6.120036   -0.267962   -2.175928
     19          1           0        7.335476    1.023528   -2.110083
     20          1           0        6.954226   -0.794152    1.293169
     21          1           0        1.253413    2.973426   -0.260687
     22          1           0        3.699429    3.238749   -0.391841
     23          1           0        4.181605   -1.014996   -0.901885
     24          6           0        1.540695   -1.611935   -0.798985
     25          1           0       -0.253240   -2.776231   -0.806365
     26          1           0        2.180166   -2.483691   -0.939531
     27          1           0       -0.783332    1.476876   -0.295943
     28          6           0       -2.680932   -2.008541   -0.553144
     29          1           0       -2.359134   -2.679527    0.257524
     30          1           0       -2.482311   -2.484864   -1.525086
     31          1           0       -3.753242   -1.813967   -0.457828
 ---------------------------------------------------------------------
                    Distance matrix (angstroms):
                    1          2          3          4          5
     1  O    0.000000
     2  C    1.378429   0.000000
     3  C    2.350266   1.389300   0.000000
     4  C    3.666938   2.441140   1.417010   0.000000
     5  C    4.843960   3.759166   2.494057   1.425771   0.000000
     6  C    6.080790   4.883020   3.749731   2.442020   1.380075
     7  C    6.440985   5.111588   4.275837   2.859167   2.448465
     8  C    5.637874   4.261704   3.764128   2.474127   2.809688
     9  C    4.215998   2.839148   2.469040   1.442581   2.458061
    10  C    2.471459   1.423860   2.436462   2.828891   4.254022
    11  C    7.964073   6.622117   5.811326   4.394418   3.837147
    12  C    8.569409   7.228148   6.520217   5.147388   4.710954
    13  O    8.637863   7.282699   6.821571   5.516648   5.420194
    14  O    9.182178   7.891658   7.091134   5.764220   5.157804
    15  C    8.601312   7.249418   6.589448   5.217684   4.851539
    16  H    8.468059   7.177101   6.203363   4.810071   3.943297
    17  H    8.461073   7.158610   6.447534   5.137267   4.711958
    18  H    8.360025   6.999045   6.540216   5.230986   5.161963
    19  H    9.687232   8.331678   7.652787   6.265973   5.808044
    20  H    9.171513   7.847844   7.420771   6.166674   6.075821
    21  H    4.959492   4.111262   2.728432   2.173954   1.090068
    22  H    6.980710   5.852659   4.630511   3.426852   2.139446
    23  H    6.253003   4.883732   4.627793   3.451607   3.899242
    24  C    3.713868   2.430367   2.808935   2.456865   3.748379
    25  H    2.750717   2.186961   3.422095   3.915447   5.340466
    26  H    4.606538   3.418210   3.899164   3.445011   4.623364
    27  H    2.541843   2.140482   1.089287   2.178480   2.745700
    28  C    1.436950   2.424669   3.673026   4.864532   6.146394
    29  H    2.106759   2.758028   4.049489   5.103290   6.428089
    30  H    2.106840   2.759337   4.051964   5.106152   6.432397
    31  H    2.024483   3.293309   4.373866   5.678927   6.866448
                    6          7          8          9         10
     6  C    0.000000
     7  C    1.426158   0.000000
     8  C    2.417661   1.386460   0.000000
     9  C    2.813948   2.452581   1.422797   0.000000
    10  C    5.079287   4.901297   3.758499   2.448716   0.000000
    11  C    2.554749   1.536039   2.561151   3.875930   6.298109
    12  C    3.527082   2.518672   3.196391   4.498927   6.791047
    13  O    4.408561   3.147350   3.253107   4.548578   6.592170
    14  O    3.986742   3.331036   4.149662   5.318374   7.579924
    15  C    3.686644   2.577427   3.152036   4.488337   6.754156
    16  H    2.564296   2.135768   3.419636   4.587474   7.035914
    17  H    3.644683   2.814485   3.426161   4.574830   6.775466
    18  H    4.168909   2.864341   2.931352   4.244345   6.308693
    19  H    4.557255   3.525093   4.179225   5.549280   7.818265
    20  H    5.103053   3.947715   4.035897   5.228428   7.146531
    21  H    2.144701   3.434871   3.899713   3.446715   4.896100
    22  H    1.090012   2.174054   3.400000   3.903928   6.143735
    23  H    3.414832   2.152184   1.089704   2.161861   4.088090
    24  C    4.234948   3.761127   2.492840   1.421399   1.383411
    25  H    6.136833   5.860142   4.629549   3.426798   1.086563
    26  H    4.872507   4.104097   2.722687   2.169570   2.141655
    27  H    4.118794   4.928860   4.648337   3.460708   3.418962
    28  C    7.306496   7.487220   6.509643   5.109394   2.864702
    29  H    7.507587   7.569050   6.514897   5.167374   2.858137
    30  H    7.512041   7.571051   6.516781   5.169307   2.858626
    31  H    8.102525   8.404823   7.499888   6.084376   3.931834
                   11         12         13         14         15
    11  C    0.000000
    12  C    1.534018   0.000000
    13  O    2.424918   1.376353   0.000000
    14  O    2.444616   1.215295   2.269285   0.000000
    15  C    1.548042   2.567559   2.872864   3.610910   0.000000
    16  H    1.096596   2.089154   3.281090   2.516386   2.163864
    17  H    2.175760   3.504031   3.921707   4.475854   1.097065
    18  H    2.202065   2.883814   2.661900   4.060942   1.094900
    19  H    2.193379   2.797393   3.098019   3.653252   1.098040
    20  H    3.251703   1.897478   0.981086   2.294274   3.796694
    21  H    4.699321   5.569783   6.392790   5.865888   5.745124
    22  H    2.729275   3.688630   4.808674   3.908066   3.906825
    23  H    2.779912   3.143142   2.752534   4.229178   3.005436
    24  C    5.053837   5.518733   5.259234   6.388112   5.455918
    25  H    7.190548   7.607040   7.256995   8.424545   7.542941
    26  H    5.164206   5.486565   4.964924   6.439331   5.365836
    27  H    6.436496   7.187637   7.635304   7.645927   7.293155
    28  C    8.971191   9.498223   9.389042  10.169350   9.496842
    29  H    9.010620   9.365601   9.153164  10.002002   9.586585
    30  H    9.010003   9.620892   9.434804  10.398667   9.358401
    31  H    9.911925  10.461461  10.410228  11.086370  10.476162
                   16         17         18         19         20
    16  H    0.000000
    17  H    2.491634   0.000000
    18  H    3.087516   1.777318   0.000000
    19  H    2.505550   1.779228   1.774705   0.000000
    20  H    3.969543   4.862366   3.606575   3.877040   0.000000
    21  H    4.606563   5.518963   6.152948   6.649350   7.007737
    22  H    2.277986   3.814660   4.619451   4.591339   5.449519
    23  H    3.815835   3.474843   2.436957   3.944899   3.543228
    24  C    5.878569   5.573585   4.967152   6.499548   5.861075
    25  H    7.990841   7.590818   6.984681   8.586411   7.764293
    26  H    6.112910   5.595577   4.686225   6.344131   5.534541
    27  H    6.671083   7.079331   7.364461   8.331367   8.219042
    28  C    9.579885   9.396417   9.117021  10.580450   9.885337
    29  H    9.682078   9.610489   9.145144  10.644418   9.558550
    30  H    9.671301   9.201533   8.907223  10.442221   9.992462
    31  H   10.462972  10.334788  10.140198  11.564644  10.897517
                   21         22         23         24         25
    21  H    0.000000
    22  H    2.463857   0.000000
    23  H    4.989284   4.311263   0.000000
    24  C    4.625779   5.324945   2.709489   0.000000
    25  H    5.968779   7.209397   4.772727   2.138654   0.000000
    26  H    5.576722   5.945960   2.482789   1.090245   2.454542
    27  H    2.527694   4.817524   5.588129   3.898064   4.316300
    28  C    6.354888   8.262510   6.942850   4.247337   2.558741
    29  H    6.728664   8.494342   6.848077   4.179070   2.361356
    30  H    6.734038   8.500465   6.852494   4.180168   2.360130
    31  H    6.929978   9.004254   7.987324   5.308764   3.646566
                   26         27         28         29         30
    26  H    0.000000
    27  H    4.988248   0.000000
    28  C    4.899524   3.976829   0.000000
    29  H    4.698568   4.479416   1.100436   0.000000
    30  H    4.699103   4.482489   1.100457   1.797433   0.000000
    31  H    5.990484   4.435789   1.093980   1.790100   1.790086
                   31
    31  H    0.000000
 Symmetry turned off by external request.
 Stoichiometry    C14H14O3
 Framework group  C1[X(C14H14O3)]
 Deg. of freedom    87
 Full point group                 C1      NOp   1
 Rotational constants (GHZ):           1.2533962           0.2051599           0.1933965
 Leave Link  202 at Sat Mar 16 15:41:14 2019, MaxMem=   104857600 cpu:               1.4 elap:               0.1
 (Enter /util/academic/gaussian/g16.A03/x86-64-SSE4_2/g16/l301.exe)
 Standard basis: def2TZVP (5D, 7F)
 Ernie: Thresh=  0.10000D-02 Tol=  0.10000D-05 Strict=F.
   611 basis functions,   979 primitive gaussians,   696 cartesian basis functions
    61 alpha electrons       61 beta electrons
       nuclear repulsion energy      1121.0195192912 Hartrees.
 IExCor=  402 DFT=T Ex=B Corr=LYP ExCW=0 ScaHFX=  0.000000
 ScaDFX=  1.000000  1.000000  1.000000  1.000000 ScalE2=  1.000000  1.000000
 IRadAn=      5 IRanWt=     -1 IRanGd=            0 ICorTp=0 IEmpDi=  4
 NAtoms=   31 NActive=   31 NUniq=   31 SFac= 1.00D+00 NAtFMM=   60 NAOKFM=F Big=F
 Integral buffers will be    131072 words long.
 Raffenetti 2 integral format.
 Two-electron integral symmetry is turned off.
 Leave Link  301 at Sat Mar 16 15:41:14 2019, MaxMem=   104857600 cpu:               1.7 elap:               0.2
 (Enter /util/academic/gaussian/g16.A03/x86-64-SSE4_2/g16/l302.exe)
 NPDir=0 NMtPBC=     1 NCelOv=     1 NCel=       1 NClECP=     1 NCelD=      1
         NCelK=      1 NCelE2=     1 NClLst=     1 CellRange=     0.0.
 One-electron integrals computed using PRISM.
 PrsmSu:  requested number of processors reduced to:  12 ShMem   1 Linda.
   1 Symmetry operations used in ECPInt.
 ECPInt:  NShTT=   29646 NPrTT=   90516 LenC2=   25774 LenP2D=   57396.
 LDataN:  DoStor=T MaxTD1= 6 Len=  172
 Number of processors reduced to  11 by ecpmxn.
 NBasis=   611 RedAO= T EigKep=  5.92D-06  NBF=   611
 NBsUse=   611 1.00D-06 EigRej= -1.00D+00 NBFU=   611
 Precomputing XC quadrature grid using
 IXCGrd= 4 IRadAn=           5 IRanWt=          -1 IRanGd=           0 AccXCQ= 0.00D+00.
 Generated NRdTot=       0 NPtTot=           0 NUsed=           0 NTot=          32
 NSgBfM=   684   684   684   684   684 MxSgAt=    31 MxSgA2=    31.
 Leave Link  302 at Sat Mar 16 15:41:16 2019, MaxMem=   104857600 cpu:              17.8 elap:               1.2
 (Enter /util/academic/gaussian/g16.A03/x86-64-SSE4_2/g16/l303.exe)
 DipDrv:  MaxL=1.
 Leave Link  303 at Sat Mar 16 15:41:16 2019, MaxMem=   104857600 cpu:               2.4 elap:               0.2
 (Enter /util/academic/gaussian/g16.A03/x86-64-SSE4_2/g16/l401.exe)
 ExpMin= 9.52D-02 ExpMax= 2.70D+04 ExpMxC= 9.22D+02 IAcc=3 IRadAn=         5 AccDes= 0.00D+00
 Harris functional with IExCor=  402 and IRadAn=       5 diagonalized for initial guess.
 HarFok:  IExCor=  402 AccDes= 0.00D+00 IRadAn=         5 IDoV= 1 UseB2=F ITyADJ=14
 ICtDFT=  3500011 ScaDFX=  1.000000  1.000000  1.000000  1.000000
 FoFCou: FMM=F IPFlag=           0 FMFlag=      100000 FMFlg1=           0
         NFxFlg=           0 DoJE=T BraDBF=F KetDBF=T FulRan=T
         wScrn=  0.000000 ICntrl=       500 IOpCl=  0 I1Cent=   200000004 NGrid=           0
         NMat0=    1 NMatS0=      1 NMatT0=    0 NMatD0=    1 NMtDS0=    0 NMtDT0=    0
 Symmetry not used in FoFCou.
 Harris En= -767.965717094329    
 JPrj=0 DoOrth=F DoCkMO=F.
 Leave Link  401 at Sat Mar 16 15:41:21 2019, MaxMem=   104857600 cpu:              77.4 elap:               4.9
 (Enter /util/academic/gaussian/g16.A03/x86-64-SSE4_2/g16/l502.exe)
 Two-electron integral symmetry not used.
 Closed shell SCF:
 Using DIIS extrapolation, IDIIS=  1040.
 NGot=   104857600 LenX=   103873019 LenY=   103387907
 Requested convergence on RMS density matrix=1.00D-08 within 128 cycles.
 Requested convergence on MAX density matrix=1.00D-06.
 Requested convergence on             energy=1.00D-06.
 No special actions if energy rises.
 Fock matrices will be formed incrementally for  20 cycles.
 Integral accuracy reduced to 1.0D-05 until final iterations.

 Cycle   1  Pass 0  IDiag  1:
 FoFJK:  IHMeth= 1 ICntrl=     500 DoSepK=F KAlg= 0 I1Cent=           0 FoldK=F
 IRaf= 810000000 NMat=       1 IRICut=       1 DoRegI=T DoRafI=F ISym2E= 0 IDoP0=0 IntGTp=1.
 FoFCou: FMM=F IPFlag=           0 FMFlag=      100000 FMFlg1=           0
         NFxFlg=           0 DoJE=T BraDBF=F KetDBF=F FulRan=T
         wScrn=  0.000000 ICntrl=       500 IOpCl=  0 I1Cent=           0 NGrid=           0
         NMat0=    1 NMatS0=      1 NMatT0=    0 NMatD0=    1 NMtDS0=    0 NMtDT0=    0
 Symmetry not used in FoFCou.
 E= -767.208009478686    
 DIIS: error= 1.79D-02 at cycle   1 NSaved=   1.
 NSaved= 1 IEnMin= 1 EnMin= -767.208009478686     IErMin= 1 ErrMin= 1.79D-02
 ErrMax= 1.79D-02  0.00D+00 EMaxC= 1.00D-01 BMatC= 4.51D-01 BMatP= 4.51D-01
 IDIUse=3 WtCom= 8.21D-01 WtEn= 1.79D-01
 Coeff-Com:  0.100D+01
 Coeff-En:   0.100D+01
 Coeff:      0.100D+01
 Gap=     0.119 Goal=   None    Shift=    0.000
 GapD=    0.119 DampG=1.000 DampE=0.500 DampFc=0.5000 IDamp=-1.
 Damping current iteration by 5.00D-01
 RMSDP=1.09D-02 MaxDP=1.70D+00              OVMax= 2.72D-01

 Cycle   2  Pass 0  IDiag  1:
 RMSU=  5.40D-03    CP:  1.09D+00
 E= -767.269120762215     Delta-E=       -0.061111283529 Rises=F Damp=T
 DIIS: error= 8.84D-03 at cycle   2 NSaved=   2.
 NSaved= 2 IEnMin= 2 EnMin= -767.269120762215     IErMin= 2 ErrMin= 8.84D-03
 ErrMax= 8.84D-03  0.00D+00 EMaxC= 1.00D-01 BMatC= 1.07D-01 BMatP= 4.51D-01
 IDIUse=3 WtCom= 9.12D-01 WtEn= 8.84D-02
 Coeff-Com:  0.287D+00 0.713D+00
 Coeff-En:   0.435D+00 0.565D+00
 Coeff:      0.300D+00 0.700D+00
 Gap=     0.157 Goal=   None    Shift=    0.000
 RMSDP=2.28D-03 MaxDP=3.55D-01 DE=-6.11D-02 OVMax= 2.67D-01

 Cycle   3  Pass 0  IDiag  1:
 RMSU=  1.71D-03    CP:  1.06D+00  7.22D-01
 E= -767.524763027528     Delta-E=       -0.255642265313 Rises=F Damp=F
 DIIS: error= 1.01D-02 at cycle   3 NSaved=   3.
 NSaved= 3 IEnMin= 3 EnMin= -767.524763027528     IErMin= 2 ErrMin= 8.84D-03
 ErrMax= 1.01D-02  0.00D+00 EMaxC= 1.00D-01 BMatC= 1.29D-01 BMatP= 1.07D-01
 IDIUse=2 WtCom= 0.00D+00 WtEn= 1.00D+00
 Coeff-En:   0.000D+00 0.000D+00 0.100D+01
 Coeff:      0.000D+00 0.000D+00 0.100D+01
 Gap=     0.113 Goal=   None    Shift=    0.000
 RMSDP=3.43D-03 MaxDP=2.66D-01 DE=-2.56D-01 OVMax= 4.64D-01

 Cycle   4  Pass 0  IDiag  1:
 RMSU=  2.69D-03    CP:  1.06D+00  8.68D-01 -1.63D-01
 E= -766.411880534917     Delta-E=        1.112882492612 Rises=F Damp=F
 DIIS: error= 3.82D-02 at cycle   4 NSaved=   4.
 NSaved= 4 IEnMin= 3 EnMin= -767.524763027528     IErMin= 2 ErrMin= 8.84D-03
 ErrMax= 3.82D-02  0.00D+00 EMaxC= 1.00D-01 BMatC= 1.47D+00 BMatP= 1.07D-01
 IDIUse=2 WtCom= 0.00D+00 WtEn= 1.00D+00
 Coeff-En:   0.000D+00 0.000D+00 0.860D+00 0.140D+00
 Coeff:      0.000D+00 0.000D+00 0.860D+00 0.140D+00
 Gap=     0.099 Goal=   None    Shift=    0.000
 RMSDP=2.41D-03 MaxDP=1.85D-01 DE= 1.11D+00 OVMax= 2.79D-01

 Cycle   5  Pass 0  IDiag  1:
 RMSU=  6.67D-04    CP:  1.05D+00  6.39D-01  5.41D-01  4.28D-01
 E= -767.491946622697     Delta-E=       -1.080066087780 Rises=F Damp=F
 DIIS: error= 1.14D-02 at cycle   5 NSaved=   5.
 NSaved= 5 IEnMin= 3 EnMin= -767.524763027528     IErMin= 2 ErrMin= 8.84D-03
 ErrMax= 1.14D-02  0.00D+00 EMaxC= 1.00D-01 BMatC= 1.75D-01 BMatP= 1.07D-01
 IDIUse=2 WtCom= 0.00D+00 WtEn= 1.00D+00
 Coeff-En:   0.000D+00 0.000D+00 0.546D+00 0.000D+00 0.454D+00
 Coeff:      0.000D+00 0.000D+00 0.546D+00 0.000D+00 0.454D+00
 Gap=     0.125 Goal=   None    Shift=    0.000
 RMSDP=8.29D-04 MaxDP=7.23D-02 DE=-1.08D+00 OVMax= 1.33D-01

 Cycle   6  Pass 0  IDiag  1:
 RMSU=  1.78D-04    CP:  1.06D+00  6.69D-01  7.78D-01  1.97D-01  5.91D-01
 E= -767.628426417809     Delta-E=       -0.136479795112 Rises=F Damp=F
 DIIS: error= 7.51D-04 at cycle   6 NSaved=   6.
 NSaved= 6 IEnMin= 6 EnMin= -767.628426417809     IErMin= 6 ErrMin= 7.51D-04
 ErrMax= 7.51D-04  0.00D+00 EMaxC= 1.00D-01 BMatC= 7.56D-04 BMatP= 1.07D-01
 IDIUse=3 WtCom= 9.92D-01 WtEn= 7.51D-03
 Coeff-Com: -0.899D-03 0.155D-01 0.225D+00-0.336D-01 0.261D+00 0.533D+00
 Coeff-En:   0.000D+00 0.000D+00 0.000D+00 0.000D+00 0.000D+00 0.100D+01
 Coeff:     -0.892D-03 0.154D-01 0.223D+00-0.333D-01 0.259D+00 0.536D+00
 Gap=     0.109 Goal=   None    Shift=    0.000
 RMSDP=8.94D-05 MaxDP=7.15D-03 DE=-1.36D-01 OVMax= 1.16D-02

 Cycle   7  Pass 0  IDiag  1:
 RMSU=  7.11D-05    CP:  1.05D+00  6.70D-01  7.73D-01  2.06D-01  5.90D-01
                    CP:  7.43D-01
 E= -767.628791665659     Delta-E=       -0.000365247851 Rises=F Damp=F
 DIIS: error= 6.33D-04 at cycle   7 NSaved=   7.
 NSaved= 7 IEnMin= 7 EnMin= -767.628791665659     IErMin= 7 ErrMin= 6.33D-04
 ErrMax= 6.33D-04  0.00D+00 EMaxC= 1.00D-01 BMatC= 4.18D-04 BMatP= 7.56D-04
 IDIUse=3 WtCom= 9.94D-01 WtEn= 6.33D-03
 Coeff-Com: -0.246D-02 0.518D-02 0.661D-01-0.937D-02 0.518D-01 0.387D+00
 Coeff-Com:  0.501D+00
 Coeff-En:   0.000D+00 0.000D+00 0.000D+00 0.000D+00 0.000D+00 0.319D+00
 Coeff-En:   0.681D+00
 Coeff:     -0.244D-02 0.515D-02 0.656D-01-0.931D-02 0.515D-01 0.387D+00
 Coeff:      0.502D+00
 Gap=     0.109 Goal=   None    Shift=    0.000
 RMSDP=5.92D-05 MaxDP=9.72D-03 DE=-3.65D-04 OVMax= 5.93D-03

 Cycle   8  Pass 0  IDiag  1:
 RMSU=  3.51D-05    CP:  1.06D+00  6.74D-01  7.77D-01  1.95D-01  5.72D-01
                    CP:  8.32D-01  7.50D-01
 E= -767.629123284385     Delta-E=       -0.000331618726 Rises=F Damp=F
 DIIS: error= 2.20D-04 at cycle   8 NSaved=   8.
 NSaved= 8 IEnMin= 8 EnMin= -767.629123284385     IErMin= 8 ErrMin= 2.20D-04
 ErrMax= 2.20D-04  0.00D+00 EMaxC= 1.00D-01 BMatC= 3.69D-05 BMatP= 4.18D-04
 IDIUse=3 WtCom= 9.98D-01 WtEn= 2.20D-03
 Coeff-Com: -0.137D-02-0.475D-03 0.189D-01-0.366D-03-0.264D-02 0.211D+00
 Coeff-Com:  0.318D+00 0.457D+00
 Coeff-En:   0.000D+00 0.000D+00 0.000D+00 0.000D+00 0.000D+00 0.000D+00
 Coeff-En:   0.000D+00 0.100D+01
 Coeff:     -0.136D-02-0.474D-03 0.188D-01-0.365D-03-0.263D-02 0.210D+00
 Coeff:      0.317D+00 0.459D+00
 Gap=     0.109 Goal=   None    Shift=    0.000
 RMSDP=3.35D-05 MaxDP=3.16D-03 DE=-3.32D-04 OVMax= 2.14D-03

 Cycle   9  Pass 0  IDiag  1:
 RMSU=  2.34D-05    CP:  1.05D+00  6.70D-01  7.75D-01  1.94D-01  5.67D-01
                    CP:  8.10D-01  8.41D-01  1.06D+00
 E= -767.629151008786     Delta-E=       -0.000027724401 Rises=F Damp=F
 DIIS: error= 6.50D-05 at cycle   9 NSaved=   9.
 NSaved= 9 IEnMin= 9 EnMin= -767.629151008786     IErMin= 9 ErrMin= 6.50D-05
 ErrMax= 6.50D-05  0.00D+00 EMaxC= 1.00D-01 BMatC= 3.96D-06 BMatP= 3.69D-05
 IDIUse=1 WtCom= 1.00D+00 WtEn= 0.00D+00
 Coeff-Com: -0.441D-03-0.269D-03 0.809D-02 0.249D-03-0.548D-02 0.106D+00
 Coeff-Com:  0.176D+00 0.322D+00 0.395D+00
 Coeff:     -0.441D-03-0.269D-03 0.809D-02 0.249D-03-0.548D-02 0.106D+00
 Coeff:      0.176D+00 0.322D+00 0.395D+00
 Gap=     0.109 Goal=   None    Shift=    0.000
 RMSDP=4.39D-05 MaxDP=3.71D-03 DE=-2.77D-05 OVMax= 1.42D-03

 Cycle  10  Pass 0  IDiag  1:
 RMSU=  1.93D-05    CP:  1.05D+00  6.66D-01  7.72D-01  1.93D-01  5.64D-01
                    CP:  7.56D-01  9.75D-01  1.32D+00  2.05D+00
 E= -767.629149727777     Delta-E=        0.000001281009 Rises=F Damp=F
 DIIS: error= 3.47D-05 at cycle  10 NSaved=  10.
 NSaved=10 IEnMin= 9 EnMin= -767.629151008786     IErMin=10 ErrMin= 3.47D-05
 ErrMax= 3.47D-05  0.00D+00 EMaxC= 1.00D-01 BMatC= 6.47D-07 BMatP= 3.96D-06
 IDIUse=1 WtCom= 1.00D+00 WtEn= 0.00D+00
 Coeff-Com: -0.532D-04-0.154D-04 0.372D-02 0.140D-03-0.364D-02 0.495D-01
 Coeff-Com:  0.915D-01 0.188D+00 0.303D+00 0.368D+00
 Coeff:     -0.532D-04-0.154D-04 0.372D-02 0.140D-03-0.364D-02 0.495D-01
 Coeff:      0.915D-01 0.188D+00 0.303D+00 0.368D+00
 Gap=     0.109 Goal=   None    Shift=    0.000
 RMSDP=7.74D-05 MaxDP=6.95D-03 DE= 1.28D-06 OVMax= 4.72D-04

 Cycle  11  Pass 0  IDiag  1:
 RMSU=  2.06D-05    CP:  1.05D+00  6.57D-01  7.64D-01  1.91D-01  5.61D-01
                    CP:  6.57D-01  1.20D+00  1.65D+00  3.00D+00  2.57D+00
 E= -767.629144175870     Delta-E=        0.000005551908 Rises=F Damp=F
 DIIS: error= 3.64D-05 at cycle  11 NSaved=  11.
 NSaved=11 IEnMin= 9 EnMin= -767.629151008786     IErMin=10 ErrMin= 3.47D-05
 ErrMax= 3.64D-05  0.00D+00 EMaxC= 1.00D-01 BMatC= 2.94D-07 BMatP= 6.47D-07
 IDIUse=1 WtCom= 1.00D+00 WtEn= 0.00D+00
 Coeff-Com: -0.504D-04 0.795D-05 0.423D-02 0.174D-03-0.436D-02 0.570D-01
 Coeff-Com:  0.106D+00 0.221D+00 0.363D+00 0.465D+00-0.212D+00
 Coeff:     -0.504D-04 0.795D-05 0.423D-02 0.174D-03-0.436D-02 0.570D-01
 Coeff:      0.106D+00 0.221D+00 0.363D+00 0.465D+00-0.212D+00
 Gap=     0.109 Goal=   None    Shift=    0.000
 RMSDP=6.59D-05 MaxDP=6.04D-03 DE= 5.55D-06 OVMax= 5.23D-05

 Problem detected with inexpensive integrals.
 Switching to full accuracy and repeating last cycle.
 Cycle  12  Pass 1  IDiag  1:
 E= -767.629127265064     Delta-E=        0.000016910805 Rises=F Damp=F
 DIIS: error= 4.49D-04 at cycle   1 NSaved=   1.
 NSaved= 1 IEnMin= 1 EnMin= -767.629127265064     IErMin= 1 ErrMin= 4.49D-04
 ErrMax= 4.49D-04  0.00D+00 EMaxC= 1.00D-01 BMatC= 5.21D-05 BMatP= 5.21D-05
 IDIUse=3 WtCom= 9.96D-01 WtEn= 4.49D-03
 Coeff-Com:  0.100D+01
 Coeff-En:   0.100D+01
 Coeff:      0.100D+01
 Gap=     0.109 Goal=   None    Shift=    0.000
 RMSDP=2.67D-03 MaxDP=2.35D-01 DE= 1.69D-05 OVMax= 1.10D-03

 Cycle  13  Pass 1  IDiag  1:
 RMSU=  2.32D-03    CP:  8.37D-01
 E= -767.629164281527     Delta-E=       -0.000037016462 Rises=F Damp=F
 DIIS: error= 9.79D-06 at cycle   2 NSaved=   2.
 NSaved= 2 IEnMin= 2 EnMin= -767.629164281527     IErMin= 2 ErrMin= 9.79D-06
 ErrMax= 9.79D-06  0.00D+00 EMaxC= 1.00D-01 BMatC= 9.90D-08 BMatP= 5.21D-05
 IDIUse=1 WtCom= 1.00D+00 WtEn= 0.00D+00
 Coeff-Com:  0.251D-02 0.997D+00
 Coeff:      0.251D-02 0.997D+00
 Gap=     0.109 Goal=   None    Shift=    0.000
 RMSDP=2.24D-06 MaxDP=2.36D-04 DE=-3.70D-05 OVMax= 5.43D-04

 Cycle  14  Pass 1  IDiag  1:
 RMSU=  2.20D-06    CP:  8.37D-01  1.00D+00
 E= -767.629163589223     Delta-E=        0.000000692303 Rises=F Damp=F
 DIIS: error= 3.21D-05 at cycle   3 NSaved=   3.
 NSaved= 3 IEnMin= 2 EnMin= -767.629164281527     IErMin= 2 ErrMin= 9.79D-06
 ErrMax= 3.21D-05  0.00D+00 EMaxC= 1.00D-01 BMatC= 7.56D-07 BMatP= 9.90D-08
 IDIUse=1 WtCom= 1.00D+00 WtEn= 0.00D+00
 Coeff-Com:  0.170D-04 0.737D+00 0.263D+00
 Coeff:      0.170D-04 0.737D+00 0.263D+00
 Gap=     0.109 Goal=   None    Shift=    0.000
 RMSDP=1.74D-06 MaxDP=1.87D-04 DE= 6.92D-07 OVMax= 4.51D-04

 Cycle  15  Pass 1  IDiag  1:
 RMSU=  6.11D-07    CP:  8.37D-01  1.00D+00  2.98D-01
 E= -767.629164369534     Delta-E=       -0.000000780310 Rises=F Damp=F
 DIIS: error= 3.55D-06 at cycle   4 NSaved=   4.
 NSaved= 4 IEnMin= 4 EnMin= -767.629164369534     IErMin= 4 ErrMin= 3.55D-06
 ErrMax= 3.55D-06  0.00D+00 EMaxC= 1.00D-01 BMatC= 1.33D-08 BMatP= 9.90D-08
 IDIUse=1 WtCom= 1.00D+00 WtEn= 0.00D+00
 Coeff-Com: -0.464D-04 0.507D+00 0.189D+00 0.304D+00
 Coeff:     -0.464D-04 0.507D+00 0.189D+00 0.304D+00
 Gap=     0.109 Goal=   None    Shift=    0.000
 RMSDP=2.56D-07 MaxDP=3.57D-05 DE=-7.80D-07 OVMax= 4.47D-05

 Cycle  16  Pass 1  IDiag  1:
 RMSU=  2.33D-07    CP:  8.37D-01  1.00D+00  2.99D-01  8.89D-01
 E= -767.629164381763     Delta-E=       -0.000000012230 Rises=F Damp=F
 DIIS: error= 4.27D-07 at cycle   5 NSaved=   5.
 NSaved= 5 IEnMin= 5 EnMin= -767.629164381763     IErMin= 5 ErrMin= 4.27D-07
 ErrMax= 4.27D-07  0.00D+00 EMaxC= 1.00D-01 BMatC= 3.93D-10 BMatP= 1.33D-08
 IDIUse=1 WtCom= 1.00D+00 WtEn= 0.00D+00
 Coeff-Com: -0.313D-04 0.268D+00 0.101D+00 0.191D+00 0.441D+00
 Coeff:     -0.313D-04 0.268D+00 0.101D+00 0.191D+00 0.441D+00
 Gap=     0.109 Goal=   None    Shift=    0.000
 RMSDP=5.83D-08 MaxDP=8.76D-06 DE=-1.22D-08 OVMax= 5.69D-06

 Cycle  17  Pass 1  IDiag  1:
 RMSU=  3.83D-08    CP:  8.37D-01  1.00D+00  3.03D-01  8.98D-01  8.44D-01
 E= -767.629164382003     Delta-E=       -0.000000000240 Rises=F Damp=F
 DIIS: error= 2.25D-07 at cycle   6 NSaved=   6.
 NSaved= 6 IEnMin= 6 EnMin= -767.629164382003     IErMin= 6 ErrMin= 2.25D-07
 ErrMax= 2.25D-07  0.00D+00 EMaxC= 1.00D-01 BMatC= 5.31D-11 BMatP= 3.93D-10
 IDIUse=1 WtCom= 1.00D+00 WtEn= 0.00D+00
 Coeff-Com: -0.130D-04 0.960D-01 0.362D-01 0.767D-01 0.291D+00 0.500D+00
 Coeff:     -0.130D-04 0.960D-01 0.362D-01 0.767D-01 0.291D+00 0.500D+00
 Gap=     0.109 Goal=   None    Shift=    0.000
 RMSDP=1.78D-08 MaxDP=1.57D-06 DE=-2.40D-10 OVMax= 2.87D-06

 Cycle  18  Pass 1  IDiag  1:
 RMSU=  1.34D-08    CP:  8.37D-01  1.00D+00  3.03D-01  9.03D-01  8.82D-01
                    CP:  8.66D-01
 E= -767.629164382029     Delta-E=       -0.000000000026 Rises=F Damp=F
 DIIS: error= 1.07D-07 at cycle   7 NSaved=   7.
 NSaved= 7 IEnMin= 7 EnMin= -767.629164382029     IErMin= 7 ErrMin= 1.07D-07
 ErrMax= 1.07D-07  0.00D+00 EMaxC= 1.00D-01 BMatC= 1.66D-11 BMatP= 5.31D-11
 IDIUse=1 WtCom= 1.00D+00 WtEn= 0.00D+00
 Coeff-Com: -0.518D-05 0.333D-01 0.126D-01 0.300D-01 0.158D+00 0.384D+00
 Coeff-Com:  0.382D+00
 Coeff:     -0.518D-05 0.333D-01 0.126D-01 0.300D-01 0.158D+00 0.384D+00
 Coeff:      0.382D+00
 Gap=     0.109 Goal=   None    Shift=    0.000
 RMSDP=9.17D-09 MaxDP=9.43D-07 DE=-2.61D-11 OVMax= 1.84D-06

 SCF Done:  E(RB-LYP) =  -767.629164382     A.U. after   18 cycles
            NFock= 18  Conv=0.92D-08     -V/T= 2.0039
 KE= 7.646777717069D+02 PE=-4.033224252465D+03 EE= 1.379897797085D+03
 Leave Link  502 at Sat Mar 16 15:44:42 2019, MaxMem=   104857600 cpu:            3202.9 elap:             200.8
 (Enter /util/academic/gaussian/g16.A03/x86-64-SSE4_2/g16/l801.exe)
 DoSCS=F DFT=T ScalE2(SS,OS)=  1.000000  1.000000
 Range of M.O.s used for correlation:     1   611
 NBasis=   611 NAE=    61 NBE=    61 NFC=     0 NFV=     0
 NROrb=    611 NOA=    61 NOB=    61 NVA=   550 NVB=   550

 **** Warning!!: The largest alpha MO coefficient is  0.71703839D+02

 Leave Link  801 at Sat Mar 16 15:44:42 2019, MaxMem=   104857600 cpu:               0.9 elap:               0.2
 (Enter /util/academic/gaussian/g16.A03/x86-64-SSE4_2/g16/l1101.exe)
 Using compressed storage, NAtomX=    31.
 Will process     32 centers per pass.
 PrsmSu:  requested number of processors reduced to:  10 ShMem   1 Linda.
 PrsmSu:  requested number of processors reduced to:   3 ShMem   1 Linda.
   1 Symmetry operations used in ECPInt.
 ECPInt:  NShTT=   29646 NPrTT=   90516 LenC2=   25774 LenP2D=   57396.
 LDataN:  DoStor=T MaxTD1= 7 Len=  274
 Number of processors reduced to   2 by ecpmxn.
 Leave Link 1101 at Sat Mar 16 15:44:44 2019, MaxMem=   104857600 cpu:              21.5 elap:               2.1
 (Enter /util/academic/gaussian/g16.A03/x86-64-SSE4_2/g16/l1102.exe)
 Symmetrizing basis deriv contribution to polar:
 IMax=3 JMax=2 DiffMx= 0.00D+00
 Leave Link 1102 at Sat Mar 16 15:44:45 2019, MaxMem=   104857600 cpu:               2.2 elap:               0.4
 (Enter /util/academic/gaussian/g16.A03/x86-64-SSE4_2/g16/l1110.exe)
 Forming Gx(P) for the SCF density, NAtomX=    31.
 Integral derivatives from FoFJK, PRISM(SPDF).
 Do as many integral derivatives as possible in FoFJK.
 G2DrvN: MDV=     104855232.
 G2DrvN: will do     2 centers at a time, making   16 passes.
 G2DrvN:  IPasSy=1 do centers    0 through    1.
 Calling FoFCou, ICntrl=  3507 FMM=F I1Cent=   0 AccDes= 0.00D+00.
 FoFJK:  IHMeth= 1 ICntrl=    3507 DoSepK=F KAlg= 0 I1Cent=           0 FoldK=F
 IRaf=         0 NMat=       1 IRICut=       1 DoRegI=T DoRafI=F ISym2E= 0 IDoP0=0 IntGTp=1.
 FoFCou: FMM=F IPFlag=           0 FMFlag=      100000 FMFlg1=           0
         NFxFlg=           0 DoJE=F BraDBF=F KetDBF=F FulRan=T
         wScrn=  0.000000 ICntrl=      3507 IOpCl=  0 I1Cent=           0 NGrid=           0
         NMat0=    1 NMatS0=      1 NMatT0=    0 NMatD0=    1 NMtDS0=    0 NMtDT0=    0
 Symmetry not used in FoFCou.
 G2DrvN:  IPasSy=1 do centers    2 through    3.
 Calling FoFCou, ICntrl=  3507 FMM=F I1Cent=   0 AccDes= 0.00D+00.
 G2DrvN:  IPasSy=1 do centers    4 through    5.
 Calling FoFCou, ICntrl=  3507 FMM=F I1Cent=   0 AccDes= 0.00D+00.
 G2DrvN:  IPasSy=1 do centers    6 through    7.
 Calling FoFCou, ICntrl=  3507 FMM=F I1Cent=   0 AccDes= 0.00D+00.
 G2DrvN:  IPasSy=1 do centers    8 through    9.
 Calling FoFCou, ICntrl=  3507 FMM=F I1Cent=   0 AccDes= 0.00D+00.
 G2DrvN:  IPasSy=1 do centers   10 through   11.
 Calling FoFCou, ICntrl=  3507 FMM=F I1Cent=   0 AccDes= 0.00D+00.
 G2DrvN:  IPasSy=1 do centers   12 through   13.
 Calling FoFCou, ICntrl=  3507 FMM=F I1Cent=   0 AccDes= 0.00D+00.
 G2DrvN:  IPasSy=1 do centers   14 through   15.
 Calling FoFCou, ICntrl=  3507 FMM=F I1Cent=   0 AccDes= 0.00D+00.
 G2DrvN:  IPasSy=1 do centers   16 through   17.
 Calling FoFCou, ICntrl=  3507 FMM=F I1Cent=   0 AccDes= 0.00D+00.
 G2DrvN:  IPasSy=1 do centers   18 through   19.
 Calling FoFCou, ICntrl=  3507 FMM=F I1Cent=   0 AccDes= 0.00D+00.
 G2DrvN:  IPasSy=1 do centers   20 through   21.
 Calling FoFCou, ICntrl=  3507 FMM=F I1Cent=   0 AccDes= 0.00D+00.
 G2DrvN:  IPasSy=1 do centers   22 through   23.
 Calling FoFCou, ICntrl=  3507 FMM=F I1Cent=   0 AccDes= 0.00D+00.
 G2DrvN:  IPasSy=1 do centers   24 through   25.
 Calling FoFCou, ICntrl=  3507 FMM=F I1Cent=   0 AccDes= 0.00D+00.
 G2DrvN:  IPasSy=1 do centers   26 through   27.
 Calling FoFCou, ICntrl=  3507 FMM=F I1Cent=   0 AccDes= 0.00D+00.
 G2DrvN:  IPasSy=1 do centers   28 through   29.
 Calling FoFCou, ICntrl=  3507 FMM=F I1Cent=   0 AccDes= 0.00D+00.
 G2DrvN:  IPasSy=1 do centers   30 through   31.
 Calling FoFCou, ICntrl=  3507 FMM=F I1Cent=   0 AccDes= 0.00D+00.
 End of G2Drv F.D. properties file   721 does not exist.
 End of G2Drv F.D. properties file   722 does not exist.
 End of G2Drv F.D. properties file   788 does not exist.
 Leave Link 1110 at Sat Mar 16 16:01:14 2019, MaxMem=   104857600 cpu:           15793.3 elap:             989.0
 (Enter /util/academic/gaussian/g16.A03/x86-64-SSE4_2/g16/l1002.exe)
 Minotr:  Closed shell wavefunction.
          IDoAtm=1111111111111111111111111111111
          Direct CPHF calculation.
          Differentiating once with respect to electric field.
                with respect to dipole field.
          Differentiating once with respect to nuclear coordinates.
          Requested convergence is 1.0D-08 RMS, and 1.0D-07 maximum.
          Secondary convergence is 1.0D-12 RMS, and 1.0D-12 maximum.
          NewPWx=T KeepS1=F KeepF1=F KeepIn=T MapXYZ=F SortEE=F KeepMc=T.
         9421 words used for storage of precomputed grid.
 Two-electron integral symmetry not used.
          MDV=     104857600 using IRadAn=       1.
          Solving linear equations simultaneously, MaxMat=     384.
 FoF2E skips out because all densities are zero.
 CalDSu exits because no D1Ps are significant.
 FoFJK:  IHMeth= 1 ICntrl=     500 DoSepK=F KAlg= 0 I1Cent=           0 FoldK=F
 IRaf= 780000000 NMat=       6 IRICut=       1 DoRegI=T DoRafI=F ISym2E= 0 IDoP0=0 IntGTp=1.
 FoFCou: FMM=F IPFlag=           0 FMFlag=      100000 FMFlg1=           0
         NFxFlg=           0 DoJE=F BraDBF=F KetDBF=F FulRan=T
         wScrn=  0.000000 ICntrl=       500 IOpCl=  0 I1Cent=           0 NGrid=           0
         NMat0=    6 NMatS0=      6 NMatT0=    0 NMatD0=    6 NMtDS0=    0 NMtDT0=    0
 Symmetry not used in FoFCou.
          There are    96 degrees of freedom in the 1st order CPHF.  IDoFFX=6 NUNeed=     3.
     96 vectors produced by pass  0 Test12= 3.49D-14 1.04D-09 XBig12= 6.12D+02 1.49D+01.
 AX will form     6 AO Fock derivatives at one time.
     94 vectors produced by pass  1 Test12= 3.49D-14 1.04D-09 XBig12= 2.46D+02 3.03D+00.
     93 vectors produced by pass  2 Test12= 3.49D-14 1.04D-09 XBig12= 2.13D+00 1.07D-01.
     93 vectors produced by pass  3 Test12= 3.49D-14 1.04D-09 XBig12= 3.97D-03 4.02D-03.
     93 vectors produced by pass  4 Test12= 3.49D-14 1.04D-09 XBig12= 2.08D-06 1.25D-04.
     74 vectors produced by pass  5 Test12= 3.49D-14 1.04D-09 XBig12= 1.18D-09 4.25D-06.
     54 vectors produced by pass  6 Test12= 3.49D-14 1.04D-09 XBig12= 4.28D-13 4.51D-08.
     44 vectors produced by pass  7 Test12= 3.49D-14 1.04D-09 XBig12= 4.80D-15 5.19D-09.
     39 vectors produced by pass  8 Test12= 3.49D-14 1.04D-09 XBig12= 4.15D-15 5.67D-09.
     29 vectors produced by pass  9 Test12= 3.49D-14 1.04D-09 XBig12= 2.71D-15 4.81D-09.
     21 vectors produced by pass 10 Test12= 3.49D-14 1.04D-09 XBig12= 1.78D-15 2.61D-09.
     17 vectors produced by pass 11 Test12= 3.49D-14 1.04D-09 XBig12= 2.21D-15 3.39D-09.
     14 vectors produced by pass 12 Test12= 3.49D-14 1.04D-09 XBig12= 1.82D-15 3.01D-09.
      9 vectors produced by pass 13 Test12= 3.49D-14 1.04D-09 XBig12= 1.12D-15 2.09D-09.
      6 vectors produced by pass 14 Test12= 3.49D-14 1.04D-09 XBig12= 1.21D-15 2.19D-09.
      3 vectors produced by pass 15 Test12= 3.49D-14 1.04D-09 XBig12= 7.69D-16 1.50D-09.
 InvSVY:  IOpt=1 It=  1 EMax= 2.84D-14
 Solved reduced A of dimension   779 with    96 vectors.
 FullF1:  Do perturbations      1 to       3.
 Isotropic polarizability for W=    0.000000      194.57 Bohr**3.
 End of Minotr F.D. properties file   721 does not exist.
 End of Minotr F.D. properties file   722 does not exist.
 End of Minotr F.D. properties file   788 does not exist.
 Leave Link 1002 at Sat Mar 16 16:57:36 2019, MaxMem=   104857600 cpu:           54007.6 elap:            3382.0
 (Enter /util/academic/gaussian/g16.A03/x86-64-SSE4_2/g16/l601.exe)
 Copying SCF densities to generalized density rwf, IOpCl= 0 IROHF=0.

 **********************************************************************

            Population analysis using the SCF density.

 **********************************************************************

 Alpha  occ. eigenvalues --  -18.82026 -18.80721 -18.76347 -10.03459  -9.97096
 Alpha  occ. eigenvalues --   -9.96591  -9.93545  -9.92222  -9.92137  -9.91838
 Alpha  occ. eigenvalues --   -9.91668  -9.91598  -9.91106  -9.91060  -9.90968
 Alpha  occ. eigenvalues --   -9.90778  -9.90591  -1.00254  -0.96600  -0.92061
 Alpha  occ. eigenvalues --   -0.78800  -0.75057  -0.71374  -0.69475  -0.66223
 Alpha  occ. eigenvalues --   -0.65574  -0.61876  -0.59618  -0.56821  -0.54639
 Alpha  occ. eigenvalues --   -0.53517  -0.51855  -0.47644  -0.45957  -0.45342
 Alpha  occ. eigenvalues --   -0.42568  -0.41991  -0.41588  -0.41407  -0.40248
 Alpha  occ. eigenvalues --   -0.39568  -0.38944  -0.37845  -0.36947  -0.36308
 Alpha  occ. eigenvalues --   -0.35768  -0.34919  -0.34515  -0.33504  -0.33324
 Alpha  occ. eigenvalues --   -0.31572  -0.30963  -0.30025  -0.29558  -0.28192
 Alpha  occ. eigenvalues --   -0.27684  -0.26743  -0.24761  -0.22802  -0.20964
 Alpha  occ. eigenvalues --   -0.17974
 Alpha virt. eigenvalues --   -0.07070  -0.04562  -0.02313  -0.01334   0.00424
 Alpha virt. eigenvalues --    0.01647   0.03222   0.03694   0.04113   0.05143
 Alpha virt. eigenvalues --    0.05547   0.06085   0.06757   0.07491   0.08338
 Alpha virt. eigenvalues --    0.08583   0.08735   0.09379   0.10548   0.11591
 Alpha virt. eigenvalues --    0.12005   0.12189   0.13111   0.14383   0.15345
 Alpha virt. eigenvalues --    0.15512   0.15979   0.16803   0.17331   0.17695
 Alpha virt. eigenvalues --    0.18805   0.19028   0.19452   0.20393   0.20482
 Alpha virt. eigenvalues --    0.21505   0.22082   0.22310   0.23145   0.23467
 Alpha virt. eigenvalues --    0.23964   0.24821   0.25590   0.26127   0.26424
 Alpha virt. eigenvalues --    0.27222   0.27972   0.28399   0.28492   0.28923
 Alpha virt. eigenvalues --    0.29527   0.30087   0.31065   0.31750   0.32237
 Alpha virt. eigenvalues --    0.33116   0.33282   0.33579   0.34194   0.35125
 Alpha virt. eigenvalues --    0.35630   0.36016   0.36402   0.37340   0.37519
 Alpha virt. eigenvalues --    0.37820   0.37979   0.38727   0.39273   0.39697
 Alpha virt. eigenvalues --    0.40142   0.40942   0.41462   0.42115   0.42491
 Alpha virt. eigenvalues --    0.42674   0.43100   0.43321   0.43730   0.44851
 Alpha virt. eigenvalues --    0.45355   0.45635   0.46467   0.47265   0.47746
 Alpha virt. eigenvalues --    0.48375   0.48640   0.49830   0.50993   0.52170
 Alpha virt. eigenvalues --    0.52554   0.53680   0.53878   0.54740   0.55567
 Alpha virt. eigenvalues --    0.56434   0.57530   0.58511   0.58840   0.59551
 Alpha virt. eigenvalues --    0.60863   0.61271   0.61860   0.62452   0.63704
 Alpha virt. eigenvalues --    0.64304   0.65131   0.65568   0.65989   0.67399
 Alpha virt. eigenvalues --    0.68076   0.68462   0.69085   0.70637   0.71597
 Alpha virt. eigenvalues --    0.73456   0.73717   0.74027   0.74685   0.75149
 Alpha virt. eigenvalues --    0.76620   0.76813   0.78023   0.79354   0.79547
 Alpha virt. eigenvalues --    0.80126   0.80763   0.81976   0.83356   0.84112
 Alpha virt. eigenvalues --    0.84677   0.85351   0.85408   0.86881   0.88081
 Alpha virt. eigenvalues --    0.88716   0.89630   0.90121   0.92136   0.92794
 Alpha virt. eigenvalues --    0.93587   0.95099   0.95450   0.95861   0.96039
 Alpha virt. eigenvalues --    0.97822   0.99998   1.00708   1.01657   1.02189
 Alpha virt. eigenvalues --    1.02803   1.03671   1.04863   1.07668   1.09155
 Alpha virt. eigenvalues --    1.09664   1.10538   1.12001   1.12402   1.13712
 Alpha virt. eigenvalues --    1.15184   1.15708   1.16360   1.18543   1.19278
 Alpha virt. eigenvalues --    1.19868   1.20851   1.22118   1.23554   1.23679
 Alpha virt. eigenvalues --    1.24670   1.25141   1.26353   1.27550   1.30115
 Alpha virt. eigenvalues --    1.30720   1.32448   1.33231   1.33951   1.35744
 Alpha virt. eigenvalues --    1.36499   1.37843   1.39178   1.39683   1.39972
 Alpha virt. eigenvalues --    1.40836   1.41552   1.41609   1.42899   1.43845
 Alpha virt. eigenvalues --    1.44435   1.45083   1.45365   1.46332   1.46661
 Alpha virt. eigenvalues --    1.47736   1.48923   1.50093   1.51200   1.51937
 Alpha virt. eigenvalues --    1.52657   1.53464   1.53679   1.54094   1.54507
 Alpha virt. eigenvalues --    1.56638   1.56797   1.57686   1.59805   1.60349
 Alpha virt. eigenvalues --    1.60938   1.61431   1.62179   1.62996   1.63561
 Alpha virt. eigenvalues --    1.63728   1.66124   1.67276   1.68914   1.69704
 Alpha virt. eigenvalues --    1.72337   1.73779   1.74240   1.75447   1.76905
 Alpha virt. eigenvalues --    1.78342   1.79034   1.79585   1.81137   1.82282
 Alpha virt. eigenvalues --    1.82629   1.84857   1.86168   1.86551   1.87910
 Alpha virt. eigenvalues --    1.88409   1.88842   1.90101   1.90234   1.92144
 Alpha virt. eigenvalues --    1.94445   1.96065   1.96653   1.97322   1.98541
 Alpha virt. eigenvalues --    2.00180   2.00415   2.01226   2.02434   2.04846
 Alpha virt. eigenvalues --    2.05758   2.06364   2.07551   2.08221   2.08851
 Alpha virt. eigenvalues --    2.10295   2.11137   2.11723   2.12795   2.13976
 Alpha virt. eigenvalues --    2.15921   2.16721   2.17472   2.18143   2.19801
 Alpha virt. eigenvalues --    2.21221   2.22407   2.22628   2.24059   2.25060
 Alpha virt. eigenvalues --    2.26437   2.27067   2.27844   2.29194   2.31698
 Alpha virt. eigenvalues --    2.33339   2.33814   2.35340   2.37065   2.38140
 Alpha virt. eigenvalues --    2.39148   2.40567   2.41708   2.42585   2.43957
 Alpha virt. eigenvalues --    2.45424   2.45818   2.46523   2.46990   2.48309
 Alpha virt. eigenvalues --    2.49317   2.50259   2.51845   2.52689   2.55173
 Alpha virt. eigenvalues --    2.55673   2.57297   2.58264   2.58889   2.59464
 Alpha virt. eigenvalues --    2.60605   2.61402   2.62786   2.63122   2.64693
 Alpha virt. eigenvalues --    2.65457   2.66882   2.67547   2.68664   2.69026
 Alpha virt. eigenvalues --    2.70791   2.71436   2.72104   2.72717   2.73343
 Alpha virt. eigenvalues --    2.73800   2.74982   2.75482   2.76234   2.77040
 Alpha virt. eigenvalues --    2.77863   2.77997   2.78758   2.80261   2.80901
 Alpha virt. eigenvalues --    2.81568   2.82125   2.83884   2.84103   2.85597
 Alpha virt. eigenvalues --    2.86485   2.88402   2.88733   2.90225   2.90733
 Alpha virt. eigenvalues --    2.91955   2.92494   2.93158   2.94609   2.95023
 Alpha virt. eigenvalues --    2.96923   2.97502   2.97843   2.99621   2.99958
 Alpha virt. eigenvalues --    3.01074   3.02002   3.04486   3.04740   3.05075
 Alpha virt. eigenvalues --    3.06291   3.06680   3.07282   3.07701   3.07857
 Alpha virt. eigenvalues --    3.08983   3.09629   3.10966   3.11579   3.12279
 Alpha virt. eigenvalues --    3.13257   3.14960   3.15186   3.15636   3.16298
 Alpha virt. eigenvalues --    3.17377   3.18459   3.18930   3.20606   3.20853
 Alpha virt. eigenvalues --    3.21317   3.22115   3.23649   3.24168   3.24679
 Alpha virt. eigenvalues --    3.25957   3.26287   3.27058   3.27948   3.28267
 Alpha virt. eigenvalues --    3.29524   3.30915   3.31749   3.32881   3.34480
 Alpha virt. eigenvalues --    3.35057   3.35481   3.36547   3.37348   3.37454
 Alpha virt. eigenvalues --    3.38422   3.38807   3.40764   3.41713   3.42000
 Alpha virt. eigenvalues --    3.42983   3.43438   3.43950   3.44527   3.44964
 Alpha virt. eigenvalues --    3.46159   3.46850   3.48712   3.49329   3.50427
 Alpha virt. eigenvalues --    3.51166   3.51595   3.53605   3.55352   3.57234
 Alpha virt. eigenvalues --    3.58397   3.59610   3.60252   3.62373   3.63570
 Alpha virt. eigenvalues --    3.66256   3.66578   3.68649   3.71846   3.72905
 Alpha virt. eigenvalues --    3.74684   3.75832   3.77293   3.80168   3.81161
 Alpha virt. eigenvalues --    3.82235   3.83788   3.86156   3.88104   3.89009
 Alpha virt. eigenvalues --    3.89235   3.91857   3.92447   3.95724   3.97455
 Alpha virt. eigenvalues --    3.97880   4.00571   4.03230   4.03819   4.05426
 Alpha virt. eigenvalues --    4.06359   4.07257   4.08545   4.08943   4.09161
 Alpha virt. eigenvalues --    4.09930   4.11993   4.12405   4.13957   4.15525
 Alpha virt. eigenvalues --    4.15807   4.19109   4.19689   4.20634   4.22591
 Alpha virt. eigenvalues --    4.24804   4.26048   4.27093   4.28048   4.32315
 Alpha virt. eigenvalues --    4.35143   4.37953   4.40735   4.41444   4.42294
 Alpha virt. eigenvalues --    4.45801   4.46599   4.46991   4.49741   4.51580
 Alpha virt. eigenvalues --    4.53588   4.56333   4.58821   4.66206   4.66764
 Alpha virt. eigenvalues --    4.68322   4.69534   4.72095   4.73638   4.76570
 Alpha virt. eigenvalues --    4.81295   4.83496   4.87879   4.94595   4.95852
 Alpha virt. eigenvalues --    5.03153   5.04307   5.05312   5.08072   5.09872
 Alpha virt. eigenvalues --    5.09936   5.11844   5.20304   5.21533   5.24258
 Alpha virt. eigenvalues --    5.26626   5.27328   5.29308   5.33208   5.38452
 Alpha virt. eigenvalues --    5.39347   5.46191   5.51271   5.54580   5.59630
 Alpha virt. eigenvalues --    5.60137   5.61177   5.73576   5.75272   5.75418
 Alpha virt. eigenvalues --    5.81194   5.88715   6.04967   6.09564   6.20060
 Alpha virt. eigenvalues --    6.22395   6.23015   6.33451   6.35734   6.36362
 Alpha virt. eigenvalues --    6.49261   6.51952   6.57465   6.63585   6.64743
 Alpha virt. eigenvalues --    6.70135   6.71444   6.78094   6.94667   6.97679
 Alpha virt. eigenvalues --    7.02527   7.16797   7.28496  21.77813  22.00253
 Alpha virt. eigenvalues --   22.06287  22.23199  22.34854  22.37431  22.41259
 Alpha virt. eigenvalues --   22.45801  22.52221  22.60357  22.71970  22.77368
 Alpha virt. eigenvalues --   22.86765  23.28745  43.35848  43.44990  43.76716
          Condensed to atoms (all electrons):
               1          2          3          4          5          6
     1  O    7.855687   0.430831  -0.077646   0.003808  -0.000157  -0.000008
     2  C    0.430831   5.134340   0.329202   0.100622   0.016134  -0.001072
     3  C   -0.077646   0.329202   5.252929   0.326950  -0.096966   0.003762
     4  C    0.003808   0.100622   0.326950   5.090562   0.358115   0.038793
     5  C   -0.000157   0.016134  -0.096966   0.358115   5.132391   0.429079
     6  C   -0.000008  -0.001072   0.003762   0.038793   0.429079   5.130406
     7  C   -0.000002   0.000057  -0.001217  -0.125501   0.065904   0.294005
     8  C    0.000023   0.001682   0.019699   0.065232  -0.142657   0.003728
     9  C   -0.003033  -0.173221   0.025990   0.228545   0.020337  -0.090585
    10  C   -0.111451  -0.127293   0.151619  -0.170990  -0.007848   0.000154
    11  C    0.000000  -0.000023  -0.000015  -0.003642   0.018719  -0.064609
    12  C   -0.000000   0.000001  -0.000012   0.000727  -0.001067   0.006398
    13  O   -0.000000  -0.000000   0.000006   0.000602  -0.000244  -0.000459
    14  O    0.000000   0.000000  -0.000002  -0.000053  -0.000027   0.003960
    15  C   -0.000000   0.000004  -0.000042  -0.000707   0.000292  -0.004430
    16  H    0.000000   0.000001   0.000009   0.001282  -0.000494   0.006486
    17  H   -0.000000   0.000000  -0.000006  -0.000084  -0.000340   0.004695
    18  H    0.000000   0.000001  -0.000002   0.000152  -0.000146   0.001723
    19  H   -0.000000  -0.000000   0.000001   0.000014  -0.000005  -0.000691
    20  H    0.000000  -0.000000   0.000000  -0.000029   0.000020  -0.000087
    21  H   -0.000018   0.000317  -0.002814  -0.077649   0.442496  -0.066333
    22  H   -0.000000   0.000036  -0.000715   0.015734  -0.067436   0.434162
    23  H   -0.000001  -0.000266   0.000284   0.012647  -0.004688   0.015272
    24  C    0.017818   0.277853  -0.159486   0.061066   0.020543   0.002754
    25  H   -0.011148  -0.087620   0.008154  -0.002138  -0.000093   0.000001
    26  H   -0.000106   0.006949  -0.000302   0.010063  -0.000507   0.000144
    27  H    0.011176  -0.100938   0.467497  -0.100210  -0.009721   0.000472
    28  C    0.257589  -0.091294   0.003908  -0.001377   0.000050  -0.000003
    29  H   -0.044642  -0.017175   0.001338  -0.000283  -0.000006  -0.000000
    30  H   -0.044641  -0.017675   0.001482  -0.000411  -0.000012  -0.000000
    31  H   -0.031725   0.006859  -0.000491   0.000148   0.000001   0.000000
               7          8          9         10         11         12
     1  O   -0.000002   0.000023  -0.003033  -0.111451   0.000000  -0.000000
     2  C    0.000057   0.001682  -0.173221  -0.127293  -0.000023   0.000001
     3  C   -0.001217   0.019699   0.025990   0.151619  -0.000015  -0.000012
     4  C   -0.125501   0.065232   0.228545  -0.170990  -0.003642   0.000727
     5  C    0.065904  -0.142657   0.020337  -0.007848   0.018719  -0.001067
     6  C    0.294005   0.003728  -0.090585   0.000154  -0.064609   0.006398
     7  C    5.250214   0.103034   0.212129  -0.001006   0.308055  -0.002490
     8  C    0.103034   6.069543  -0.112063   0.004659  -0.121782  -0.017221
     9  C    0.212129  -0.112063   5.398665   0.168200   0.018648   0.002796
    10  C   -0.001006   0.004659   0.168200   5.776449   0.000053  -0.000006
    11  C    0.308055  -0.121782   0.018648   0.000053   5.296100   0.255335
    12  C   -0.002490  -0.017221   0.002796  -0.000006   0.255335   4.553864
    13  O   -0.040036   0.031256  -0.009760   0.000001  -0.130008   0.365357
    14  O   -0.006237  -0.003562   0.000798  -0.000000  -0.110900   0.704663
    15  C   -0.044120  -0.013258   0.008335  -0.000008   0.222046  -0.015992
    16  H   -0.047918   0.020912  -0.003572  -0.000001   0.370654  -0.046617
    17  H   -0.004011  -0.003492   0.000099  -0.000001  -0.030242   0.007644
    18  H   -0.011161   0.004597  -0.000809  -0.000009  -0.022435  -0.012110
    19  H    0.014587   0.000644  -0.000153   0.000000  -0.051527   0.000516
    20  H    0.001197  -0.001130  -0.000148  -0.000000   0.022233  -0.019238
    21  H    0.015190  -0.003396   0.013715  -0.000247  -0.000677  -0.000019
    22  H   -0.072699   0.023085  -0.005003   0.000004  -0.013548  -0.000867
    23  H   -0.075143   0.462676  -0.095129   0.000839  -0.007294  -0.000775
    24  C    0.012778  -0.104453   0.240462   0.050027  -0.001349  -0.000326
    25  H    0.000074  -0.000954   0.015908   0.455091   0.000001   0.000000
    26  H    0.001577  -0.005396  -0.061710  -0.049255  -0.000089  -0.000002
    27  H   -0.000046  -0.000202   0.021278   0.035399  -0.000004  -0.000000
    28  C    0.000001  -0.000047   0.001627   0.002914  -0.000000   0.000000
    29  H    0.000000  -0.000010   0.000296   0.013953   0.000000   0.000000
    30  H    0.000000   0.000003   0.000449   0.014606   0.000000   0.000000
    31  H    0.000000   0.000000  -0.000081  -0.002822  -0.000000  -0.000000
              13         14         15         16         17         18
     1  O   -0.000000   0.000000  -0.000000   0.000000  -0.000000   0.000000
     2  C   -0.000000   0.000000   0.000004   0.000001   0.000000   0.000001
     3  C    0.000006  -0.000002  -0.000042   0.000009  -0.000006  -0.000002
     4  C    0.000602  -0.000053  -0.000707   0.001282  -0.000084   0.000152
     5  C   -0.000244  -0.000027   0.000292  -0.000494  -0.000340  -0.000146
     6  C   -0.000459   0.003960  -0.004430   0.006486   0.004695   0.001723
     7  C   -0.040036  -0.006237  -0.044120  -0.047918  -0.004011  -0.011161
     8  C    0.031256  -0.003562  -0.013258   0.020912  -0.003492   0.004597
     9  C   -0.009760   0.000798   0.008335  -0.003572   0.000099  -0.000809
    10  C    0.000001  -0.000000  -0.000008  -0.000001  -0.000001  -0.000009
    11  C   -0.130008  -0.110900   0.222046   0.370654  -0.030242  -0.022435
    12  C    0.365357   0.704663  -0.015992  -0.046617   0.007644  -0.012110
    13  O    7.948890  -0.105677   0.012958   0.005989   0.000176   0.004131
    14  O   -0.105677   7.752830   0.007156   0.014368  -0.000579   0.000039
    15  C    0.012958   0.007156   5.025179  -0.033308   0.388659   0.393008
    16  H    0.005989   0.014368  -0.033308   0.650338  -0.008887   0.006674
    17  H    0.000176  -0.000579   0.388659  -0.008887   0.586970  -0.023004
    18  H    0.004131   0.000039   0.393008   0.006674  -0.023004   0.566768
    19  H   -0.000355   0.000411   0.397106  -0.004632  -0.026732  -0.025193
    20  H    0.258519   0.010543  -0.002645  -0.001209   0.000133  -0.000225
    21  H    0.000000  -0.000004   0.000030  -0.000156   0.000004  -0.000001
    22  H    0.000019  -0.000300  -0.000422   0.010511   0.000195   0.000061
    23  H    0.017460   0.000221  -0.003642   0.000472   0.000202   0.005021
    24  C   -0.000282  -0.000001   0.000104   0.000017   0.000000  -0.000018
    25  H   -0.000000   0.000000  -0.000000   0.000000   0.000000   0.000000
    26  H   -0.000089   0.000000   0.000023  -0.000003   0.000002   0.000013
    27  H   -0.000000   0.000000  -0.000000  -0.000000   0.000000   0.000000
    28  C   -0.000000   0.000000   0.000000   0.000000  -0.000000  -0.000000
    29  H   -0.000000  -0.000000   0.000000   0.000000  -0.000000   0.000000
    30  H    0.000000   0.000000  -0.000000  -0.000000   0.000000  -0.000000
    31  H   -0.000000   0.000000  -0.000000   0.000000  -0.000000   0.000000
              19         20         21         22         23         24
     1  O   -0.000000   0.000000  -0.000018  -0.000000  -0.000001   0.017818
     2  C   -0.000000  -0.000000   0.000317   0.000036  -0.000266   0.277853
     3  C    0.000001   0.000000  -0.002814  -0.000715   0.000284  -0.159486
     4  C    0.000014  -0.000029  -0.077649   0.015734   0.012647   0.061066
     5  C   -0.000005   0.000020   0.442496  -0.067436  -0.004688   0.020543
     6  C   -0.000691  -0.000087  -0.066333   0.434162   0.015272   0.002754
     7  C    0.014587   0.001197   0.015190  -0.072699  -0.075143   0.012778
     8  C    0.000644  -0.001130  -0.003396   0.023085   0.462676  -0.104453
     9  C   -0.000153  -0.000148   0.013715  -0.005003  -0.095129   0.240462
    10  C    0.000000  -0.000000  -0.000247   0.000004   0.000839   0.050027
    11  C   -0.051527   0.022233  -0.000677  -0.013548  -0.007294  -0.001349
    12  C    0.000516  -0.019238  -0.000019  -0.000867  -0.000775  -0.000326
    13  O   -0.000355   0.258519   0.000000   0.000019   0.017460  -0.000282
    14  O    0.000411   0.010543  -0.000004  -0.000300   0.000221  -0.000001
    15  C    0.397106  -0.002645   0.000030  -0.000422  -0.003642   0.000104
    16  H   -0.004632  -0.001209  -0.000156   0.010511   0.000472   0.000017
    17  H   -0.026732   0.000133   0.000004   0.000195   0.000202   0.000000
    18  H   -0.025193  -0.000225  -0.000001   0.000061   0.005021  -0.000018
    19  H    0.587668  -0.000125  -0.000001  -0.000073  -0.000180  -0.000004
    20  H   -0.000125   0.432563   0.000000   0.000000  -0.000435   0.000032
    21  H   -0.000001   0.000000   0.599798  -0.010277   0.000093  -0.000131
    22  H   -0.000073   0.000000  -0.010277   0.600089  -0.000203   0.000064
    23  H   -0.000180  -0.000435   0.000093  -0.000203   0.576087  -0.002670
    24  C   -0.000004   0.000032  -0.000131   0.000064  -0.002670   5.441318
    25  H   -0.000000  -0.000000  -0.000007   0.000000  -0.000049  -0.057879
    26  H   -0.000001   0.000003   0.000037  -0.000007   0.007423   0.420985
    27  H    0.000000   0.000000   0.006503  -0.000064   0.000034  -0.012473
    28  C   -0.000000   0.000000   0.000000   0.000000   0.000001  -0.005909
    29  H   -0.000000  -0.000000  -0.000000   0.000000   0.000000  -0.002461
    30  H    0.000000   0.000000  -0.000000   0.000000   0.000000  -0.002719
    31  H   -0.000000  -0.000000  -0.000000  -0.000000  -0.000000   0.000522
              25         26         27         28         29         30
     1  O   -0.011148  -0.000106   0.011176   0.257589  -0.044642  -0.044641
     2  C   -0.087620   0.006949  -0.100938  -0.091294  -0.017175  -0.017675
     3  C    0.008154  -0.000302   0.467497   0.003908   0.001338   0.001482
     4  C   -0.002138   0.010063  -0.100210  -0.001377  -0.000283  -0.000411
     5  C   -0.000093  -0.000507  -0.009721   0.000050  -0.000006  -0.000012
     6  C    0.000001   0.000144   0.000472  -0.000003  -0.000000  -0.000000
     7  C    0.000074   0.001577  -0.000046   0.000001   0.000000   0.000000
     8  C   -0.000954  -0.005396  -0.000202  -0.000047  -0.000010   0.000003
     9  C    0.015908  -0.061710   0.021278   0.001627   0.000296   0.000449
    10  C    0.455091  -0.049255   0.035399   0.002914   0.013953   0.014606
    11  C    0.000001  -0.000089  -0.000004  -0.000000   0.000000   0.000000
    12  C    0.000000  -0.000002  -0.000000   0.000000   0.000000   0.000000
    13  O   -0.000000  -0.000089  -0.000000  -0.000000  -0.000000   0.000000
    14  O    0.000000   0.000000   0.000000   0.000000  -0.000000   0.000000
    15  C   -0.000000   0.000023  -0.000000   0.000000   0.000000  -0.000000
    16  H    0.000000  -0.000003  -0.000000   0.000000   0.000000  -0.000000
    17  H    0.000000   0.000002   0.000000  -0.000000  -0.000000   0.000000
    18  H    0.000000   0.000013   0.000000  -0.000000   0.000000  -0.000000
    19  H   -0.000000  -0.000001   0.000000  -0.000000  -0.000000   0.000000
    20  H   -0.000000   0.000003   0.000000   0.000000  -0.000000   0.000000
    21  H   -0.000007   0.000037   0.006503   0.000000  -0.000000  -0.000000
    22  H    0.000000  -0.000007  -0.000064   0.000000   0.000000   0.000000
    23  H   -0.000049   0.007423   0.000034   0.000001   0.000000   0.000000
    24  C   -0.057879   0.420985  -0.012473  -0.005909  -0.002461  -0.002719
    25  H    0.572641  -0.007874   0.000068   0.010224   0.003813   0.003752
    26  H   -0.007874   0.590847   0.000100  -0.000210  -0.000020  -0.000031
    27  H    0.000068   0.000100   0.604168  -0.000789   0.000213   0.000219
    28  C    0.010224  -0.000210  -0.000789   4.809249   0.399632   0.399274
    29  H    0.003813  -0.000020   0.000213   0.399632   0.621570  -0.065150
    30  H    0.003752  -0.000031   0.000219   0.399274  -0.065150   0.622463
    31  H   -0.000690   0.000002  -0.000299   0.395541  -0.025148  -0.025286
              31
     1  O   -0.031725
     2  C    0.006859
     3  C   -0.000491
     4  C    0.000148
     5  C    0.000001
     6  C    0.000000
     7  C    0.000000
     8  C    0.000000
     9  C   -0.000081
    10  C   -0.002822
    11  C   -0.000000
    12  C   -0.000000
    13  O   -0.000000
    14  O    0.000000
    15  C   -0.000000
    16  H    0.000000
    17  H   -0.000000
    18  H    0.000000
    19  H   -0.000000
    20  H   -0.000000
    21  H   -0.000000
    22  H   -0.000000
    23  H   -0.000000
    24  C    0.000522
    25  H   -0.000690
    26  H    0.000002
    27  H   -0.000299
    28  C    0.395541
    29  H   -0.025148
    30  H   -0.025286
    31  H    0.554505
 Mulliken charges:
               1
     1  O   -0.252353
     2  C    0.311687
     3  C   -0.253114
     4  C    0.168015
     5  C   -0.171668
     6  C   -0.147715
     7  C    0.152784
     8  C   -0.281149
     9  C    0.176991
    10  C   -0.203028
    11  C    0.046303
    12  C    0.219439
    13  O   -0.358453
    14  O   -0.267646
    15  C   -0.336326
    16  H    0.059083
    17  H    0.108598
    18  H    0.112923
    19  H    0.108724
    20  H    0.300028
    21  H    0.083547
    22  H    0.087655
    23  H    0.091742
    24  C   -0.196182
    25  H    0.098725
    26  H    0.087432
    27  H    0.077621
    28  C   -0.180381
    29  H    0.114081
    30  H    0.113678
    31  H    0.128961
 Sum of Mulliken charges =  -0.00000
 Mulliken charges with hydrogens summed into heavy atoms:
               1
     1  O   -0.252353
     2  C    0.311687
     3  C   -0.175494
     4  C    0.168015
     5  C   -0.088121
     6  C   -0.060060
     7  C    0.152784
     8  C   -0.189406
     9  C    0.176991
    10  C   -0.104304
    11  C    0.105386
    12  C    0.219439
    13  O   -0.058425
    14  O   -0.267646
    15  C   -0.006080
    24  C   -0.108750
    28  C    0.176338
 APT charges:
               1
     1  O   -0.963194
     2  C    0.674139
     3  C   -0.207087
     4  C    0.112456
     5  C   -0.034813
     6  C   -0.030544
     7  C   -0.017544
     8  C    0.010198
     9  C   -0.095337
    10  C   -0.174535
    11  C    0.042788
    12  C    0.989990
    13  O   -0.601231
    14  O   -0.688544
    15  C    0.045690
    16  H   -0.022017
    17  H   -0.005480
    18  H    0.009871
    19  H   -0.037186
    20  H    0.252314
    21  H    0.015566
    22  H    0.024650
    23  H    0.039158
    24  C    0.090049
    25  H    0.042301
    26  H    0.021512
    27  H    0.039162
    28  C    0.571417
    29  H   -0.045793
    30  H   -0.046324
    31  H   -0.011633
 Sum of APT charges =  -0.00000
 APT charges with hydrogens summed into heavy atoms:
               1
     1  O   -0.963194
     2  C    0.674139
     3  C   -0.167925
     4  C    0.112456
     5  C   -0.019246
     6  C   -0.005894
     7  C   -0.017544
     8  C    0.049356
     9  C   -0.095337
    10  C   -0.132234
    11  C    0.020770
    12  C    0.989990
    13  O   -0.348917
    14  O   -0.688544
    15  C    0.012894
    24  C    0.111561
    28  C    0.467667
 Electronic spatial extent (au):  <R**2>=           8671.5517
 Charge=             -0.0000 electrons
 Dipole moment (field-independent basis, Debye):
    X=             -1.4080    Y=             -2.5697    Z=             -1.3795  Tot=              3.2386
 Quadrupole moment (field-independent basis, Debye-Ang):
   XX=            -99.7299   YY=            -92.3102   ZZ=           -104.7290
   XY=             -4.9844   XZ=             -7.6214   YZ=             -3.8650
 Traceless Quadrupole moment (field-independent basis, Debye-Ang):
   XX=             -0.8068   YY=              6.6129   ZZ=             -5.8060
   XY=             -4.9844   XZ=             -7.6214   YZ=             -3.8650
 Octapole moment (field-independent basis, Debye-Ang**2):
  XXX=           -798.1700  YYY=            -59.0108  ZZZ=            148.0657  XYY=           -268.3351
  XXY=            -96.6282  XXZ=             -4.0747  XZZ=           -268.4536  YZZ=            -28.8965
  YYZ=             37.2575  XYZ=            -40.5946
 Hexadecapole moment (field-independent basis, Debye-Ang**3):
 XXXX=          -9648.8148 YYYY=          -1200.3156 ZZZZ=           -620.9757 XXXY=          -1257.8569
 XXXZ=            -38.5983 YYYX=           -793.5971 YYYZ=            -15.7894 ZZZX=            244.1508
 ZZZY=            -29.2133 XXYY=          -1834.3811 XXZZ=          -1756.0679 YYZZ=           -328.0537
 XXYZ=           -266.6387 YYXZ=             43.0802 ZZXY=           -327.7968
 N-N= 1.121019519291D+03 E-N=-4.033224258627D+03  KE= 7.646777717069D+02
  Exact polarizability: 275.240  42.943 191.239   1.290   7.071 117.221
 Approx polarizability: 489.798  70.726 422.403  -1.585  27.461 211.383
 No NMR shielding tensors so no spin-rotation constants.
 Leave Link  601 at Sat Mar 16 16:57:38 2019, MaxMem=   104857600 cpu:              12.3 elap:               1.0
 (Enter /util/academic/gaussian/g16.A03/x86-64-SSE4_2/g16/l701.exe)
 ... and contract with generalized density number  0.
 Compute integral second derivatives.
 PrsmSu:  requested number of processors reduced to:  12 ShMem   1 Linda.
 PrsmSu:  requested number of processors reduced to:  12 ShMem   1 Linda.
   1 Symmetry operations used in ECPInt.
 ECPInt:  NShTT=   29646 NPrTT=   90516 LenC2=   25774 LenP2D=   57396.
 LDataN:  DoStor=T MaxTD1= 8 Len=  415
 Number of processors reduced to  13 by ecpmxn.
 Leave Link  701 at Sat Mar 16 16:57:39 2019, MaxMem=   104857600 cpu:               8.5 elap:               0.8
 (Enter /util/academic/gaussian/g16.A03/x86-64-SSE4_2/g16/l702.exe)
 L702 exits ... SP integral derivatives will be done elsewhere.
 Leave Link  702 at Sat Mar 16 16:57:39 2019, MaxMem=   104857600 cpu:               0.8 elap:               0.1
 (Enter /util/academic/gaussian/g16.A03/x86-64-SSE4_2/g16/l703.exe)
 Integral derivatives from FoFJK, PRISM(SPDF).
 Compute integral second derivatives, UseDBF=F ICtDFT=           0.
 Calling FoFJK, ICntrl=    100527 FMM=F ISym2X=0 I1Cent= 0 IOpClX= 0 NMat=1 NMatS=1 NMatT=0.
 FoFJK:  IHMeth= 1 ICntrl=  100527 DoSepK=F KAlg= 0 I1Cent=           0 FoldK=F
 IRaf=         0 NMat=       1 IRICut=       1 DoRegI=T DoRafI=F ISym2E= 0 IDoP0=0 IntGTp=1.
 FoFCou: FMM=F IPFlag=           0 FMFlag=      100000 FMFlg1=         800
         NFxFlg=           0 DoJE=F BraDBF=F KetDBF=F FulRan=T
         wScrn=  0.000000 ICntrl=    100527 IOpCl=  0 I1Cent=           0 NGrid=           0
         NMat0=    1 NMatS0=      1 NMatT0=    0 NMatD0=    1 NMtDS0=    0 NMtDT0=    0
 Symmetry not used in FoFCou.
 CoulSu:  requested number of processors reduced to:  13 ShMem   1 Linda.
 Leave Link  703 at Sat Mar 16 17:11:37 2019, MaxMem=   104857600 cpu:           11904.5 elap:             838.3
 (Enter /util/academic/gaussian/g16.A03/x86-64-SSE4_2/g16/l716.exe)
 Dipole        =-5.53963609D-01-1.01099380D+00-5.42729405D-01
 Polarizability= 2.75240354D+02 4.29434686D+01 1.91239100D+02
                 1.29031017D+00 7.07054291D+00 1.17220705D+02
 Full mass-weighted force constant matrix:
 Low frequencies ---   -4.0912   -2.4688   -0.0008   -0.0006    0.0003    1.3839
 Low frequencies ---   18.2795   38.3911   48.8914
 Diagonal vibrational polarizability:
       40.2488135      24.7717372      32.1531079
 Harmonic frequencies (cm**-1), IR intensities (KM/Mole), Raman scattering
 activities (A**4/AMU), depolarization ratios for plane and unpolarized
 incident light, reduced masses (AMU), force constants (mDyne/A),
 and normal coordinates:
                      1                      2                      3
                      A                      A                      A
 Frequencies --     18.2370                38.3898                48.8911
 Red. masses --      4.5352                 7.1499                 6.1358
 Frc consts  --      0.0009                 0.0062                 0.0086
 IR Inten    --      0.1837                 0.5943                 1.0833
  Atom  AN      X      Y      Z        X      Y      Z        X      Y      Z
     1   8    -0.00   0.01   0.07    -0.04  -0.00  -0.14    -0.02   0.04  -0.03
     2   6    -0.00   0.00   0.02    -0.03  -0.01  -0.02    -0.01   0.01   0.03
     3   6     0.02  -0.02   0.11    -0.03  -0.01  -0.00     0.01   0.00   0.06
     4   6     0.01  -0.02   0.07    -0.03  -0.02   0.08     0.01  -0.02   0.09
     5   6     0.03  -0.04   0.16    -0.03  -0.01   0.06     0.02  -0.02   0.08
     6   6     0.03  -0.05   0.11    -0.03  -0.01   0.07     0.02  -0.03   0.04
     7   6     0.01  -0.04  -0.04    -0.02  -0.01   0.10     0.00  -0.04   0.02
     8   6    -0.01  -0.02  -0.13    -0.02  -0.02   0.16    -0.00  -0.04   0.07
     9   6    -0.01  -0.02  -0.09    -0.02  -0.02   0.14    -0.00  -0.03   0.10
    10   6    -0.03   0.01  -0.14    -0.02  -0.02   0.07    -0.02  -0.00   0.07
    11   6     0.01  -0.05  -0.07    -0.03   0.01   0.01     0.00  -0.04  -0.07
    12   6    -0.00   0.09   0.00     0.12   0.04  -0.06     0.02   0.04  -0.05
    13   8    -0.06   0.07   0.17    -0.09   0.00   0.04     0.36   0.10  -0.12
    14   8     0.02   0.20  -0.08     0.41   0.09  -0.20    -0.26   0.06   0.04
    15   6     0.03  -0.19   0.00    -0.12   0.00  -0.03    -0.07  -0.12  -0.07
    16   1     0.01  -0.04  -0.18    -0.05   0.01  -0.02    -0.01  -0.04  -0.14
    17   1     0.04  -0.29  -0.06    -0.20  -0.02  -0.00    -0.11  -0.17  -0.07
    18   1     0.06  -0.20   0.12    -0.10  -0.00  -0.00    -0.07  -0.12  -0.00
    19   1     0.03  -0.17  -0.00    -0.13   0.03  -0.12    -0.07  -0.12  -0.14
    20   1    -0.07   0.16   0.20     0.06   0.03  -0.02     0.32   0.14  -0.08
    21   1     0.05  -0.05   0.28    -0.03  -0.01   0.02     0.03  -0.02   0.08
    22   1     0.05  -0.06   0.18    -0.04  -0.01   0.03     0.03  -0.03   0.01
    23   1    -0.03  -0.02  -0.24    -0.01  -0.02   0.19    -0.01  -0.04   0.06
    24   6    -0.03   0.00  -0.19    -0.02  -0.03   0.16    -0.02  -0.02   0.10
    25   1    -0.04   0.02  -0.22    -0.02  -0.02   0.07    -0.04   0.00   0.06
    26   1    -0.04   0.01  -0.30    -0.01  -0.03   0.22    -0.03  -0.03   0.12
    27   1     0.03  -0.02   0.23    -0.04  -0.01  -0.07     0.01   0.01   0.04
    28   6    -0.02   0.03  -0.03    -0.04   0.01  -0.27    -0.05   0.07  -0.24
    29   1     0.01  -0.06  -0.11    -0.16  -0.03  -0.26    -0.16  -0.03  -0.27
    30   1    -0.07   0.12  -0.09     0.07   0.05  -0.27     0.04   0.17  -0.27
    31   1    -0.01   0.03   0.04    -0.05   0.02  -0.40    -0.05   0.10  -0.33
                      4                      5                      6
                      A                      A                      A
 Frequencies --     75.5387               111.0542               134.4256
 Red. masses --      3.9240                 4.8404                 3.8313
 Frc consts  --      0.0132                 0.0352                 0.0408
 IR Inten    --      2.0015                 0.6638                 0.6323
  Atom  AN      X      Y      Z        X      Y      Z        X      Y      Z
     1   8    -0.04   0.03  -0.19    -0.04   0.02   0.24    -0.02   0.09  -0.13
     2   6    -0.04   0.01  -0.13    -0.05  -0.01   0.04    -0.00  -0.02   0.01
     3   6    -0.02   0.01  -0.09    -0.03  -0.02  -0.05     0.05  -0.05   0.05
     4   6    -0.02  -0.01  -0.02    -0.03  -0.05  -0.11     0.04  -0.09   0.06
     5   6    -0.01  -0.02   0.05    -0.03  -0.05  -0.15     0.04  -0.09   0.08
     6   6    -0.01  -0.03   0.10    -0.02  -0.06  -0.08     0.02  -0.08   0.01
     7   6    -0.01  -0.03   0.09    -0.01  -0.07   0.02     0.02  -0.07  -0.08
     8   6    -0.02  -0.03   0.05    -0.02  -0.07  -0.01     0.03  -0.08  -0.08
     9   6    -0.02  -0.02  -0.00    -0.03  -0.06  -0.09     0.03  -0.09   0.01
    10   6    -0.04   0.01  -0.11    -0.08  -0.02  -0.04    -0.03  -0.05   0.08
    11   6    -0.01  -0.02   0.04    -0.01   0.01   0.10     0.01   0.04  -0.04
    12   6     0.07   0.02   0.01     0.09   0.03   0.06    -0.04   0.04  -0.02
[...]
 .00000182,-0.00002723,0.00005961,0.00000580,0.00001781,-0.00001427,-0.
 00000441,0.00000065,-0.00003872,0.00001026,0.00001262,0.00000561,0.000
 00812,-0.00000426,0.00001150,0.00000224,0.00000411,-0.00000066,-0.0000
 0066,-0.00000453,0.00000629,0.00000025,-0.00000653,-0.00000314,-0.0000
 0866,-0.00000471,0.00000170,0.00000346,0.00000266,0.00005209,-0.000001
 00,0.00000164,0.00000012,0.00001193,-0.00002261,0.00018958,0.00062512,
 0.00183255,0.00125747,0.00615497,0.02379399,0.02310962,-0.00150012,0.0
 0133369,0.00024529,-0.00388546,-0.00299826,0.00048555,-0.00028076,-0.0
 0046794,-0.00008510,-0.00048965,-0.00229973,0.00008037,0.00024452,-0.0
 0056064,-0.00005962,0.00036170,-0.00013440,-0.00006613,0.00003737,0.00
 052249,0.00004973,0.00101674,-0.00132613,-0.00038101,0.00931392,-0.009
 53038,-0.00154712,-0.01513327,0.02532905,0.00397438,-0.00001534,0.0000
 0247,0.00001874,-0.00003422,-0.00000620,-0.00010233,0.00002275,-0.0000
 1124,0.00002133,0.00002071,0.00001465,0.00006796,0.00000711,-0.0000084
 4,0.00001212,0.00001671,0.00000759,0.00000107,-0.00000373,0.00000792,-
 0.00000150,-0.00001173,-0.00000184,0.00001064,0.00001326,0.00000303,-0
 .00000720,-0.00000278,0.00001254,-0.00000340,-0.00006088,-0.00018249,-
 0.00000569,-0.00000670,0.00002419,0.00001237,0.00003420,0.00047142,0.0
 0005048,-0.14329706,0.12082419,0.02112753,0.00108256,-0.00012346,-0.00
 037873,0.15222111,-0.00018935,0.00020024,0.00003980,-0.00144817,0.0014
 5895,-0.00063305,-0.00080646,0.00006917,0.00015476,-0.00400384,-0.0031
 5786,-0.00058928,0.00147789,-0.00069205,-0.00018371,0.00001600,0.00009
 372,0.00001584,-0.00034936,0.00011187,0.00004261,0.00194471,0.00119531
 ,0.00033025,0.01789378,-0.01888295,-0.00359119,-0.00356186,0.00563608,
 0.00063734,-0.00000983,-0.00002053,-0.00003185,0.00003837,-0.00025417,
 0.00003855,-0.00000085,0.00018304,-0.00003035,-0.00000939,0.00008875,0
 .00001484,-0.00001276,-0.00004448,-0.00001651,0.00000327,0.00001310,0.
 00000605,0.00000266,-0.00000300,-0.00000473,-0.00002214,0.00001764,0.0
 0000731,-0.00000660,0.00001754,0.00001479,-0.00001933,-0.00001433,-0.0
 0000535,-0.00020467,-0.00045152,-0.00006290,-0.00007616,0.00003137,0.0
 0000635,-0.00116197,0.00027920,0.00006401,0.12138458,-0.22227538,-0.02
 952899,0.00031833,0.00092782,0.00056143,-0.13131851,0.23554703,0.00009
 577,-0.00005083,-0.00006710,0.00062941,-0.00055636,0.00796900,-0.00006
 080,0.00018974,-0.00082542,-0.00011829,-0.00073171,0.00462326,0.000164
 06,-0.00006218,0.00008104,-0.00005266,0.00005096,-0.00011239,-0.000049
 65,0.00000954,-0.00014644,-0.00005633,0.00050895,-0.00268202,0.0015072
 9,-0.00171541,0.00203944,0.00080339,-0.00136735,0.00180910,0.00001565,
 -0.00003754,0.00014350,0.00006753,-0.00013031,0.00004326,0.00000810,0.
 00011487,-0.00006271,-0.00001423,0.00005279,-0.00000444,-0.00002902,0.
 00000610,0.00001175,-0.00000603,-0.00000012,-0.00000104,0.00000060,0.0
 0001331,-0.00001431,0.00001343,-0.00000386,0.00001615,-0.00000303,-0.0
 0000199,0.00000091,-0.00004227,-0.00003401,0.00001311,0.00000085,-0.00
 006483,0.00019495,-0.00000480,-0.00000814,0.00004794,-0.00012113,-0.00
 002876,0.00023374,0.02115633,-0.02945403,-0.03581513,-0.00032995,0.000
 59530,-0.00420441,-0.02348518,0.03266822,0.02752850,0.00083913,0.00019
 773,-0.00026730,0.00931613,-0.00941281,-0.00133404,-0.14956976,0.12528
 172,0.02220646,-0.01419664,0.02396023,0.00378412,0.00150886,0.00179182
 ,-0.00008611,0.00004013,-0.00029147,-0.00007131,0.00012818,0.00000486,
 -0.00001548,-0.00024219,0.00157655,0.00021088,-0.00406711,-0.00282422,
 0.00030506,-0.00059955,-0.00218626,0.00011994,0.00002245,-0.00004317,0
 .00000004,0.00003334,0.00004878,0.00009050,-0.00002359,-0.00002313,-0.
 00001933,-0.00001603,-0.00003444,-0.00007032,-0.00001078,0.00000300,-0
 .00000937,-0.00003045,-0.00001432,-0.00000069,0.00000308,-0.00000273,0
 .00000226,0.00001312,-0.00001020,-0.00000905,-0.00001221,-0.00000383,0
 .00000460,0.00000157,-0.00000601,0.00000200,0.00003489,-0.00109774,-0.
 00011743,-0.00002669,-0.00001951,0.00001990,-0.00046078,-0.00005202,0.
 00004655,-0.00042750,-0.00058210,-0.00005598,0.00035207,-0.00066743,-0
 .00007963,0.00000421,0.00013871,-0.00004807,0.15723216,0.00112341,0.00
 199435,0.00052670,0.02002821,-0.01880355,-0.00407404,0.12323758,-0.218
 10056,-0.02949030,-0.00235737,0.00577957,0.00058092,-0.00134823,0.0007
 8021,0.00052739,0.00052680,0.00002175,-0.00000329,-0.00012763,0.000372
 97,0.00007017,-0.00038040,-0.00000569,-0.00001288,-0.00153392,0.001087
 04,-0.00033612,-0.00379893,-0.00370873,-0.00069520,0.00001294,-0.00001
 238,0.00000289,-0.00003153,0.00002809,-0.00007807,0.00001365,-0.000020
 43,0.00001384,0.00001903,-0.00000044,0.00004909,0.00000659,0.00000075,
 0.00001149,-0.00000218,0.00000130,0.00000087,-0.00000413,0.00000084,0.
 00000230,-0.00000138,-0.00000219,-0.00000268,0.00001056,-0.00000332,-0
 .00000539,-0.00000518,0.00000310,-0.00000201,0.00044825,0.00021393,-0.
 00003145,0.00004627,0.00001092,-0.00002950,-0.00006542,-0.00001261,-0.
 00001629,-0.00079728,0.00016200,0.00011911,0.00097226,-0.00092794,-0.0
 0019318,0.00009549,-0.00003338,0.00008701,-0.13588781,0.23078640,-0.00
 016990,0.00058780,-0.00332857,0.00195725,-0.00203328,0.00493650,0.0219
 9025,-0.02966084,-0.03521720,0.00085302,-0.00119162,0.00180744,-0.0004
 8000,0.00030383,-0.00301318,0.00004653,0.00005141,-0.00027519,-0.00003
 463,0.00007621,-0.00013682,-0.00001985,-0.00016199,0.00032430,0.000450
 06,-0.00024533,0.00491400,-0.00003050,-0.00081253,0.00473657,0.0000010
 6,0.00000165,0.00003646,0.00001503,0.00000084,0.00001387,0.00001594,-0
 .00000370,0.00000032,0.00000219,0.00000041,-0.00001510,-0.00001497,0.0
 0000152,0.00001326,0.00000346,0.00000105,-0.00000103,-0.00000029,0.000
 00317,-0.00000537,-0.00000166,-0.00000584,-0.00000022,-0.00000377,-0.0
 0000438,0.00000059,-0.00000524,0.00000196,0.00000221,0.00006542,0.0000
 7022,0.00023505,0.00002243,-0.00002957,0.00023986,0.00003798,-0.000012
 36,0.00018119,-0.00009843,0.00010873,-0.00040948,0.00009916,-0.0000787
 8,0.00020311,-0.00005057,0.00008258,-0.00085418,-0.02456159,0.03282944
 ,0.02639237,-0.09073893,-0.01697182,0.00067486,-0.03400714,-0.03931800
 ,-0.00241907,-0.00223884,0.00403862,0.00077100,-0.00111273,-0.00167796
 ,0.00001857,0.00002521,0.00029551,0.00006847,-0.00006597,-0.00018829,-
 0.00006576,0.00027479,0.00018361,0.00002470,-0.00040738,-0.00008248,0.
 00001439,0.00075120,-0.00002949,-0.00004819,0.00041383,-0.00003809,-0.
 00015056,-0.00003057,-0.00013235,0.00001194,-0.00019500,0.00019719,-0.
 00047503,0.00012244,-0.00017279,0.00009553,0.00012658,0.00000774,0.000
 29793,0.00007288,0.00004916,0.00006866,0.00001753,0.00001727,-0.000002
 09,-0.00003035,0.00000124,0.00000892,-0.00002266,-0.00000482,0.0000011
 8,0.00008328,-0.00001272,-0.00004062,-0.00004428,0.00003644,-0.0000016
 2,-0.00002233,-0.00000112,-0.00001255,0.00000142,0.00004513,0.00002537
 ,0.00002204,-0.00004355,-0.00000860,-0.00005614,-0.00177829,-0.0001429
 5,-0.00210626,-0.00118719,0.00003930,0.00036453,-0.00000104,-0.0000424
 4,0.00012218,-0.00032842,-0.00009995,0.55056694,-0.04587163,-0.1697675
 1,-0.00958874,-0.01920529,-0.00435118,0.00156169,0.00408006,0.00238235
 ,-0.00024215,-0.00099847,0.00011601,-0.00019279,0.00048815,-0.00013276
 ,0.00000492,0.00028268,-0.00029792,-0.00003029,0.00042642,0.00058144,0
 .00007895,-0.00080577,-0.00019425,0.00008179,0.00131624,0.00066619,-0.
 00006050,0.00779040,0.00403772,0.00003790,-0.00002105,-0.00025849,0.00
 001338,-0.00038493,0.00047159,-0.00092421,0.00023296,-0.00040339,0.000
 20160,0.00023802,-0.00002445,0.00056171,0.00014978,0.00010510,0.000141
 41,0.00002954,0.00002671,-0.00000588,-0.00005690,0.00000598,0.00001949
 ,-0.00004103,-0.00001607,-0.00000023,0.00015681,-0.00002800,-0.0000856
 2,-0.00006586,0.00008411,-0.00000743,-0.00006697,0.00000462,-0.0000218
 8,0.00009856,0.00009954,0.00001620,0.00008795,-0.00009948,-0.00001759,
 -0.00044683,-0.00214890,-0.00019949,0.00112388,-0.00079701,-0.00018555
 ,0.00053907,-0.00004971,-0.00005185,0.00002594,0.00011922,0.00010163,-
 0.06929760,0.42723401,-0.00242626,-0.01150087,-0.05441133,-0.00023547,
 0.00290719,-0.00636072,0.00071330,-0.00027892,0.00211744,0.00012017,-0
 .00013110,0.00233098,0.00003944,-0.00001576,-0.00015453,0.00002630,0.0
 0001041,-0.00028261,0.00001746,0.00004758,-0.00000358,-0.00005801,0.00
 002911,-0.00027997,0.00010646,0.00003116,0.00024970,0.00069493,0.00062
 728,-0.00136828,0.00000679,-0.00002929,0.00006563,0.00000098,0.0000317
 9,-0.00002646,0.00001879,-0.00002012,-0.00000276,0.00001063,-0.0000030
 1,0.00001125,0.00000308,0.00001262,0.00001371,0.00000193,-0.00000265,-
 0.00000109,-0.00000463,0.00000595,-0.00000440,-0.00000030,-0.00000441,
 0.00000541,0.00001069,-0.00000146,-0.00000516,-0.00001730,0.00000114,0
 .00000630,-0.00000305,-0.00000285,0.00005848,0.00001142,0.00000451,0.0
 0003879,0.00000870,-0.00001127,0.00001219,-0.00001035,-0.00014121,0.00
 020097,0.00028692,-0.00003720,0.00021631,0.00003361,-0.00000111,-0.000
 04030,-0.00005839,0.00013079,-0.00078783,-0.00864648,-0.00685919,0.533
 60494,0.00327614,-0.01529510,0.01232020,0.00370243,-0.00020880,0.00154
 093,-0.00088114,-0.00067003,-0.00041608,0.00062644,0.00008002,-0.00031
 920,-0.00022650,-0.00023347,0.00001829,0.00028909,-0.00012801,-0.00000
 223,-0.00002723,0.00029232,0.00003995,-0.00023468,-0.00013235,0.000108
 89,0.00018748,0.00057106,-0.00000610,0.00038621,0.00071395,0.00025754,
 -0.00000541,-0.00000257,-0.00001705,-0.00001967,0.00001179,-0.00004173
 ,0.00000999,-0.00001164,0.00000986,0.00001201,-0.00000002,0.00002450,0
 .00000823,0.00000324,0.00000669,0.00000079,0.00000118,-0.00000050,-0.0
 0000234,0.00000031,0.00000167,-0.00000137,-0.00000110,-0.00000139,0.00
 000628,-0.00000204,-0.00000416,-0.00000278,0.00000222,-0.00000038,-0.0
 0000583,0.00000436,-0.00000584,0.00000699,0.00000245,-0.00000516,0.000
 00019,-0.00000708,-0.00000020,-0.00073976,-0.00033239,-0.00040600,-0.0
 0116885,-0.00035746,0.00104377,0.00000264,-0.00001605,0.00005318,0.000
 01735,0.00005818,0.00014230,-0.07378998,0.04641123,-0.05954340,0.07342
 309,-0.00385507,-0.03364870,0.01854380,0.00708771,0.00086435,0.0001061
 0,-0.00149274,-0.00081670,-0.00032833,0.00068215,0.00011917,-0.0004158
 7,-0.00022451,-0.00011061,0.00005041,0.00009831,-0.00000012,-0.0000067
 9,-0.00011752,0.00002143,-0.00000420,0.00006507,-0.00000179,0.00002029
 ,-0.00026156,0.00016298,0.00010614,-0.00060809,0.00038017,-0.00012998,
 0.00000028,0.00004780,-0.00000414,0.00007534,-0.00007932,0.00018197,-0
 .00004046,0.00007282,-0.00004025,-0.00004493,-0.00000173,-0.00011496,-
 0.00002868,-0.00001914,-0.00002456,-0.00000584,-0.00000591,0.00000157,
 0.00001040,-0.00000042,-0.00000373,0.00000825,0.00000159,0.00000028,-0
 .00002876,0.00000488,0.00001596,0.00000889,-0.00001443,0.00000394,0.00
 001221,0.00000494,-0.00000574,-0.00001739,-0.00002026,0.00000274,-0.00
 001972,0.00001584,0.00000345,-0.00022405,0.00014296,-0.00002171,-0.000
 16175,0.00044276,0.00020773,-0.00007946,0.00001257,-0.00000069,0.00006
 487,0.00013658,0.00024776,0.04316202,-0.12143765,0.10050400,-0.0444182
 7,0.14607701,0.00517133,0.00025097,0.00811051,-0.00139355,0.00007987,0
 .00083721,0.00047158,0.00006529,-0.00027884,-0.00020893,-0.00002651,-0
 .00003179,0.00005754,0.00002698,-0.00001690,-0.00002622,-0.00004238,0.
 00003968,0.00004079,0.00001539,0.00000585,-0.00004292,-0.00007331,0.00
 001217,-0.00001017,0.00005909,-0.00006364,-0.00002691,0.00115754,0.000
 21311,0.00000093,-0.00001793,-0.00000776,-0.00001694,0.00003848,-0.000
 03349,0.00000566,-0.00003352,0.00001112,0.00000860,-0.00000706,0.00001
 937,0.00000788,0.00000853,0.00000356,-0.00000142,-0.00000019,-0.000000
 78,-0.00000138,-0.00000105,0.00000174,-0.00000091,-0.00000121,-0.00000
 159,0.00000497,-0.00000239,-0.00000399,0.00000222,0.00000605,-0.000001
 43,-0.00000203,-0.00001335,0.00000111,0.00000248,0.00000410,-0.0000137
 7,0.00001352,0.00000017,-0.00000134,0.00006944,-0.00052034,-0.00005846
 ,0.00021381,-0.00065971,-0.00029030,0.00003320,0.00001253,0.00001647,-
 0.00002283,-0.00006777,0.00001428,-0.05754488,0.10258458,-0.18485980,0
 .06210824,-0.11534001,0.19320653,0.00070536,-0.01279988,-0.01471694,0.
 00374147,0.00015965,-0.00193338,-0.00091409,-0.00076510,0.00034817,0.0
 0069353,0.00002300,0.00023455,-0.00023946,-0.00023021,-0.00003306,0.00
 028824,-0.00011332,-0.00007036,-0.00003996,0.00028640,0.00003595,-0.00
 023443,-0.00009597,-0.00009659,0.00018741,0.00054572,0.00009292,0.0003
 3985,0.00060634,-0.00015089,0.00000499,-0.00000707,0.00002253,-0.00000
 827,0.00001512,-0.00003339,0.00000795,-0.00001020,0.00000646,0.0000087
 3,-0.00000107,0.00001926,0.00000039,0.00000025,0.00000599,-0.00000035,
 -0.00000046,0.00000129,-0.00000267,0.00000038,0.00000022,-0.00000106,-
 0.00000069,-0.00000118,0.00000488,-0.00000031,-0.00000159,-0.00000349,
 0.00000179,0.00000065,-0.00000461,0.00000572,0.00000478,0.00000643,0.0
 0000055,0.00000543,-0.00000243,-0.00000654,-0.00000324,-0.00068173,-0.
 00034764,0.00043071,-0.00135968,-0.00002917,-0.00094238,-0.00001040,-0
 .00000568,-0.00005365,0.00000324,0.00009996,-0.00012598,-0.05920157,0.
 02157323,0.04656225,0.00248350,-0.00284155,-0.00978484,0.05811970,-0.0
 0578435,-0.02796363,-0.02610668,0.00658385,0.00097308,-0.00101945,-0.0
 0131588,-0.00087586,0.00039356,0.00068002,0.00002653,0.00032957,-0.000
 21526,-0.00010008,-0.00001471,0.00009086,-0.00000452,-0.00005419,-0.00
 010740,0.00002565,0.00001434,0.00004547,-0.00001253,-0.00003388,-0.000
 26316,0.00019223,-0.00000815,-0.00056235,0.00059385,0.00028430,0.00000
 707,0.00004254,0.00000072,0.00006322,-0.00006760,0.00015108,-0.0000394
 4,0.00005943,-0.00003055,-0.00004030,-0.00000245,-0.00009442,-0.000026
 21,-0.00001563,-0.00002517,-0.00000631,-0.00000632,0.00000082,0.000009
 50,-0.00000235,-0.00000180,0.00000690,0.00000244,-0.00000085,-0.000026
 70,0.00000507,0.00001526,0.00001274,-0.00001189,0.00000165,0.00001234,
 0.00000101,0.00000123,-0.00001670,-0.00002004,0.00000542,-0.00001690,0
 .00001621,-0.00000219,-0.00020615,0.00001085,0.00008786,-0.00014063,0.
 00030018,-0.00007041,-0.00007079,0.00001462,0.00000430,0.00002614,0.00
 017350,-0.00022349,0.01917608,-0.08082572,-0.08013418,-0.00292224,0.00
 953613,0.01535703,-0.01740299,0.09895596,-0.00557103,-0.00657188,0.005
 05175,0.00249497,-0.00005017,0.00066845,-0.00067768,-0.00009203,-0.000
 17097,0.00026212,0.00004002,-0.00004123,-0.00007296,-0.00001899,0.0000
 3087,0.00000762,0.00005418,-0.00000650,-0.00005871,-0.00005197,0.00000
 979,0.00008519,0.00007885,0.00003627,-0.00008350,-0.00007503,-0.000092
 25,-0.00013314,-0.00117482,-0.00000087,0.00000250,0.00003152,-0.000006
 34,0.00002078,-0.00005197,0.00005215,-0.00001660,0.00004124,-0.0000103
 7,-0.00001570,0.00000654,-0.00002888,-0.00001210,-0.00001294,-0.000012
 12,-0.00000004,-0.00000028,0.00000084,0.00000409,-0.00000214,0.0000000
 6,0.00000125,0.00000361,-0.00000059,-0.00001169,0.00000393,0.00000767,
 0.00000675,-0.00000627,-0.00000168,0.00000540,0.00001266,-0.00000743,-
 0.00000814,-0.00000749,0.00000086,-0.00001790,0.00000574,-0.00000602,-
 0.00002296,0.00058770,0.00005765,-0.00008956,0.00080796,0.00001922,-0.
 00004830,-0.00001111,0.00001505,0.00003115,0.00008941,-0.00001035,0.04
 395519,-0.08257840,-0.24002027,0.00599278,-0.00841921,-0.01991955,-0.0
 4670812,0.09699694,0.25561736,-0.01897316,-0.00641543,0.00064158,0.002
 32602,-0.00194975,-0.00033466,-0.00084610,0.00014809,0.00009599,0.0001
 0943,-0.00022900,-0.00004167,-0.00011693,0.00005141,0.00002477,-0.0000
 3000,-0.00004103,-0.00001918,-0.00001081,-0.00003174,-0.00000596,0.000
 05493,-0.00001859,-0.00000682,-0.00007006,-0.00001103,0.00000084,0.000
 17837,-0.00002031,0.00000428,-0.00000007,0.00002104,-0.00000508,0.0000
 5256,-0.00003050,0.00011521,-0.00003166,0.00003133,-0.00002246,-0.0000
 3359,-0.00000777,-0.00007354,-0.00001540,-0.00000616,-0.00001614,-0.00
 000452,-0.00000455,0.00000035,0.00000757,-0.00000022,-0.00000208,0.000
 00664,-0.00000048,0.00000012,-0.00001942,0.00000168,0.00000919,0.00001
 105,-0.00000752,0.00000189,0.00000986,-0.00001158,-0.00000434,-0.00001
 885,-0.00001375,0.00000496,-0.00000512,0.00001258,-0.00000038,0.000036
 54,-0.00000638,0.00001834,-0.00000287,-0.00016464,-0.00004661,-0.00003
 196,0.00000571,0.00000192,0.00001119,-0.00002938,-0.00000475,-0.288894
 74,0.05221140,0.02232978,-0.00733331,0.00319486,0.00087176,-0.00389148
 ,0.00244957,0.00067835,0.31752591,-0.04099223,-0.00390292,0.00231356,-
 0.00081187,-0.00468169,-0.00048890,-0.00174523,0.00025577,0.00012172,0
 .00026902,-0.00043412,-0.00006763,-0.00022161,-0.00000104,0.00001605,0
 .00007067,-0.00006424,-0.00000989,-0.00001877,0.00005965,0.00000637,-0
 .00004088,0.00002717,0.00000792,0.00015688,0.00006747,0.00000482,0.000
 53520,-0.00132583,-0.00022678,0.00000051,0.00001543,0.00000131,0.00000
 890,-0.00001936,0.00002456,-0.00000463,0.00001565,-0.00000636,-0.00000
 440,0.00000272,-0.00001449,-0.00000591,-0.00000507,-0.00000438,0.00000
 068,0.00000012,0.00000039,0.00000121,-0.00000043,-0.00000043,0.0000005
 8,0.00000084,-0.00000030,-0.00000416,0.00000133,0.00000301,-0.00000002
 ,-0.00000287,0.00000041,0.00000510,-0.00000083,0.00000050,-0.00001826,
 -0.00000509,-0.00000162,-0.00001087,0.00000117,0.00000089,-0.00030044,
 0.00052284,0.00005908,0.00030534,0.00083824,0.00011974,-0.00006786,-0.
 00001866,-0.00000110,0.00003883,-0.00004129,-0.00000649,0.06405601,-0.
 05510210,-0.00516896,0.01658632,-0.00188724,-0.00285986,0.01133972,-0.
 00102065,0.00036440,-0.04912786,0.06670501,-0.00312511,-0.00006036,0.0
 0091484,-0.00022523,-0.00042514,0.00036660,-0.00011358,-0.00000333,0.0
 0023276,0.00002186,-0.00003376,0.00000554,-0.00001985,0.00000254,-0.00
 005166,0.00000898,-0.00000417,0.00000155,-0.00000079,0.00000834,0.0000
 0301,-0.00001192,0.00000645,-0.00002591,0.00001700,0.00001646,-0.00006
 788,0.00007472,-0.00018956,0.00037058,0.00000097,-0.00000014,0.0000046
 2,-0.00000076,0.00000164,-0.00000174,0.00000128,-0.00000166,-0.0000001
 9,0.00000156,0.00000046,0.00000048,-0.00000022,-0.00000076,0.00000138,
 0.00000020,0.00000039,0.00000013,-0.00000054,0.00000009,-0.00000049,-0
 .00000049,0.00000019,-0.00000035,0.00000087,0.00000012,-0.00000024,-0.
 00000070,0.00000026,0.00000044,0.00000036,-0.00000040,0.00000573,-0.00
 000034,-0.00000070,0.00000706,-0.00000069,-0.00000044,-0.00000015,-0.0
 0002513,0.00004234,0.00015379,0.00000241,0.00015249,-0.00041962,-0.000
 00250,-0.00000713,0.00004272,0.00000345,-0.00000327,0.00000314,0.02362
 475,-0.00435347,-0.05032304,-0.02289938,0.00486402,0.00309071,0.026884
 46,-0.00582395,-0.00123259,-0.02421563,0.00581245,0.04691879\\0.000000
 22,0.00000013,0.00000040,0.00000002,-0.00000021,0.00000038,-0.00000051
 ,0.00000058,0.00000053,0.00000014,0.00000045,0.00000028,0.00000008,0.0
 0000030,0.00000062,0.00000006,-0.00000033,0.00000036,0.00000004,0.0000
 0046,0.,-0.00000006,-0.00000017,-0.00000025,0.00000022,-0.00000047,0.0
 0000004,-0.00000057,-0.00000004,-0.00000020,0.,-0.00000061,-0.00000008
 ,0.00000028,-0.00000028,0.00000036,0.00000015,-0.00000010,-0.00000067,
 0.00000018,-0.00000076,-0.00000070,-0.00000055,0.,-0.00000039,0.000000
 04,0.00000036,0.00000008,-0.00000026,0.00000051,-0.00000023,-0.0000001
 2,0.00000063,-0.00000049,-0.00000001,0.00000029,-0.00000042,0.00000018
 ,-0.00000044,-0.00000089,0.00000018,-0.00000033,0.00000081,-0.00000003
 ,-0.00000012,0.00000057,-0.00000006,0.00000006,-0.00000047,0.00000041,
 0.00000025,-0.00000025,-0.00000002,0.00000008,-0.00000026,-0.00000006,
 0.00000004,-0.00000055,0.00000027,-0.00000036,0.00000072,-0.00000068,0
 .00000018,-0.00000027,0.00000026,-0.00000040,0.00000044,-0.00000016,0.
 00000035,0.00000015,0.00000035,-0.00000003,0.00000039\\\@


 ON A TOMBSTONE, "HERE LIES LESTER MOORE,
 FOUR SLUGS FROM A 44, NO LES, NO MORE".
 Job cpu time:       0 days 23 hours 37 minutes 47.3 seconds.
 Elapsed time:       0 days  1 hours 30 minutes 22.6 seconds.
 File lengths (MBytes):  RWF=    779 Int=      0 D2E=      0 Chk=     26 Scr=      1
 Normal termination of Gaussian 16 at Sat Mar 16 17:11:38 2019.
