 Entering Gaussian System, Link 0=g16
 Initial command:
 /util/academic/gaussian/g16.A03/x86-64-SSE4_2/g16/l1.exe "/scratch/2819088/Gau-7493.inp" -scrdir="/scratch/2819088/"
 Entering Link 1 = /util/academic/gaussian/g16.A03/x86-64-SSE4_2/g16/l1.exe PID=      7497.
  
 Copyright (c) 1988,1990,1992,1993,1995,1998,2003,2009,2016,
            Gaussian, Inc.  All Rights Reserved.
  
 This is part of the Gaussian(R) 16 program.  It is based on
 the Gaussian(R) 09 system (copyright 2009, Gaussian, Inc.),
 the Gaussian(R) 03 system (copyright 2003, Gaussian, Inc.),
 the Gaussian(R) 98 system (copyright 1998, Gaussian, Inc.),
 the Gaussian(R) 94 system (copyright 1995, Gaussian, Inc.),
 the Gaussian 92(TM) system (copyright 1992, Gaussian, Inc.),
 the Gaussian 90(TM) system (copyright 1990, Gaussian, Inc.),
 the Gaussian 88(TM) system (copyright 1988, Gaussian, Inc.),
 the Gaussian 86(TM) system (copyright 1986, Carnegie Mellon
 University), and the Gaussian 82(TM) system (copyright 1983,
 Carnegie Mellon University). Gaussian is a federally registered
 trademark of Gaussian, Inc.
  
 This software contains proprietary and confidential information,
 including trade secrets, belonging to Gaussian, Inc.
  
 This software is provided under written license and may be
 used, copied, transmitted, or stored only in accord with that
 written license.
  
 The following legend is applicable only to US Government
 contracts under FAR:
  
                    RESTRICTED RIGHTS LEGEND
  
 Use, reproduction and disclosure by the US Government is
 subject to restrictions as set forth in subparagraphs (a)
 and (c) of the Commercial Computer Software - Restricted
 Rights clause in FAR 52.227-19.
  
 Gaussian, Inc.
 340 Quinnipiac St., Bldg. 40, Wallingford CT 06492
  
  
 ---------------------------------------------------------------
 Warning -- This program may not be used in any manner that
 competes with the business of Gaussian, Inc. or will provide
 assistance to any competitor of Gaussian, Inc.  The licensee
 of this program is prohibited from giving any competitor of
 Gaussian, Inc. access to this program.  By using this program,
 the user acknowledges that Gaussian, Inc. is engaged in the
 business of creating and licensing software in the field of
 computational chemistry and represents and warrants to the
 licensee that it is not a competitor of Gaussian, Inc. and that
 it will not use this program in any manner prohibited above.
 ---------------------------------------------------------------
  

 Cite this work as:
 Gaussian 16, Revision A.03,
 M. J. Frisch, G. W. Trucks, H. B. Schlegel, G. E. Scuseria, 
 M. A. Robb, J. R. Cheeseman, G. Scalmani, V. Barone, 
 G. A. Petersson, H. Nakatsuji, X. Li, M. Caricato, A. V. Marenich, 
 J. Bloino, B. G. Janesko, R. Gomperts, B. Mennucci, H. P. Hratchian, 
 J. V. Ortiz, A. F. Izmaylov, J. L. Sonnenberg, D. Williams-Young, 
 F. Ding, F. Lipparini, F. Egidi, J. Goings, B. Peng, A. Petrone, 
 T. Henderson, D. Ranasinghe, V. G. Zakrzewski, J. Gao, N. Rega, 
 G. Zheng, W. Liang, M. Hada, M. Ehara, K. Toyota, R. Fukuda, 
 J. Hasegawa, M. Ishida, T. Nakajima, Y. Honda, O. Kitao, H. Nakai, 
 T. Vreven, K. Throssell, J. A. Montgomery, Jr., J. E. Peralta, 
 F. Ogliaro, M. J. Bearpark, J. J. Heyd, E. N. Brothers, K. N. Kudin, 
 V. N. Staroverov, T. A. Keith, R. Kobayashi, J. Normand, 
 K. Raghavachari, A. P. Rendell, J. C. Burant, S. S. Iyengar, 
 J. Tomasi, M. Cossi, J. M. Millam, M. Klene, C. Adamo, R. Cammi, 
 J. W. Ochterski, R. L. Martin, K. Morokuma, O. Farkas, 
 J. B. Foresman, and D. J. Fox, Gaussian, Inc., Wallingford CT, 2016.
 
 ******************************************
 Gaussian 16:  ES64L-G16RevA.03 25-Dec-2016
                16-Mar-2019 
 ******************************************
 %NProc=12
 Will use up to   12 processors via shared memory.
 %chk=chk.chk
 ----------------------------------------------------------------
 #P blyp/def2TZVP SCF=Tight Int=UltraFine NoSymm gfinput pop=full
 ----------------------------------------------------------------
 1/38=1,172=1/1;
 2/12=2,15=1,17=6,18=5,40=1/2;
 3/5=44,7=101,11=2,24=10,25=1,30=1,74=402,75=-5/1,2,3;
 4//1;
 5/5=2,32=2,38=5/2;
 6/7=3,28=1/1;
 99/5=1,9=1/99;
 Leave Link    1 at Sat Mar 16 14:05:26 2019, MaxMem=           0 cpu:               0.7 elap:               0.1
 (Enter /util/academic/gaussian/g16.A03/x86-64-SSE4_2/g16/l101.exe)
 ---
 opt
 ---
 Symbolic Z-matrix:
 Charge =  0 Multiplicity = 1
 O                    -0.87911  -0.18029   0.20526 
 C                     0.5742   -0.15765   0.12259 
 C                    -0.18552   1.08835   0.34012 
 C                     1.18542  -0.52041  -1.21142 
 H                     1.0586   -0.60387   0.99812 
 H                    -0.22805   1.53808   1.33555 
 H                    -0.32535   1.78243  -0.49315 
 H                     2.24164  -0.2161   -1.24573 
 H                     1.14247  -1.60613  -1.37427 
 H                     0.6518   -0.02726  -2.03333 
 
 ITRead=  0  0  0  0  0  0  0  0  0  0
 MicOpt= -1 -1 -1 -1 -1 -1 -1 -1 -1 -1
 NAtoms=     10 NQM=       10 NQMF=       0 NMMI=      0 NMMIF=      0
                NMic=       0 NMicF=      0.
                    Isotopes and Nuclear Properties:
 (Nuclear quadrupole moments (NQMom) in fm**2, nuclear magnetic moments (NMagM)
  in nuclear magnetons)

  Atom         1           2           3           4           5           6           7           8           9          10
 IAtWgt=          16          12          12          12           1           1           1           1           1           1
 AtmWgt=  15.9949146  12.0000000  12.0000000  12.0000000   1.0078250   1.0078250   1.0078250   1.0078250   1.0078250   1.0078250
 NucSpn=           0           0           0           0           1           1           1           1           1           1
 AtZEff=  -0.0000000  -0.0000000  -0.0000000  -0.0000000  -0.0000000  -0.0000000  -0.0000000  -0.0000000  -0.0000000  -0.0000000
 NQMom=    0.0000000   0.0000000   0.0000000   0.0000000   0.0000000   0.0000000   0.0000000   0.0000000   0.0000000   0.0000000
 NMagM=    0.0000000   0.0000000   0.0000000   0.0000000   2.7928460   2.7928460   2.7928460   2.7928460   2.7928460   2.7928460
 AtZNuc=   8.0000000   6.0000000   6.0000000   6.0000000   1.0000000   1.0000000   1.0000000   1.0000000   1.0000000   1.0000000
 Leave Link  101 at Sat Mar 16 14:05:26 2019, MaxMem=   104857600 cpu:               1.3 elap:               0.1
 (Enter /util/academic/gaussian/g16.A03/x86-64-SSE4_2/g16/l202.exe)
                          Input orientation:                          
 ---------------------------------------------------------------------
 Center     Atomic      Atomic             Coordinates (Angstroms)
 Number     Number       Type             X           Y           Z
 ---------------------------------------------------------------------
      1          8           0       -0.879112   -0.180294    0.205257
      2          6           0        0.574200   -0.157646    0.122588
      3          6           0       -0.185517    1.088353    0.340116
      4          6           0        1.185420   -0.520407   -1.211416
      5          1           0        1.058604   -0.603865    0.998120
      6          1           0       -0.228052    1.538075    1.335550
      7          1           0       -0.325346    1.782434   -0.493154
      8          1           0        2.241636   -0.216103   -1.245734
      9          1           0        1.142471   -1.606131   -1.374270
     10          1           0        0.651796   -0.027264   -2.033329
 ---------------------------------------------------------------------
                    Distance matrix (angstroms):
                    1          2          3          4          5
     1  O    0.000000
     2  C    1.455838   0.000000
     3  C    1.452145   1.475467   0.000000
     4  C    2.526842   1.511540   2.621989   0.000000
     5  H    2.136068   1.095589   2.201002   2.214745   0.000000
     6  H    2.157367   2.233910   1.093137   3.566832   2.521359
     7  H    2.155629   2.225361   1.093453   2.846294   3.135863
     8  H    3.441762   2.157792   3.179245   1.099714   2.566087
     9  H    2.935083   2.159080   3.458745   1.098710   2.576782
    10  H    2.716315   2.161249   2.752987   1.097035   3.112498
                    6          7          8          9         10
     6  H    0.000000
     7  H    1.847522   0.000000
     8  H    3.979890   3.339150   0.000000
     9  H    4.371211   3.796475   1.776756   0.000000
    10  H    3.817560   2.569426   1.784253   1.779871   0.000000
 Symmetry turned off by external request.
 Stoichiometry    C3H6O
 Framework group  C1[X(C3H6O)]
 Deg. of freedom    24
 Full point group                 C1      NOp   1
 Rotational constants (GHZ):          17.8144869           6.5499209           5.8199200
 Leave Link  202 at Sat Mar 16 14:05:26 2019, MaxMem=   104857600 cpu:               0.5 elap:               0.1
 (Enter /util/academic/gaussian/g16.A03/x86-64-SSE4_2/g16/l301.exe)
 Standard basis: def2TZVP (5D, 7F)
 Ernie: Thresh=  0.10000D-02 Tol=  0.10000D-05 Strict=F.
 AO basis set in the form of general basis input (Overlap normalization):
      1 0
 S   6 1.00       0.000000000000
      0.2703238263D+05  0.5722733521D-03
      0.4052387139D+04  0.4435323349D-02
      0.9223272271D+03  0.2302010771D-01
      0.2612407099D+03  0.9282249067D-01
      0.8535464135D+02  0.2937850001D+00
      0.3103503525D+02  0.6740160450D+00
 S   2 1.00       0.000000000000
      0.1226086073D+02  0.6383993703D+00
      0.4998707601D+01  0.3953458713D+00
 S   1 1.00       0.000000000000
      0.1170310816D+01  0.1000000000D+01
 S   1 1.00       0.000000000000
      0.4647474099D+00  0.1000000000D+01
 S   1 1.00       0.000000000000
      0.1850453636D+00  0.1000000000D+01
 P   4 1.00       0.000000000000
      0.6327495480D+02  0.1201833222D-01
      0.1462704938D+02  0.8300542179D-01
      0.4450122346D+01  0.3199174393D+00
      0.1527579965D+01  0.7071554292D+00
 P   1 1.00       0.000000000000
      0.5293511794D+00  0.1000000000D+01
 P   1 1.00       0.000000000000
      0.1747842127D+00  0.1000000000D+01
 D   1 1.00       0.000000000000
      0.2314000000D+01  0.1000000000D+01
 D   1 1.00       0.000000000000
      0.6450000000D+00  0.1000000000D+01
 F   1 1.00       0.000000000000
      0.1428000000D+01  0.1000000000D+01
 ****
      2 0
 S   6 1.00       0.000000000000
      0.1357534968D+05  0.6064550360D-03
      0.2035233368D+04  0.4697908888D-02
      0.4632256236D+03  0.2433247765D-01
      0.1312001960D+03  0.9739996831D-01
      0.4285301589D+02  0.3019558425D+00
      0.1558418577D+02  0.6623360914D+00
 S   2 1.00       0.000000000000
      0.6206713851D+01  0.6559530854D+00
      0.2576489653D+01  0.3758563329D+00
 S   1 1.00       0.000000000000
      0.5769633942D+00  0.1000000000D+01
 S   1 1.00       0.000000000000
      0.2297283136D+00  0.1000000000D+01
 S   1 1.00       0.000000000000
      0.9516444003D-01  0.1000000000D+01
 P   4 1.00       0.000000000000
      0.3469723224D+02  0.1132722000D-01
      0.7958262283D+01  0.7616965920D-01
      0.2378082688D+01  0.3019225220D+00
      0.8143320818D+00  0.7278502735D+00
 P   1 1.00       0.000000000000
      0.2888754725D+00  0.1000000000D+01
 P   1 1.00       0.000000000000
      0.1005682367D+00  0.1000000000D+01
 D   1 1.00       0.000000000000
      0.1097000000D+01  0.1000000000D+01
 D   1 1.00       0.000000000000
      0.3180000000D+00  0.1000000000D+01
 F   1 1.00       0.000000000000
      0.7610000000D+00  0.1000000000D+01
 ****
      3 0
 S   6 1.00       0.000000000000
      0.1357534968D+05  0.6064550360D-03
      0.2035233368D+04  0.4697908888D-02
      0.4632256236D+03  0.2433247765D-01
      0.1312001960D+03  0.9739996831D-01
      0.4285301589D+02  0.3019558425D+00
      0.1558418577D+02  0.6623360914D+00
 S   2 1.00       0.000000000000
      0.6206713851D+01  0.6559530854D+00
      0.2576489653D+01  0.3758563329D+00
 S   1 1.00       0.000000000000
      0.5769633942D+00  0.1000000000D+01
 S   1 1.00       0.000000000000
      0.2297283136D+00  0.1000000000D+01
 S   1 1.00       0.000000000000
      0.9516444003D-01  0.1000000000D+01
 P   4 1.00       0.000000000000
      0.3469723224D+02  0.1132722000D-01
      0.7958262283D+01  0.7616965920D-01
      0.2378082688D+01  0.3019225220D+00
      0.8143320818D+00  0.7278502735D+00
 P   1 1.00       0.000000000000
      0.2888754725D+00  0.1000000000D+01
 P   1 1.00       0.000000000000
      0.1005682367D+00  0.1000000000D+01
 D   1 1.00       0.000000000000
      0.1097000000D+01  0.1000000000D+01
 D   1 1.00       0.000000000000
      0.3180000000D+00  0.1000000000D+01
 F   1 1.00       0.000000000000
      0.7610000000D+00  0.1000000000D+01
 ****
      4 0
 S   6 1.00       0.000000000000
      0.1357534968D+05  0.6064550360D-03
      0.2035233368D+04  0.4697908888D-02
      0.4632256236D+03  0.2433247765D-01
      0.1312001960D+03  0.9739996831D-01
      0.4285301589D+02  0.3019558425D+00
      0.1558418577D+02  0.6623360914D+00
 S   2 1.00       0.000000000000
      0.6206713851D+01  0.6559530854D+00
      0.2576489653D+01  0.3758563329D+00
 S   1 1.00       0.000000000000
      0.5769633942D+00  0.1000000000D+01
 S   1 1.00       0.000000000000
      0.2297283136D+00  0.1000000000D+01
 S   1 1.00       0.000000000000
      0.9516444003D-01  0.1000000000D+01
 P   4 1.00       0.000000000000
      0.3469723224D+02  0.1132722000D-01
      0.7958262283D+01  0.7616965920D-01
      0.2378082688D+01  0.3019225220D+00
      0.8143320818D+00  0.7278502735D+00
 P   1 1.00       0.000000000000
      0.2888754725D+00  0.1000000000D+01
 P   1 1.00       0.000000000000
      0.1005682367D+00  0.1000000000D+01
 D   1 1.00       0.000000000000
      0.1097000000D+01  0.1000000000D+01
 D   1 1.00       0.000000000000
      0.3180000000D+00  0.1000000000D+01
 F   1 1.00       0.000000000000
      0.7610000000D+00  0.1000000000D+01
 ****
      5 0
 S   3 1.00       0.000000000000
      0.3406134100D+02  0.2543930721D-01
      0.5123574600D+01  0.1900859489D+00
      0.1164662600D+01  0.8524411301D+00
 S   1 1.00       0.000000000000
      0.3272304100D+00  0.1000000000D+01
 S   1 1.00       0.000000000000
      0.1030724100D+00  0.1000000000D+01
 P   1 1.00       0.000000000000
      0.8000000000D+00  0.1000000000D+01
 ****
      6 0
 S   3 1.00       0.000000000000
      0.3406134100D+02  0.2543930721D-01
      0.5123574600D+01  0.1900859489D+00
      0.1164662600D+01  0.8524411301D+00
 S   1 1.00       0.000000000000
      0.3272304100D+00  0.1000000000D+01
 S   1 1.00       0.000000000000
      0.1030724100D+00  0.1000000000D+01
 P   1 1.00       0.000000000000
      0.8000000000D+00  0.1000000000D+01
 ****
      7 0
 S   3 1.00       0.000000000000
      0.3406134100D+02  0.2543930721D-01
      0.5123574600D+01  0.1900859489D+00
      0.1164662600D+01  0.8524411301D+00
 S   1 1.00       0.000000000000
      0.3272304100D+00  0.1000000000D+01
 S   1 1.00       0.000000000000
      0.1030724100D+00  0.1000000000D+01
 P   1 1.00       0.000000000000
      0.8000000000D+00  0.1000000000D+01
 ****
      8 0
 S   3 1.00       0.000000000000
      0.3406134100D+02  0.2543930721D-01
      0.5123574600D+01  0.1900859489D+00
      0.1164662600D+01  0.8524411301D+00
 S   1 1.00       0.000000000000
      0.3272304100D+00  0.1000000000D+01
 S   1 1.00       0.000000000000
      0.1030724100D+00  0.1000000000D+01
 P   1 1.00       0.000000000000
      0.8000000000D+00  0.1000000000D+01
 ****
      9 0
 S   3 1.00       0.000000000000
      0.3406134100D+02  0.2543930721D-01
      0.5123574600D+01  0.1900859489D+00
      0.1164662600D+01  0.8524411301D+00
 S   1 1.00       0.000000000000
      0.3272304100D+00  0.1000000000D+01
 S   1 1.00       0.000000000000
      0.1030724100D+00  0.1000000000D+01
 P   1 1.00       0.000000000000
      0.8000000000D+00  0.1000000000D+01
 ****
     10 0
 S   3 1.00       0.000000000000
      0.3406134100D+02  0.2543930721D-01
      0.5123574600D+01  0.1900859489D+00
      0.1164662600D+01  0.8524411301D+00
 S   1 1.00       0.000000000000
      0.3272304100D+00  0.1000000000D+01
 S   1 1.00       0.000000000000
      0.1030724100D+00  0.1000000000D+01
 P   1 1.00       0.000000000000
      0.8000000000D+00  0.1000000000D+01
 ****

   160 basis functions,   252 primitive gaussians,   180 cartesian basis functions
    16 alpha electrons       16 beta electrons
       nuclear repulsion energy       123.5339212950 Hartrees.
 IExCor=  402 DFT=T Ex=B Corr=LYP ExCW=0 ScaHFX=  0.000000
 ScaDFX=  1.000000  1.000000  1.000000  1.000000 ScalE2=  1.000000  1.000000
 IRadAn=      5 IRanWt=     -1 IRanGd=            0 ICorTp=0 IEmpDi=  4
 NAtoms=   10 NActive=   10 NUniq=   10 SFac= 1.00D+00 NAtFMM=   60 NAOKFM=F Big=F
 Integral buffers will be    131072 words long.
 Raffenetti 2 integral format.
 Two-electron integral symmetry is turned off.
 Leave Link  301 at Sat Mar 16 14:05:26 2019, MaxMem=   104857600 cpu:               0.8 elap:               0.1
 (Enter /util/academic/gaussian/g16.A03/x86-64-SSE4_2/g16/l302.exe)
 NPDir=0 NMtPBC=     1 NCelOv=     1 NCel=       1 NClECP=     1 NCelD=      1
         NCelK=      1 NCelE2=     1 NClLst=     1 CellRange=     0.0.
 One-electron integrals computed using PRISM.
   1 Symmetry operations used in ECPInt.
 ECPInt:  NShTT=    2346 NPrTT=    6892 LenC2=    2340 LenP2D=    5993.
 LDataN:  DoStor=T MaxTD1= 6 Len=  172
 NBasis=   160 RedAO= T EigKep=  2.99D-04  NBF=   160
 NBsUse=   160 1.00D-06 EigRej= -1.00D+00 NBFU=   160
 Precomputing XC quadrature grid using
 IXCGrd= 4 IRadAn=           5 IRanWt=          -1 IRanGd=           0 AccXCQ= 0.00D+00.
 Generated NRdTot=       0 NPtTot=           0 NUsed=           0 NTot=          32
 NSgBfM=   180   180   180   180   180 MxSgAt=    10 MxSgA2=    10.
 Leave Link  302 at Sat Mar 16 14:05:26 2019, MaxMem=   104857600 cpu:               3.0 elap:               0.3
 (Enter /util/academic/gaussian/g16.A03/x86-64-SSE4_2/g16/l303.exe)
 DipDrv:  MaxL=1.
 Leave Link  303 at Sat Mar 16 14:05:26 2019, MaxMem=   104857600 cpu:               0.7 elap:               0.1
 (Enter /util/academic/gaussian/g16.A03/x86-64-SSE4_2/g16/l401.exe)
 ExpMin= 9.52D-02 ExpMax= 2.70D+04 ExpMxC= 9.22D+02 IAcc=3 IRadAn=         5 AccDes= 0.00D+00
 Harris functional with IExCor=  402 and IRadAn=       5 diagonalized for initial guess.
 HarFok:  IExCor=  402 AccDes= 0.00D+00 IRadAn=         5 IDoV= 1 UseB2=F ITyADJ=14
 ICtDFT=  3500011 ScaDFX=  1.000000  1.000000  1.000000  1.000000
 FoFCou: FMM=F IPFlag=           0 FMFlag=      100000 FMFlg1=           0
         NFxFlg=           0 DoJE=T BraDBF=F KetDBF=T FulRan=T
         wScrn=  0.000000 ICntrl=       500 IOpCl=  0 I1Cent=   200000004 NGrid=           0
         NMat0=    1 NMatS0=      1 NMatT0=    0 NMatD0=    1 NMtDS0=    0 NMtDT0=    0
 Symmetry not used in FoFCou.
 Harris En= -193.210612229280    
 JPrj=0 DoOrth=F DoCkMO=F.
 Leave Link  401 at Sat Mar 16 14:05:27 2019, MaxMem=   104857600 cpu:               9.5 elap:               0.8
 (Enter /util/academic/gaussian/g16.A03/x86-64-SSE4_2/g16/l502.exe)
 Keep J ints in memory in canonical form, NReq=95053554.
 FoFCou: FMM=F IPFlag=           0 FMFlag=           0 FMFlg1=           0
         NFxFlg=           0 DoJE=F BraDBF=F KetDBF=F FulRan=T
         wScrn=  0.000000 ICntrl=       600 IOpCl=  0 I1Cent=           0 NGrid=           0
         NMat0=    1 NMatS0=  12880 NMatT0=    0 NMatD0=    1 NMtDS0=    0 NMtDT0=    0
 Symmetry not used in FoFCou.
 CoulSu:  requested number of processors reduced to:  10 ShMem   1 Linda.
 Two-electron integral symmetry not used.
 Closed shell SCF:
 Using DIIS extrapolation, IDIIS=  1040.
 NGot=   104857600 LenX=    21835618 LenY=    21802777
 Requested convergence on RMS density matrix=1.00D-08 within 128 cycles.
 Requested convergence on MAX density matrix=1.00D-06.
 Requested convergence on             energy=1.00D-06.
 No special actions if energy rises.
 Integral accuracy reduced to 1.0D-05 until final iterations.

 Cycle   1  Pass 0  IDiag  1:
 E= -192.997282734916    
 DIIS: error= 2.39D-02 at cycle   1 NSaved=   1.
 NSaved= 1 IEnMin= 1 EnMin= -192.997282734916     IErMin= 1 ErrMin= 2.39D-02
 ErrMax= 2.39D-02  0.00D+00 EMaxC= 1.00D-01 BMatC= 1.10D-01 BMatP= 1.10D-01
 IDIUse=3 WtCom= 7.61D-01 WtEn= 2.39D-01
 Coeff-Com:  0.100D+01
 Coeff-En:   0.100D+01
 Coeff:      0.100D+01
 Gap=     0.238 Goal=   None    Shift=    0.000
 GapD=    0.238 DampG=1.000 DampE=0.500 DampFc=0.5000 IDamp=-1.
 Damping current iteration by 5.00D-01
 RMSDP=6.59D-03 MaxDP=1.43D-01              OVMax= 1.91D-01

 Cycle   2  Pass 0  IDiag  1:
 E= -193.024495696551     Delta-E=       -0.027212961635 Rises=F Damp=T
 DIIS: error= 7.57D-03 at cycle   2 NSaved=   2.
 NSaved= 2 IEnMin= 2 EnMin= -193.024495696551     IErMin= 2 ErrMin= 7.57D-03
 ErrMax= 7.57D-03  0.00D+00 EMaxC= 1.00D-01 BMatC= 1.78D-02 BMatP= 1.10D-01
 IDIUse=3 WtCom= 9.24D-01 WtEn= 7.57D-02
 Coeff-Com:  0.244D+00 0.756D+00
 Coeff-En:   0.376D+00 0.624D+00
 Coeff:      0.254D+00 0.746D+00
 Gap=     0.262 Goal=   None    Shift=    0.000
 RMSDP=1.94D-03 MaxDP=5.91D-02 DE=-2.72D-02 OVMax= 1.45D-01

 Cycle   3  Pass 0  IDiag  1:
 E= -193.099291485814     Delta-E=       -0.074795789263 Rises=F Damp=F
 DIIS: error= 7.45D-03 at cycle   3 NSaved=   3.
 NSaved= 3 IEnMin= 3 EnMin= -193.099291485814     IErMin= 3 ErrMin= 7.45D-03
 ErrMax= 7.45D-03  0.00D+00 EMaxC= 1.00D-01 BMatC= 1.33D-02 BMatP= 1.78D-02
 IDIUse=3 WtCom= 9.26D-01 WtEn= 7.45D-02
 Coeff-Com:  0.114D+00 0.471D+00 0.416D+00
 Coeff-En:   0.000D+00 0.000D+00 0.100D+01
 Coeff:      0.105D+00 0.435D+00 0.459D+00
 Gap=     0.238 Goal=   None    Shift=    0.000
 RMSDP=6.83D-04 MaxDP=1.82D-02 DE=-7.48D-02 OVMax= 3.93D-02

 Cycle   4  Pass 0  IDiag  1:
 E= -193.106178824564     Delta-E=       -0.006887338750 Rises=F Damp=F
 DIIS: error= 4.40D-03 at cycle   4 NSaved=   4.
 NSaved= 4 IEnMin= 4 EnMin= -193.106178824564     IErMin= 4 ErrMin= 4.40D-03
 ErrMax= 4.40D-03  0.00D+00 EMaxC= 1.00D-01 BMatC= 4.19D-03 BMatP= 1.33D-02
 IDIUse=3 WtCom= 9.56D-01 WtEn= 4.40D-02
 Coeff-Com:  0.232D-01 0.127D+00 0.349D+00 0.500D+00
 Coeff-En:   0.000D+00 0.000D+00 0.294D+00 0.706D+00
 Coeff:      0.221D-01 0.121D+00 0.347D+00 0.510D+00
 Gap=     0.246 Goal=   None    Shift=    0.000
 RMSDP=2.68D-04 MaxDP=6.58D-03 DE=-6.89D-03 OVMax= 1.23D-02

 Cycle   5  Pass 0  IDiag  1:
 E= -193.109258482081     Delta-E=       -0.003079657517 Rises=F Damp=F
 DIIS: error= 5.89D-04 at cycle   5 NSaved=   5.
 NSaved= 5 IEnMin= 5 EnMin= -193.109258482081     IErMin= 5 ErrMin= 5.89D-04
 ErrMax= 5.89D-04  0.00D+00 EMaxC= 1.00D-01 BMatC= 6.83D-05 BMatP= 4.19D-03
 IDIUse=3 WtCom= 9.94D-01 WtEn= 5.89D-03
 Coeff-Com:  0.430D-02 0.316D-01 0.137D+00 0.237D+00 0.589D+00
 Coeff-En:   0.000D+00 0.000D+00 0.000D+00 0.000D+00 0.100D+01
 Coeff:      0.428D-02 0.314D-01 0.137D+00 0.236D+00 0.592D+00
 Gap=     0.245 Goal=   None    Shift=    0.000
 RMSDP=4.86D-05 MaxDP=1.28D-03 DE=-3.08D-03 OVMax= 3.42D-03

 Cycle   6  Pass 0  IDiag  1:
 E= -193.109303218999     Delta-E=       -0.000044736917 Rises=F Damp=F
 DIIS: error= 2.95D-04 at cycle   6 NSaved=   6.
 NSaved= 6 IEnMin= 6 EnMin= -193.109303218999     IErMin= 6 ErrMin= 2.95D-04
 ErrMax= 2.95D-04  0.00D+00 EMaxC= 1.00D-01 BMatC= 1.54D-05 BMatP= 6.83D-05
 IDIUse=3 WtCom= 9.97D-01 WtEn= 2.95D-03
 Coeff-Com:  0.822D-03 0.834D-02 0.554D-01 0.105D+00 0.376D+00 0.455D+00
 Coeff-En:   0.000D+00 0.000D+00 0.000D+00 0.000D+00 0.187D+00 0.813D+00
 Coeff:      0.819D-03 0.831D-02 0.552D-01 0.104D+00 0.376D+00 0.456D+00
 Gap=     0.245 Goal=   None    Shift=    0.000
 RMSDP=1.82D-05 MaxDP=5.91D-04 DE=-4.47D-05 OVMax= 1.57D-03

 Cycle   7  Pass 0  IDiag  1:
 E= -193.109317181587     Delta-E=       -0.000013962589 Rises=F Damp=F
 DIIS: error= 3.05D-05 at cycle   7 NSaved=   7.
 NSaved= 7 IEnMin= 7 EnMin= -193.109317181587     IErMin= 7 ErrMin= 3.05D-05
 ErrMax= 3.05D-05  0.00D+00 EMaxC= 1.00D-01 BMatC= 2.65D-07 BMatP= 1.54D-05
 IDIUse=1 WtCom= 1.00D+00 WtEn= 0.00D+00
 Coeff-Com:  0.230D-03 0.188D-02 0.165D-01 0.325D-01 0.130D+00 0.200D+00
 Coeff-Com:  0.619D+00
 Coeff:      0.230D-03 0.188D-02 0.165D-01 0.325D-01 0.130D+00 0.200D+00
 Coeff:      0.619D+00
 Gap=     0.245 Goal=   None    Shift=    0.000
 RMSDP=3.99D-06 MaxDP=6.52D-05 DE=-1.40D-05 OVMax= 2.19D-04

 Initial convergence to 1.0D-05 achieved.  Increase integral accuracy.
 Cycle   8  Pass 1  IDiag  1:
 E= -193.109317439841     Delta-E=       -0.000000258254 Rises=F Damp=F
 DIIS: error= 1.36D-05 at cycle   1 NSaved=   1.
 NSaved= 1 IEnMin= 1 EnMin= -193.109317439841     IErMin= 1 ErrMin= 1.36D-05
 ErrMax= 1.36D-05  0.00D+00 EMaxC= 1.00D-01 BMatC= 3.42D-08 BMatP= 3.42D-08
 IDIUse=1 WtCom= 1.00D+00 WtEn= 0.00D+00
 Coeff-Com:  0.100D+01
 Coeff:      0.100D+01
 Gap=     0.245 Goal=   None    Shift=    0.000
 RMSDP=3.99D-06 MaxDP=6.52D-05 DE=-2.58D-07 OVMax= 1.30D-04

 Cycle   9  Pass 1  IDiag  1:
 E= -193.109317391588     Delta-E=        0.000000048253 Rises=F Damp=F
 DIIS: error= 2.25D-05 at cycle   2 NSaved=   2.
 NSaved= 2 IEnMin= 1 EnMin= -193.109317439841     IErMin= 1 ErrMin= 1.36D-05
 ErrMax= 2.25D-05  0.00D+00 EMaxC= 1.00D-01 BMatC= 8.41D-08 BMatP= 3.42D-08
 IDIUse=1 WtCom= 1.00D+00 WtEn= 0.00D+00
 Coeff-Com:  0.613D+00 0.387D+00
 Coeff:      0.613D+00 0.387D+00
 Gap=     0.245 Goal=   None    Shift=    0.000
 RMSDP=1.46D-06 MaxDP=3.22D-05 DE= 4.83D-08 OVMax= 8.67D-05

 Cycle  10  Pass 1  IDiag  1:
 E= -193.109317473843     Delta-E=       -0.000000082255 Rises=F Damp=F
 DIIS: error= 1.50D-06 at cycle   3 NSaved=   3.
 NSaved= 3 IEnMin= 3 EnMin= -193.109317473843     IErMin= 3 ErrMin= 1.50D-06
 ErrMax= 1.50D-06  0.00D+00 EMaxC= 1.00D-01 BMatC= 6.46D-10 BMatP= 3.42D-08
 IDIUse=1 WtCom= 1.00D+00 WtEn= 0.00D+00
 Coeff-Com:  0.235D+00 0.165D+00 0.600D+00
 Coeff:      0.235D+00 0.165D+00 0.600D+00
 Gap=     0.245 Goal=   None    Shift=    0.000
 RMSDP=1.76D-07 MaxDP=4.77D-06 DE=-8.23D-08 OVMax= 1.19D-05

 Cycle  11  Pass 1  IDiag  1:
 E= -193.109317474293     Delta-E=       -0.000000000450 Rises=F Damp=F
 DIIS: error= 9.33D-07 at cycle   4 NSaved=   4.
 NSaved= 4 IEnMin= 4 EnMin= -193.109317474293     IErMin= 4 ErrMin= 9.33D-07
 ErrMax= 9.33D-07  0.00D+00 EMaxC= 1.00D-01 BMatC= 1.77D-10 BMatP= 6.46D-10
 IDIUse=1 WtCom= 1.00D+00 WtEn= 0.00D+00
 Coeff-Com:  0.532D-01 0.438D-01 0.360D+00 0.543D+00
 Coeff:      0.532D-01 0.438D-01 0.360D+00 0.543D+00
 Gap=     0.245 Goal=   None    Shift=    0.000
 RMSDP=7.45D-08 MaxDP=2.01D-06 DE=-4.50D-10 OVMax= 5.23D-06

 Cycle  12  Pass 1  IDiag  1:
 E= -193.109317474451     Delta-E=       -0.000000000158 Rises=F Damp=F
 DIIS: error= 3.12D-07 at cycle   5 NSaved=   5.
 NSaved= 5 IEnMin= 5 EnMin= -193.109317474451     IErMin= 5 ErrMin= 3.12D-07
 ErrMax= 3.12D-07  0.00D+00 EMaxC= 1.00D-01 BMatC= 1.20D-11 BMatP= 1.77D-10
 IDIUse=1 WtCom= 1.00D+00 WtEn= 0.00D+00
 Coeff-Com:  0.759D-03 0.425D-02 0.113D+00 0.276D+00 0.606D+00
 Coeff:      0.759D-03 0.425D-02 0.113D+00 0.276D+00 0.606D+00
 Gap=     0.245 Goal=   None    Shift=    0.000
 RMSDP=2.45D-08 MaxDP=3.94D-07 DE=-1.58D-10 OVMax= 1.11D-06

 Cycle  13  Pass 1  IDiag  1:
 E= -193.109317474456     Delta-E=       -0.000000000005 Rises=F Damp=F
 DIIS: error= 8.85D-08 at cycle   6 NSaved=   6.
 NSaved= 6 IEnMin= 6 EnMin= -193.109317474456     IErMin= 6 ErrMin= 8.85D-08
 ErrMax= 8.85D-08  0.00D+00 EMaxC= 1.00D-01 BMatC= 1.93D-12 BMatP= 1.20D-11
 IDIUse=1 WtCom= 1.00D+00 WtEn= 0.00D+00
 Coeff-Com: -0.109D-02 0.151D-02 0.633D-01 0.164D+00 0.402D+00 0.370D+00
 Coeff:     -0.109D-02 0.151D-02 0.633D-01 0.164D+00 0.402D+00 0.370D+00
 Gap=     0.245 Goal=   None    Shift=    0.000
 RMSDP=7.60D-09 MaxDP=1.80D-07 DE=-5.29D-12 OVMax= 3.36D-07

 SCF Done:  E(RB-LYP) =  -193.109317474     A.U. after   13 cycles
            NFock= 13  Conv=0.76D-08     -V/T= 2.0039
 KE= 1.923570623095D+02 PE=-6.980420838274D+02 EE= 1.890417827484D+02
 Leave Link  502 at Sat Mar 16 14:05:35 2019, MaxMem=   104857600 cpu:              74.2 elap:               8.0
 (Enter /util/academic/gaussian/g16.A03/x86-64-SSE4_2/g16/l601.exe)
 Copying SCF densities to generalized density rwf, IOpCl= 0 IROHF=0.

 **********************************************************************

            Population analysis using the SCF density.

 **********************************************************************

 Alpha  occ. eigenvalues --  -18.77971  -9.96323  -9.95559  -9.90797  -0.96245
 Alpha  occ. eigenvalues --   -0.66978  -0.58980  -0.52994  -0.44772  -0.41359
 Alpha  occ. eigenvalues --   -0.37684  -0.35601  -0.32909  -0.32119  -0.26342
 Alpha  occ. eigenvalues --   -0.21966
 Alpha virt. eigenvalues --    0.02570   0.04282   0.05007   0.05091   0.06466
 Alpha virt. eigenvalues --    0.08605   0.09141   0.10254   0.13895   0.17035
 Alpha virt. eigenvalues --    0.19742   0.20206   0.23635   0.24754   0.26869
 Alpha virt. eigenvalues --    0.27784   0.30096   0.33742   0.36255   0.37205
 Alpha virt. eigenvalues --    0.38492   0.39476   0.40158   0.41535   0.42685
 Alpha virt. eigenvalues --    0.44708   0.45952   0.46914   0.50805   0.53696
 Alpha virt. eigenvalues --    0.65781   0.67430   0.70750   0.76118   0.79436
 Alpha virt. eigenvalues --    0.83210   0.85440   0.87143   0.92020   0.96124
 Alpha virt. eigenvalues --    0.99198   1.01225   1.04167   1.07885   1.10532
 Alpha virt. eigenvalues --    1.14723   1.21509   1.34865   1.41570   1.43274
 Alpha virt. eigenvalues --    1.44318   1.44659   1.47419   1.47783   1.51243
 Alpha virt. eigenvalues --    1.54228   1.57705   1.59768   1.64186   1.69503
 Alpha virt. eigenvalues --    1.70110   1.78961   1.81554   1.84239   1.86731
 Alpha virt. eigenvalues --    1.92088   1.99124   1.99448   2.08964   2.09716
 Alpha virt. eigenvalues --    2.16629   2.20002   2.22929   2.24376   2.26661
 Alpha virt. eigenvalues --    2.28313   2.35062   2.38738   2.45089   2.47359
 Alpha virt. eigenvalues --    2.48357   2.52550   2.53261   2.55955   2.59876
 Alpha virt. eigenvalues --    2.64941   2.66819   2.71622   2.73971   2.80658
 Alpha virt. eigenvalues --    2.83170   2.86193   2.89880   2.96065   2.96591
 Alpha virt. eigenvalues --    2.98860   3.00740   3.03466   3.06896   3.14637
 Alpha virt. eigenvalues --    3.16711   3.19028   3.27850   3.29301   3.31668
 Alpha virt. eigenvalues --    3.35413   3.37323   3.43046   3.45653   3.56426
 Alpha virt. eigenvalues --    3.57230   3.63635   3.76651   3.78474   3.88096
 Alpha virt. eigenvalues --    3.89768   3.98775   4.04857   4.14527   4.19657
 Alpha virt. eigenvalues --    4.26085   4.28846   4.33840   4.46955   4.56124
 Alpha virt. eigenvalues --    4.57250   4.73814   4.77076   5.18193   5.34675
 Alpha virt. eigenvalues --    5.57767   5.60385   5.66717   5.76371   5.90909
 Alpha virt. eigenvalues --    6.46466   6.50715   6.67647   6.84213   7.05563
 Alpha virt. eigenvalues --   21.94076  21.98212  22.10131  43.41417
     Molecular Orbital Coefficients:
                           1         2         3         4         5
                           O         O         O         O         O
     Eigenvalues --   -18.77971  -9.96323  -9.95559  -9.90797  -0.96245
   1 1   O  1S          0.43542  -0.00000  -0.00000   0.00000  -0.08294
   2        2S          0.63848  -0.00007  -0.00006  -0.00001  -0.19279
   3        3S          0.03989   0.00061   0.00047   0.00011   0.27744
   4        4S         -0.03323   0.00072   0.00147  -0.00014   0.37524
   5        5S          0.01156  -0.00108  -0.00119  -0.00187   0.12276
   6        6PX         0.00223   0.00042   0.00023   0.00012   0.09328
   7        6PY         0.00131   0.00008   0.00034  -0.00003   0.05635
   8        6PZ         0.00003  -0.00003   0.00002  -0.00009   0.00199
   9        7PX        -0.00681  -0.00080  -0.00001  -0.00079   0.08480
  10        7PY        -0.00373   0.00005  -0.00080   0.00037   0.05111
  11        7PZ         0.00000   0.00021  -0.00006   0.00052   0.00158
  12        8PX         0.00132   0.00001   0.00129  -0.00082   0.01081
  13        8PY         0.00029   0.00220  -0.00042   0.00083   0.00542
  14        8PZ        -0.00041   0.00039   0.00023   0.00059  -0.00018
  15        9D 0       -0.00030  -0.00010  -0.00008   0.00001  -0.00365
  16        9D+1       -0.00000  -0.00003   0.00000  -0.00008  -0.00003
  17        9D-1        0.00005  -0.00001   0.00004   0.00001   0.00047
  18        9D+2        0.00010   0.00021  -0.00012   0.00006   0.00159
  19        9D-2        0.00018  -0.00000   0.00017  -0.00003   0.00308
  20       10D 0        0.00158   0.00062   0.00053  -0.00005  -0.01430
  21       10D+1        0.00005   0.00029  -0.00005   0.00049  -0.00042
  22       10D-1       -0.00024   0.00001  -0.00026  -0.00001   0.00197
  23       10D+2       -0.00070  -0.00129   0.00096  -0.00037   0.00621
  24       10D-2       -0.00112   0.00016  -0.00102   0.00020   0.01170
  25       11F 0        0.00001  -0.00007   0.00011  -0.00004  -0.00015
  26       11F+1        0.00029   0.00045   0.00019  -0.00004  -0.00258
  27       11F-1        0.00017  -0.00001   0.00039  -0.00001  -0.00154
  28       11F+2        0.00007   0.00012   0.00010   0.00006  -0.00047
  29       11F-2       -0.00005  -0.00002  -0.00011  -0.00000   0.00039
  30       11F+3       -0.00001  -0.00047   0.00051  -0.00002  -0.00006
  31       11F-3       -0.00002   0.00003   0.00009   0.00001   0.00082
  32 2   C  1S          0.00002   0.46726  -0.00552  -0.00051  -0.04209
  33        2S         -0.00008   0.60691  -0.00712  -0.00057  -0.08685
  34        3S         -0.00196   0.04250   0.00061  -0.00046   0.13979
  35        4S          0.00330  -0.02726   0.00127   0.00640   0.10511
  36        5S         -0.00959   0.03737  -0.00621  -0.00448   0.00265
  37        6PX         0.00033  -0.00121  -0.00063   0.00052  -0.08935
  38        6PY        -0.00028   0.00058   0.00033  -0.00029   0.02531
  39        6PZ        -0.00009  -0.00035   0.00028  -0.00033   0.00764
  40        7PX        -0.00509   0.00083   0.00444  -0.00478  -0.03759
  41        7PY        -0.00051  -0.00183  -0.00262   0.00432   0.01079
  42        7PZ         0.00071   0.00323  -0.00325   0.00241  -0.00063
  43        8PX         0.00217  -0.00223   0.00165  -0.00532   0.00227
  44        8PY        -0.00022   0.00362  -0.00268   0.00446  -0.00280
  45        8PZ         0.00303  -0.00444  -0.00454   0.00340   0.00207
  46        9D 0       -0.00020   0.00009   0.00000  -0.00013  -0.00561
  47        9D+1       -0.00008  -0.00026  -0.00002   0.00002  -0.00168
  48        9D-1       -0.00005   0.00013  -0.00001   0.00002   0.00068
  49        9D+2        0.00066   0.00035   0.00022  -0.00004   0.00752
  50        9D-2        0.00011  -0.00097   0.00017   0.00005  -0.00514
  51       10D 0       -0.00243   0.00082   0.00382  -0.00319  -0.00264
  52       10D+1        0.00011   0.00254   0.00019   0.00237  -0.00355
  53       10D-1        0.00030  -0.00248  -0.00069  -0.00151   0.00215
  54       10D+2        0.00257   0.00050   0.00008  -0.00021   0.00454
  55       10D-2        0.00023   0.00057   0.00191  -0.00136  -0.00600
  56       11F 0       -0.00009  -0.00001   0.00024   0.00058  -0.00109
  57       11F+1        0.00053   0.00095  -0.00042  -0.00075   0.00424
  58       11F-1        0.00001  -0.00065   0.00058   0.00044  -0.00178
  59       11F+2        0.00013   0.00005   0.00018   0.00024   0.00017
  60       11F-2       -0.00001  -0.00053   0.00037  -0.00056  -0.00074
  61       11F+3       -0.00084  -0.00037  -0.00081   0.00001  -0.00096
  62       11F-3        0.00000  -0.00016   0.00011   0.00001   0.00110
  63 3   C  1S          0.00001   0.00548   0.46722   0.00001  -0.04134
  64        2S         -0.00006   0.00716   0.60703  -0.00003  -0.08532
  65        3S         -0.00248   0.00132   0.03971   0.00099   0.13914
  66        4S          0.00590   0.00225  -0.01610  -0.00547   0.09358
  67        5S         -0.00193  -0.01727   0.02203  -0.00768   0.01531
  68        6PX        -0.00029  -0.00003  -0.00007   0.00010  -0.01859
  69        6PY         0.00040  -0.00057  -0.00163  -0.00030  -0.09138
  70        6PZ         0.00009  -0.00009  -0.00026  -0.00012  -0.01184
  71        7PX        -0.00085   0.00110   0.00005  -0.00221  -0.00860
  72        7PY        -0.00533   0.00163   0.00125   0.00526  -0.03919
  73        7PZ        -0.00072   0.00058   0.00037   0.00202  -0.00543
  74        8PX         0.00096  -0.00250   0.00122  -0.00118   0.00038
  75        8PY         0.00014   0.00427  -0.00168   0.00251  -0.00455
  76        8PZ        -0.00061   0.00218   0.00046   0.00016  -0.00170
  77        9D 0       -0.00027   0.00006   0.00013  -0.00001  -0.00570
  78        9D+1        0.00009   0.00006  -0.00000  -0.00003   0.00032
  79        9D-1        0.00007  -0.00001   0.00017  -0.00001   0.00240
  80        9D+2       -0.00032   0.00002  -0.00107   0.00001  -0.00847
  81        9D-2        0.00062   0.00026  -0.00028  -0.00000   0.00325
  82       10D 0       -0.00238   0.00164   0.00162   0.00147  -0.00322
  83       10D+1       -0.00016   0.00045   0.00039   0.00089  -0.00005
  84       10D-1        0.00072  -0.00134  -0.00055  -0.00122   0.00230
  85       10D+2       -0.00104   0.00056  -0.00093   0.00071  -0.00635
  86       10D-2        0.00117   0.00009  -0.00034   0.00098   0.00124
  87       11F 0        0.00014  -0.00030   0.00062  -0.00000   0.00141
  88       11F+1        0.00027   0.00031  -0.00023  -0.00004   0.00040
  89       11F-1        0.00045  -0.00055   0.00182   0.00011   0.00415
  90       11F+2        0.00006  -0.00013   0.00033   0.00001   0.00115
  91       11F-2       -0.00011  -0.00033   0.00015  -0.00014   0.00009
  92       11F+3        0.00065   0.00068   0.00025   0.00008   0.00091
  93       11F-3        0.00001   0.00020  -0.00019  -0.00004   0.00120
  94 4   C  1S          0.00000   0.00047  -0.00000   0.46722  -0.00660
  95        2S         -0.00002   0.00071  -0.00004   0.60696  -0.01341
  96        3S         -0.00003   0.00014   0.00094   0.04060   0.02082
  97        4S          0.00173   0.00336  -0.00484  -0.01950   0.01260
  98        5S          0.00433  -0.01088  -0.00362   0.03570  -0.00132
  99        6PX        -0.00002  -0.00008  -0.00013  -0.00025  -0.00871
 100        6PY         0.00002   0.00012   0.00012   0.00019   0.00368
 101        6PZ        -0.00000   0.00019   0.00017   0.00049   0.00922
 102        7PX        -0.00113  -0.00034   0.00152   0.00062  -0.00405
 103        7PY        -0.00028  -0.00061  -0.00176  -0.00065   0.00160
 104        7PZ         0.00109   0.00084  -0.00290  -0.00065   0.00149
 105        8PX        -0.00119   0.00374   0.00120  -0.00009  -0.00159
 106        8PY         0.00104  -0.00196  -0.00078  -0.00010   0.00146
 107        8PZ         0.00106  -0.00359  -0.00142   0.00255  -0.00057
 108        9D 0       -0.00001  -0.00013   0.00000   0.00001   0.00005
 109        9D+1       -0.00001   0.00012  -0.00003  -0.00005  -0.00090
 110        9D-1        0.00001  -0.00004   0.00003   0.00004   0.00023
 111        9D+2        0.00014   0.00000   0.00003   0.00004   0.00037
 112        9D-2        0.00003   0.00001   0.00001  -0.00008  -0.00041
 113       10D 0        0.00009  -0.00048  -0.00004  -0.00036  -0.00221
 114       10D+1       -0.00041   0.00109   0.00139   0.00054  -0.00118
 115       10D-1        0.00044  -0.00097  -0.00107  -0.00034   0.00058
 116       10D+2       -0.00130  -0.00057  -0.00064  -0.00028   0.00121
 117       10D-2       -0.00044   0.00049   0.00036   0.00055  -0.00037
 118       11F 0        0.00003  -0.00041   0.00011   0.00038  -0.00050
 119       11F+1        0.00008   0.00089   0.00013  -0.00109   0.00002
 120       11F-1        0.00012  -0.00048   0.00004   0.00084  -0.00017
 121       11F+2       -0.00004  -0.00023   0.00002   0.00019   0.00058
 122       11F-2       -0.00006   0.00059   0.00019   0.00045  -0.00017
 123       11F+3        0.00001   0.00008  -0.00005   0.00061  -0.00011
 124       11F-3       -0.00001   0.00007  -0.00008   0.00122   0.00053
 125 5   H  1S          0.00009  -0.00105  -0.00003  -0.00002   0.01332
 126        2S          0.00091  -0.00389  -0.00106  -0.00098   0.01100
 127        3S         -0.00034  -0.00235   0.00210   0.00104  -0.00193
 128        4PX        -0.00018   0.00121   0.00031  -0.00027  -0.00264
 129        4PY         0.00003  -0.00110  -0.00034   0.00018   0.00095
 130        4PZ         0.00005   0.00215  -0.00021   0.00041  -0.00073
 131 6   H  1S          0.00008   0.00007  -0.00090  -0.00017   0.01211
 132        2S          0.00112  -0.00094  -0.00329  -0.00087   0.00961
 133        3S          0.00077   0.00040  -0.00353   0.00055   0.00089
 134        4PX         0.00003  -0.00017  -0.00015  -0.00008  -0.00047
 135        4PY        -0.00016   0.00048   0.00128   0.00027  -0.00235
 136        4PZ        -0.00004   0.00001   0.00248   0.00021  -0.00102
 137 7   H  1S          0.00007  -0.00001  -0.00091  -0.00014   0.01236
 138        2S          0.00130  -0.00155  -0.00356  -0.00093   0.01031
 139        3S          0.00033   0.00198  -0.00295   0.00020  -0.00024
 140        4PX         0.00003  -0.00015  -0.00036   0.00001  -0.00039
 141        4PY        -0.00021   0.00039   0.00188   0.00018  -0.00256
 142        4PZ         0.00000  -0.00005  -0.00206  -0.00018   0.00053
 143 8   H  1S          0.00016   0.00002   0.00002  -0.00063   0.00190
 144        2S          0.00100  -0.00007   0.00093  -0.00283   0.00119
 145        3S         -0.00050  -0.00176  -0.00055  -0.00610   0.00122
 146        4PX        -0.00015  -0.00001  -0.00019   0.00244  -0.00033
 147        4PY        -0.00016  -0.00017  -0.00002   0.00063  -0.00001
 148        4PZ        -0.00002  -0.00034  -0.00003  -0.00010   0.00022
 149 9   H  1S         -0.00014  -0.00009  -0.00008  -0.00066   0.00261
 150        2S         -0.00115  -0.00079  -0.00024  -0.00307   0.00265
 151        3S          0.00093  -0.00068  -0.00028  -0.00592   0.00172
 152        4PX        -0.00013   0.00015  -0.00006  -0.00003  -0.00029
 153        4PY        -0.00020  -0.00009  -0.00006  -0.00254   0.00049
 154        4PZ         0.00002  -0.00040  -0.00005  -0.00041   0.00056
 155 10  H  1S          0.00001  -0.00002  -0.00007  -0.00061   0.00397
 156        2S          0.00029  -0.00067  -0.00045  -0.00269   0.00459
 157        3S         -0.00042   0.00088   0.00013  -0.00533  -0.00037
 158        4PX        -0.00011   0.00010  -0.00014  -0.00123   0.00011
 159        4PY        -0.00015  -0.00011   0.00004   0.00112  -0.00025
 160        4PZ         0.00008  -0.00024  -0.00002  -0.00184   0.00102
                           6         7         8         9        10
                           O         O         O         O         O
     Eigenvalues --    -0.66978  -0.58980  -0.52994  -0.44772  -0.41359
   1 1   O  1S          0.02948   0.04731   0.01852  -0.01766  -0.02065
   2        2S          0.06910   0.11113   0.04360  -0.04169  -0.04878
   3        3S         -0.10318  -0.16831  -0.06743   0.06682   0.07882
   4        4S         -0.14755  -0.23829  -0.09053   0.08032   0.09288
   5        5S         -0.07313  -0.14788  -0.06575   0.06866   0.08209
   6        6PX         0.02116   0.02584   0.10682  -0.11077  -0.14326
   7        6PY        -0.02276   0.08260  -0.07652  -0.04140  -0.12223
   8        6PZ        -0.01519   0.01777   0.01861   0.12708  -0.09227
   9        7PX         0.00797   0.00930   0.07886  -0.08791  -0.11450
  10        7PY        -0.02105   0.05451  -0.05956  -0.03310  -0.09999
  11        7PZ        -0.01235   0.01390   0.01596   0.10297  -0.07539
  12        8PX         0.00649   0.00820   0.03214  -0.04464  -0.06521
  13        8PY        -0.00590   0.02372  -0.02105  -0.01674  -0.04912
  14        8PZ        -0.00445   0.00486   0.00642   0.04592  -0.03299
  15        9D 0        0.00018  -0.00072  -0.00071   0.00152   0.00203
  16        9D+1       -0.00059   0.00066   0.00073   0.00311  -0.00218
  17        9D-1       -0.00032   0.00024   0.00006   0.00210  -0.00147
  18        9D+2        0.00130  -0.00102   0.00456  -0.00207  -0.00147
  19        9D-2       -0.00037   0.00291  -0.00063  -0.00255  -0.00462
  20       10D 0        0.00270   0.00018  -0.00200   0.00553   0.00766
  21       10D+1       -0.00234   0.00236   0.00346   0.01149  -0.00737
  22       10D-1       -0.00097   0.00006   0.00025   0.00758  -0.00591
  23       10D+2        0.00228  -0.00295   0.01196  -0.00679  -0.00602
  24       10D-2       -0.00273   0.00576  -0.00150  -0.00928  -0.01730
  25       11F 0        0.00044  -0.00043  -0.00044  -0.00247   0.00179
  26       11F+1        0.00028  -0.00004  -0.00119   0.00136   0.00200
  27       11F-1        0.00041  -0.00057   0.00075   0.00108   0.00125
  28       11F+2       -0.00013   0.00024   0.00055   0.00064  -0.00002
  29       11F-2       -0.00014   0.00001   0.00030   0.00121  -0.00116
  30       11F+3        0.00036  -0.00072   0.00134  -0.00007   0.00048
  31       11F-3        0.00017   0.00101   0.00087  -0.00175  -0.00263
  32 2   C  1S         -0.05215  -0.01767  -0.06563   0.01018  -0.01224
  33        2S         -0.10898  -0.03695  -0.13845   0.02204  -0.02591
  34        3S          0.17443   0.06139   0.22508  -0.03941   0.03823
  35        4S          0.18511   0.04396   0.30331  -0.05539   0.05687
  36        5S          0.00390   0.02545   0.06609   0.03063   0.08483
  37        6PX         0.06879   0.01492   0.01257   0.10450   0.12874
  38        6PY        -0.01876   0.10484  -0.03613  -0.10684  -0.13985
  39        6PZ        -0.06435   0.04484   0.09707   0.15547  -0.09362
  40        7PX         0.02573   0.02757  -0.01161   0.06147   0.08064
  41        7PY         0.00012   0.04977  -0.00350  -0.06904  -0.10033
  42        7PZ        -0.03187   0.01779   0.04849   0.10273  -0.07329
  43        8PX         0.01515   0.00204   0.01406   0.00561   0.00921
  44        8PY        -0.00826   0.02023  -0.01053  -0.01323  -0.02667
  45        8PZ         0.00230   0.00357   0.01418   0.03464  -0.03068
  46        9D 0        0.00667  -0.00089   0.00187   0.00405   0.00701
  47        9D+1       -0.00229   0.00025   0.00139  -0.00144   0.00410
  48        9D-1        0.00127   0.00030  -0.00196   0.00013  -0.00293
  49        9D+2       -0.00253  -0.00771   0.00058  -0.00031  -0.00098
  50        9D-2       -0.00278  -0.00669  -0.00274   0.00383   0.00682
  51       10D 0       -0.00160   0.00684  -0.00624  -0.00139   0.00250
  52       10D+1       -0.00318  -0.00117  -0.00989  -0.01142   0.00595
  53       10D-1        0.00378   0.00209   0.00735   0.00765  -0.00406
  54       10D+2       -0.00091  -0.00753   0.00172   0.00203   0.00189
  55       10D-2       -0.00718  -0.00385  -0.00996   0.00745   0.00826
  56       11F 0       -0.00100  -0.00036  -0.00188  -0.00020   0.00167
  57       11F+1        0.00299   0.00043   0.00453  -0.00256   0.00103
  58       11F-1       -0.00200  -0.00058  -0.00284   0.00190  -0.00081
  59       11F+2       -0.00069  -0.00022  -0.00024   0.00065  -0.00080
  60       11F-2        0.00012  -0.00073  -0.00128  -0.00133   0.00306
  61       11F+3        0.00061   0.00263  -0.00003  -0.00135  -0.00170
  62       11F-3       -0.00110   0.00042  -0.00097  -0.00195  -0.00398
  63 3   C  1S         -0.00373  -0.08200   0.02983  -0.00512  -0.00087
  64        2S         -0.00757  -0.17195   0.06276  -0.01058  -0.00136
  65        3S          0.01091   0.27821  -0.09912   0.01339  -0.00601
  66        4S          0.00294   0.32614  -0.15287   0.03000   0.01760
  67        5S          0.01935   0.04935  -0.03551   0.01508   0.02451
  68        6PX         0.04526   0.04234   0.09132  -0.04885  -0.04130
  69        6PY         0.00774   0.04258  -0.08658   0.08772   0.21546
  70        6PZ        -0.01320   0.01101   0.02646   0.20982  -0.11673
  71        7PX         0.02604   0.03529   0.05257  -0.03569  -0.02683
  72        7PY         0.01048  -0.00447  -0.02076   0.04634   0.12169
  73        7PZ        -0.00823   0.00177   0.02196   0.13187  -0.07564
  74        8PX         0.00847   0.00818   0.01809  -0.01703  -0.01914
  75        8PY        -0.00372   0.01596  -0.01653   0.01828   0.04833
  76        8PZ        -0.00492   0.00498   0.00561   0.05618  -0.03364
  77        9D 0        0.00124   0.00481  -0.00467   0.00490   0.00824
  78        9D+1       -0.00105  -0.00031  -0.00089   0.00019   0.00197
  79        9D-1        0.00067  -0.00074   0.00027  -0.00244  -0.00451
  80        9D+2        0.00101  -0.00294  -0.00126   0.00400   0.00576
  81        9D-2       -0.00514  -0.00758  -0.00693   0.00430   0.00124
  82       10D 0        0.00351  -0.00857   0.00625  -0.00551  -0.00234
  83       10D+1       -0.00221  -0.00162   0.00201   0.00250   0.00155
  84       10D-1        0.00239   0.00352  -0.00698  -0.01553   0.00780
  85       10D+2        0.00252  -0.00961   0.00408   0.00016   0.00267
  86       10D-2       -0.00411  -0.01105  -0.00494   0.00447   0.00297
  87       11F 0        0.00018   0.00188  -0.00149  -0.00188   0.00025
  88       11F+1        0.00010  -0.00065  -0.00034  -0.00000   0.00016
  89       11F-1       -0.00076   0.00550  -0.00168   0.00114  -0.00169
  90       11F+2        0.00010   0.00087  -0.00077  -0.00274   0.00059
  91       11F-2        0.00066   0.00090  -0.00058  -0.00101  -0.00037
  92       11F+3       -0.00120  -0.00151  -0.00244   0.00145   0.00138
  93       11F-3       -0.00039  -0.00122   0.00159  -0.00177  -0.00298
  94 4   C  1S         -0.08337   0.02462   0.03807  -0.00806   0.01100
  95        2S         -0.17400   0.05166   0.08004  -0.01697   0.02300
  96        3S          0.27633  -0.08231  -0.12863   0.02752  -0.03759
  97        4S          0.28522  -0.09939  -0.15491   0.03029  -0.04815
  98        5S          0.06713  -0.02347  -0.06526   0.02808  -0.06442
  99        6PX        -0.00865  -0.00052  -0.02696   0.09602  -0.06098
 100        6PY         0.00907   0.02190   0.00742  -0.08075  -0.00536
 101        6PZ         0.03319   0.01428   0.09708  -0.01352   0.15489
 102        7PX        -0.01109   0.00398  -0.01294   0.06127  -0.03796
 103        7PY         0.00992   0.01246   0.00262  -0.05205  -0.00450
 104        7PZ         0.03131   0.00038   0.04841  -0.01010   0.09912
 105        8PX        -0.00070   0.00266  -0.00579   0.02508  -0.01799
 106        8PY         0.00362   0.00376  -0.00099  -0.02641  -0.00790
 107        8PZ         0.00494   0.00256   0.01546   0.00202   0.04220
 108        9D 0        0.00245   0.00057   0.00445  -0.00196   0.00602
 109        9D+1       -0.00170   0.00010  -0.00346   0.00232  -0.00557
 110        9D-1        0.00125   0.00134   0.00178  -0.00129   0.00270
 111        9D+2        0.00027  -0.00027   0.00022  -0.00111  -0.00026
 112        9D-2       -0.00048  -0.00063  -0.00009   0.00415  -0.00042
 113       10D 0        0.00591  -0.00276   0.00043   0.00724   0.00363
 114       10D+1       -0.00531   0.00355   0.00227   0.00553   0.00081
 115       10D-1        0.00434   0.00149  -0.00214  -0.00630  -0.00259
 116       10D+2       -0.00030  -0.00355   0.00064  -0.00049   0.00054
 117       10D-2       -0.00243  -0.00113   0.00105   0.00097  -0.00001
 118       11F 0        0.00192  -0.00062  -0.00028   0.00225   0.00028
 119       11F+1       -0.00438   0.00190   0.00210  -0.00052  -0.00009
 120       11F-1        0.00318  -0.00062  -0.00167   0.00009  -0.00044
 121       11F+2        0.00085  -0.00099  -0.00033  -0.00045   0.00001
 122       11F-2       -0.00004  -0.00042   0.00047   0.00169   0.00037
 123       11F+3        0.00159  -0.00001  -0.00087   0.00003  -0.00020
 124       11F-3        0.00327  -0.00095  -0.00165  -0.00051  -0.00062
 125 5   H  1S          0.04082   0.01746   0.10625   0.08281   0.03780
 126        2S          0.04522   0.01889   0.13290   0.11580   0.04863
 127        3S          0.00198   0.00518   0.02487   0.03093   0.02281
 128        4PX        -0.00106  -0.00059  -0.00801  -0.00504   0.00195
 129        4PY         0.00206   0.00403   0.00663   0.00449  -0.00257
 130        4PZ        -0.00663  -0.00052  -0.01117  -0.00909  -0.00774
 131 6   H  1S          0.00058   0.08839  -0.03759   0.10757  -0.00332
 132        2S         -0.00050   0.10279  -0.04546   0.14498  -0.00588
 133        3S          0.00126   0.01793  -0.01051   0.03551   0.00022
 134        4PX         0.00123   0.00199   0.00257  -0.00031  -0.00144
 135        4PY         0.00026  -0.00546   0.00005  -0.00723   0.00652
 136        4PZ        -0.00021  -0.01182   0.00600  -0.01175  -0.00277
 137 7   H  1S          0.00706   0.08407  -0.06533  -0.03591   0.11188
 138        2S          0.00888   0.09818  -0.08216  -0.05282   0.15398
 139        3S         -0.00081   0.01955  -0.01592  -0.00931   0.04733
 140        4PX         0.00163   0.00293   0.00094  -0.00296   0.00147
 141        4PY        -0.00109  -0.00756   0.00602   0.00817  -0.00742
 142        4PZ         0.00050   0.00963  -0.00717   0.00094   0.01153
 143 8   H  1S          0.06743  -0.02122  -0.04999   0.04288  -0.04570
 144        2S          0.07075  -0.02168  -0.05648   0.05697  -0.05891
 145        3S          0.00774  -0.00875  -0.01095   0.01662  -0.01288
 146        4PX        -0.01002   0.00245   0.00613  -0.00430   0.00494
 147        4PY        -0.00254   0.00151   0.00228  -0.00449   0.00201
 148        4PZ         0.00153   0.00057   0.00316   0.00057   0.00502
 149 9   H  1S          0.06467  -0.03180  -0.04698   0.04606  -0.02051
 150        2S          0.06647  -0.03589  -0.05182   0.05988  -0.02511
 151        3S          0.01031  -0.00552  -0.01170   0.01075  -0.00893
 152        4PX         0.00011  -0.00014  -0.00125   0.00329  -0.00260
 153        4PY         0.00957  -0.00449  -0.00635   0.00549  -0.00296
 154        4PZ         0.00257  -0.00051   0.00261   0.00135   0.00514
 155 10  H  1S          0.06401  -0.02252  -0.06294  -0.02617  -0.05415
 156        2S          0.06638  -0.02304  -0.07470  -0.04326  -0.07215
 157        3S          0.00899  -0.00411  -0.01465  -0.00496  -0.01231
 158        4PX         0.00433  -0.00168  -0.00529   0.00106  -0.00724
 159        4PY        -0.00381   0.00250   0.00426  -0.00079   0.00450
 160        4PZ         0.00793  -0.00152  -0.00517  -0.00674  -0.00185
                          11        12        13        14        15
                           O         O         O         O         O
     Eigenvalues --    -0.37684  -0.35601  -0.32909  -0.32119  -0.26342
   1 1   O  1S         -0.00976  -0.01214  -0.00231   0.00202  -0.01639
   2        2S         -0.02315  -0.02872  -0.00551   0.00483  -0.03884
   3        3S          0.03779   0.04642   0.00933  -0.00805   0.06316
   4        4S          0.04662   0.05688   0.00852  -0.01011   0.08293
   5        5S          0.03786   0.05688   0.01508  -0.01075   0.06541
   6        6PX        -0.11788  -0.05163   0.09019  -0.14718  -0.23716
   7        6PY         0.11500  -0.16769  -0.17052   0.20273  -0.10359
   8        6PZ         0.01520   0.02005  -0.00361   0.05173  -0.03348
   9        7PX        -0.09609  -0.03900   0.07340  -0.12068  -0.18549
  10        7PY         0.09730  -0.13422  -0.13757   0.16627  -0.08003
  11        7PZ         0.01340   0.01693  -0.00279   0.04290  -0.02659
  12        8PX        -0.05413  -0.03182   0.03863  -0.06379  -0.15702
  13        8PY         0.04372  -0.07524  -0.07643   0.08915  -0.07569
  14        8PZ         0.00524   0.00878  -0.00216   0.02441  -0.01968
  15        9D 0        0.00030   0.00173  -0.00024   0.00019   0.00216
  16        9D+1        0.00039   0.00015   0.00078   0.00126  -0.00015
  17        9D-1       -0.00024   0.00046  -0.00143   0.00010  -0.00055
  18        9D+2       -0.00344   0.00167   0.00357  -0.00492  -0.00060
  19        9D-2        0.00157  -0.00291  -0.00189   0.00168   0.00011
  20       10D 0        0.00057   0.00667  -0.00122   0.00084   0.00855
  21       10D+1        0.00196   0.00101   0.00388   0.00568  -0.00029
  22       10D-1       -0.00166   0.00245  -0.00648  -0.00071  -0.00212
  23       10D+2       -0.01213   0.00487   0.01133  -0.01677  -0.00247
  24       10D-2        0.00658  -0.00986  -0.00612   0.00486  -0.00014
  25       11F 0       -0.00033  -0.00032   0.00016  -0.00106   0.00035
  26       11F+1        0.00077   0.00092  -0.00107   0.00127   0.00172
  27       11F-1       -0.00109   0.00176   0.00103  -0.00152   0.00068
  28       11F+2        0.00042  -0.00011   0.00182   0.00072   0.00059
  29       11F-2       -0.00043   0.00032  -0.00066  -0.00028  -0.00047
  30       11F+3       -0.00170   0.00128   0.00176  -0.00226  -0.00046
  31       11F-3        0.00032  -0.00025   0.00013  -0.00088   0.00208
  32 2   C  1S         -0.00181  -0.00302   0.00818  -0.00379  -0.00259
  33        2S         -0.00392  -0.00653   0.01777  -0.00773  -0.00578
  34        3S          0.00444   0.01032  -0.02663   0.00566   0.00624
  35        4S          0.01056   0.01081  -0.06182   0.04435   0.02661
  36        5S          0.03219   0.02116  -0.00177  -0.02850   0.04066
  37        6PX         0.12784   0.01248  -0.09179   0.13218   0.07804
  38        6PY         0.07446   0.01934  -0.00955  -0.02338   0.25643
  39        6PZ         0.00991  -0.01999   0.21563   0.13296   0.02398
  40        7PX         0.08422   0.00727  -0.06216   0.06965   0.05244
  41        7PY         0.07001   0.01125  -0.01574   0.01291   0.19993
  42        7PZ         0.01018  -0.01181   0.14635   0.09035   0.02440
  43        8PX         0.02924  -0.00282  -0.04054   0.06724   0.02007
  44        8PY         0.02856  -0.00965  -0.01138  -0.01197   0.10213
  45        8PZ        -0.00793  -0.00009   0.07194   0.04030   0.01082
  46        9D 0        0.00041   0.00532  -0.00746   0.00847  -0.00351
  47        9D+1       -0.00272  -0.00116   0.00761   0.00727   0.00167
  48        9D-1       -0.00446  -0.00194  -0.00913  -0.00600   0.00437
  49        9D+2       -0.00064  -0.00083   0.00126  -0.00518  -0.01534
  50        9D-2       -0.00452   0.00832   0.00454  -0.00623  -0.00358
  51       10D 0       -0.00994   0.01591  -0.00679   0.00474  -0.00527
  52       10D+1       -0.00837   0.00435   0.00307   0.00759   0.00710
  53       10D-1       -0.00646  -0.01047  -0.01263  -0.00367   0.01106
  54       10D+2        0.01157   0.00622   0.00402  -0.01029  -0.01793
  55       10D-2       -0.00688   0.01765   0.01431  -0.01757  -0.00104
  56       11F 0        0.00152  -0.00335   0.00213  -0.00173   0.00078
  57       11F+1        0.00164  -0.00010  -0.00092  -0.00139  -0.00132
  58       11F-1        0.00130   0.00254   0.00109  -0.00111  -0.00098
  59       11F+2       -0.00198  -0.00125   0.00132   0.00214  -0.00031
  60       11F-2       -0.00017  -0.00219  -0.00032  -0.00140  -0.00015
  61       11F+3        0.00239  -0.00016  -0.00097   0.00171   0.00472
  62       11F-3        0.00047  -0.00254  -0.00186   0.00246  -0.00289
  63 3   C  1S          0.00633   0.00667  -0.00081   0.00455  -0.00547
  64        2S          0.01327   0.01441  -0.00161   0.00959  -0.01219
  65        3S         -0.01971  -0.03065  -0.00177  -0.01115   0.02308
  66        4S         -0.03483  -0.01348   0.01672  -0.04900   0.01020
  67        5S         -0.01742   0.00980  -0.01018   0.03621   0.10668
  68        6PX        -0.02316   0.07647   0.07042  -0.10065   0.26438
  69        6PY        -0.07071   0.07436   0.08801  -0.06786  -0.06554
  70        6PZ        -0.07437   0.11687  -0.17054  -0.08615  -0.01852
  71        7PX        -0.02027   0.06461   0.06302  -0.08987   0.19645
  72        7PY        -0.03545   0.03786   0.04933  -0.02523  -0.04012
  73        7PZ        -0.04529   0.07396  -0.10674  -0.04627  -0.01577
  74        8PX        -0.01688   0.02391   0.03325  -0.04231   0.10464
  75        8PY        -0.02217   0.00816   0.03438  -0.04938  -0.04983
  76        8PZ        -0.01043   0.03590  -0.05619  -0.03973  -0.01707
  77        9D 0       -0.00507   0.00504  -0.00005  -0.00518  -0.00316
  78        9D+1        0.00012  -0.00254   0.00349   0.00259  -0.00182
  79        9D-1       -0.00178   0.00286  -0.01152  -0.00657   0.00172
  80        9D+2        0.00387   0.00282  -0.00451   0.00443   0.00677
  81        9D-2        0.00277  -0.00451  -0.00685   0.00638  -0.01151
  82       10D 0        0.00137  -0.00028  -0.00180   0.00649   0.00130
  83       10D+1        0.00046  -0.00377   0.00335   0.00538  -0.00027
  84       10D-1       -0.00113  -0.00064  -0.00388  -0.00808  -0.00064
  85       10D+2        0.01216   0.00040  -0.00840   0.01270   0.01302
  86       10D-2        0.00584  -0.00623  -0.01063   0.01221   0.00047
  87       11F 0        0.00004  -0.00024  -0.00145  -0.00141   0.00003
  88       11F+1        0.00024   0.00023  -0.00078   0.00029   0.00021
  89       11F-1       -0.00039  -0.00141   0.00071  -0.00027  -0.00085
  90       11F+2       -0.00039  -0.00120   0.00048  -0.00067  -0.00037
  91       11F-2        0.00005   0.00097  -0.00083  -0.00138   0.00061
  92       11F+3        0.00117  -0.00118  -0.00232   0.00235  -0.00397
  93       11F-3       -0.00238  -0.00124   0.00115  -0.00230  -0.00387
  94 4   C  1S          0.00132  -0.00057   0.00913   0.00159   0.00373
  95        2S          0.00270  -0.00128   0.01999   0.00344   0.00800
  96        3S         -0.00506   0.00169  -0.03541  -0.00602  -0.01495
  97        4S         -0.00246   0.00500  -0.04621  -0.00594  -0.01225
  98        5S         -0.02146  -0.00341   0.00022  -0.01156  -0.03772
  99        6PX         0.21001  -0.09586   0.13195  -0.15652  -0.01479
 100        6PY         0.16556   0.25591  -0.01787   0.01087  -0.11091
 101        6PZ         0.08271  -0.08636  -0.19288  -0.12239  -0.02573
 102        7PX         0.13471  -0.06106   0.08862  -0.10139  -0.00289
 103        7PY         0.10938   0.16584  -0.01716   0.00652  -0.06692
 104        7PZ         0.05613  -0.05394  -0.13528  -0.07873  -0.01834
 105        8PX         0.07163  -0.04631   0.04672  -0.05759  -0.02088
 106        8PY         0.05139   0.10335   0.00481   0.00484  -0.06099
 107        8PZ         0.02789  -0.03844  -0.06319  -0.05286  -0.01400
 108        9D 0       -0.00030   0.00668  -0.00723   0.00621  -0.00362
 109        9D+1       -0.00069   0.00411   0.00636   0.00721   0.00167
 110        9D-1        0.00243  -0.00523  -0.00501  -0.00446   0.00588
 111        9D+2        0.00929   0.00657   0.00174  -0.00551  -0.00855
 112        9D-2        0.00386  -0.00404   0.00294  -0.00446  -0.00157
 113       10D 0        0.00213   0.00198  -0.00176   0.00813  -0.00207
 114       10D+1        0.00089  -0.00130   0.00057   0.00589   0.00500
 115       10D-1        0.00149  -0.00053  -0.00481  -0.00056   0.01362
 116       10D+2       -0.00428  -0.00250  -0.00061  -0.00392  -0.00508
 117       10D-2       -0.00220   0.00439  -0.00074   0.00227  -0.00331
 118       11F 0        0.00063   0.00046  -0.00054   0.00190  -0.00061
 119       11F+1        0.00069  -0.00001   0.00126   0.00073   0.00084
 120       11F-1        0.00131   0.00024  -0.00122  -0.00014   0.00162
 121       11F+2       -0.00068   0.00007   0.00017  -0.00113  -0.00206
 122       11F-2       -0.00015  -0.00003   0.00043   0.00038  -0.00112
 123       11F+3        0.00016   0.00002  -0.00031   0.00041   0.00081
 124       11F-3       -0.00011   0.00018  -0.00057  -0.00027  -0.00025
 125 5   H  1S          0.02172  -0.00489   0.06418   0.11155  -0.02612
 126        2S          0.03449  -0.01709   0.09583   0.16316  -0.04423
 127        3S          0.01303  -0.00347   0.05366   0.09358  -0.03591
 128        4PX         0.00300  -0.00012  -0.00768  -0.00297   0.00496
 129        4PY         0.00386   0.00089   0.00356   0.00620   0.00788
 130        4PZ        -0.00343   0.00253  -0.00210  -0.00844   0.00402
 131 6   H  1S         -0.06012   0.06540  -0.06928  -0.07026  -0.02395
 132        2S         -0.08708   0.09267  -0.10446  -0.10840  -0.03855
 133        3S         -0.03981   0.04398  -0.05566  -0.04577  -0.03612
 134        4PX        -0.00145   0.00301   0.00251  -0.00392   0.01032
 135        4PY         0.00192  -0.00220   0.00703   0.00151  -0.00106
 136        4PZ         0.00664  -0.00625   0.00465   0.00744   0.00226
 137 7   H  1S         -0.00315  -0.03077   0.10916   0.01676  -0.03223
 138        2S         -0.00326  -0.04228   0.16221   0.02333  -0.05551
 139        3S          0.00345  -0.01391   0.08779   0.02070  -0.05438
 140        4PX        -0.00057   0.00289   0.00473  -0.00338   0.00907
 141        4PY        -0.00221   0.00453  -0.00674  -0.00398   0.00050
 142        4PZ        -0.00223  -0.00111   0.00727  -0.00158  -0.00386
 143 8   H  1S          0.12985  -0.00899   0.06374  -0.09013  -0.03759
 144        2S          0.18550  -0.01215   0.09313  -0.13118  -0.06000
 145        3S          0.07625   0.00314   0.05075  -0.07637  -0.01740
 146        4PX        -0.01470  -0.00182  -0.00564   0.00732   0.00461
 147        4PY         0.00017   0.00960  -0.00337   0.00400  -0.00200
 148        4PZ         0.00555  -0.00299  -0.00627  -0.00459  -0.00039
 149 9   H  1S         -0.09953  -0.12969   0.01187   0.00555   0.07597
 150        2S         -0.14089  -0.18612   0.01471   0.00976   0.11486
 151        3S         -0.05443  -0.07132   0.01971   0.00403   0.08599
 152        4PX         0.00740  -0.00405   0.00440  -0.00531   0.00059
 153        4PY        -0.01132  -0.01272   0.00133   0.00149   0.00596
 154        4PZ        -0.00095  -0.00747  -0.00644  -0.00406  -0.00036
 155 10  H  1S         -0.04822   0.12499   0.03343   0.10379  -0.02251
 156        2S         -0.06877   0.17662   0.04701   0.15322  -0.03666
 157        3S         -0.01995   0.06475   0.02969   0.08271  -0.02224
 158        4PX         0.00342   0.00659   0.00686   0.00205  -0.00197
 159        4PY         0.00952  -0.00001  -0.00223  -0.00627  -0.00244
 160        4PZ        -0.00390   0.01324  -0.00273   0.00772  -0.00287
                          16        17        18        19        20
                           O         V         V         V         V
     Eigenvalues --    -0.21966   0.02570   0.04282   0.05007   0.05091
   1 1   O  1S         -0.00075   0.00326  -0.03043   0.01114  -0.00358
   2        2S         -0.00169   0.00811  -0.07463   0.02741  -0.00867
   3        3S          0.00168  -0.01581   0.14853  -0.05623   0.01499
   4        4S          0.01087  -0.00665   0.03804  -0.00760   0.02442
   5        5S         -0.03283  -0.18437   1.27232  -0.48421   0.09345
   6        6PX         0.00917  -0.03737   0.06077  -0.09792   0.06030
   7        6PY        -0.06472  -0.05462   0.22083   0.03227  -0.05199
   8        6PZ         0.44903  -0.04565   0.01718   0.04002   0.00114
   9        7PX         0.00648  -0.05427   0.08855  -0.08456   0.05818
  10        7PY        -0.05340  -0.06614   0.20288   0.00039  -0.02921
  11        7PZ         0.35762  -0.03687   0.01725   0.01882  -0.00503
  12        8PX        -0.00452  -0.01955   0.26754  -0.12249   0.02218
  13        8PY        -0.03451  -0.05405   0.43685  -0.10681  -0.05202
  14        8PZ         0.29623  -0.08283   0.00531   0.13763   0.08024
  15        9D 0        0.00027  -0.00106   0.00231  -0.00052   0.00081
  16        9D+1        0.00357   0.00079   0.00034  -0.00207  -0.00130
  17        9D-1        0.00230   0.00006  -0.00075  -0.00073  -0.00158
  18        9D+2        0.00049  -0.00032   0.00138  -0.00140   0.00064
  19        9D-2       -0.00038  -0.00082  -0.00172   0.00091   0.00107
  20       10D 0        0.00096  -0.00075  -0.01477   0.00210   0.00350
  21       10D+1        0.01535   0.00003  -0.00001  -0.00075   0.00198
  22       10D-1        0.00862  -0.00088   0.00264  -0.00297  -0.00313
  23       10D+2        0.00143   0.00146   0.00524   0.00770  -0.00179
  24       10D-2       -0.00117  -0.00525   0.01610  -0.01258   0.00639
  25       11F 0       -0.00324  -0.00007  -0.00044   0.00051   0.00057
  26       11F+1       -0.00012   0.00021  -0.00131   0.00058   0.00006
  27       11F-1        0.00089   0.00013  -0.00147   0.00010   0.00003
  28       11F+2        0.00077   0.00037  -0.00033   0.00007   0.00056
  29       11F-2        0.00144  -0.00022   0.00048  -0.00074  -0.00061
  30       11F+3        0.00018   0.00081  -0.00068   0.00040  -0.00002
  31       11F-3        0.00012  -0.00077   0.00017  -0.00060   0.00142
  32 2   C  1S         -0.00108  -0.01905   0.01991   0.01812   0.01568
  33        2S         -0.00254  -0.04024   0.04367   0.03897   0.03312
  34        3S          0.00589   0.08353  -0.07449  -0.05359  -0.05711
  35        4S          0.00009   0.03861  -0.09704  -0.25189  -0.12969
  36        5S          0.05767  -0.14169  -1.97197  -2.68603  -0.95726
  37        6PX         0.00162   0.02401   0.02101  -0.15701  -0.00103
  38        6PY         0.02184  -0.01788  -0.14080  -0.06622   0.14016
  39        6PZ        -0.07466   0.09252   0.00201  -0.10131  -0.04561
  40        7PX         0.00124   0.01878   0.01807   0.01310  -0.08126
  41        7PY         0.01242  -0.02976  -0.06288  -0.24543   0.18710
  42        7PZ        -0.04597   0.04205   0.05050  -0.03374   0.10038
  43        8PX        -0.05516  -0.07758   0.32929  -0.41037  -0.65995
  44        8PY        -0.00447   0.00931  -0.40775  -0.47496   1.06934
  45        8PZ        -0.03634   1.12923   0.49549  -0.54892   0.37280
  46        9D 0        0.00195   0.00129  -0.00347   0.00364   0.00614
  47        9D+1       -0.01601  -0.00134  -0.00086   0.00369   0.00142
  48        9D-1        0.00270   0.00139   0.00136  -0.00425  -0.00614
  49        9D+2       -0.00229  -0.00252   0.00708  -0.01245   0.00789
  50        9D-2        0.00153   0.00082   0.00011  -0.00463  -0.00176
  51       10D 0        0.00170  -0.00981  -0.03318   0.08794  -0.03429
  52       10D+1       -0.02932  -0.02660   0.00776   0.09181   0.06218
  53       10D-1       -0.00174   0.02769   0.01262  -0.08800  -0.04519
  54       10D+2       -0.00253   0.00726  -0.04036  -0.01216   0.00587
  55       10D-2        0.00380   0.02943  -0.01607   0.04452  -0.01736
  56       11F 0       -0.00423  -0.00033   0.00026   0.00282   0.00365
  57       11F+1       -0.00072  -0.00147  -0.00180  -0.00073   0.00231
  58       11F-1       -0.00034   0.00279  -0.00104  -0.00384  -0.00162
  59       11F+2        0.00564  -0.00132   0.00005   0.00172   0.00151
  60       11F-2        0.00152   0.00402  -0.00013  -0.00360  -0.00352
  61       11F+3        0.00065  -0.00049  -0.00187  -0.00263   0.00100
  62       11F-3       -0.00093  -0.00155  -0.00030  -0.00177   0.00064
  63 3   C  1S         -0.00113  -0.02447   0.01636  -0.03234   0.02963
  64        2S         -0.00244  -0.05114   0.03437  -0.06951   0.06346
  65        3S          0.00412   0.06661  -0.02491   0.10574  -0.11404
  66        4S          0.00896   0.30033  -0.33842   0.33036  -0.17714
  67        5S         -0.02391   0.70387   0.41572   2.80066  -2.59667
  68        6PX         0.01340  -0.03839   0.20216   0.06806  -0.05467
  69        6PY         0.00443   0.05890   0.10943   0.05607  -0.06297
  70        6PZ        -0.07509   0.00325   0.00827  -0.09620  -0.11800
  71        7PX         0.01318   0.00285   0.18735   0.11877  -0.07626
  72        7PY        -0.00111  -0.03799   0.23521  -0.22508   0.03867
  73        7PZ        -0.04959  -0.00024   0.02468  -0.06606  -0.01962
  74        8PX         0.00981  -0.31422   0.94095   0.42088  -0.35827
  75        8PY         0.00664   0.32748   0.35932  -0.34723   0.15305
  76        8PZ         0.04943  -0.26316  -0.08997  -0.50773  -0.55009
  77        9D 0       -0.00324  -0.00422  -0.00832   0.00478   0.00535
  78        9D+1       -0.00556   0.00145   0.00491  -0.00256  -0.00188
  79        9D-1       -0.01518  -0.00273  -0.00099   0.00538   0.00453
  80        9D+2       -0.00210   0.00343  -0.00696   0.00380  -0.00435
  81        9D-2       -0.00088  -0.00765   0.02755   0.00442  -0.00599
  82       10D 0       -0.00514  -0.04105   0.03676  -0.09717   0.06447
  83       10D+1       -0.02143  -0.00332   0.00370  -0.01141   0.00748
  84       10D-1       -0.01800   0.02018  -0.00345   0.05770   0.02333
  85       10D+2       -0.00226  -0.01487   0.00607  -0.04211   0.02021
  86       10D-2        0.00198  -0.01032   0.02491  -0.02379   0.01428
  87       11F 0       -0.00349  -0.00065  -0.00007   0.00074   0.00333
  88       11F+1        0.00091   0.00087   0.00286   0.00153  -0.00103
  89       11F-1        0.00098  -0.00097   0.00061  -0.00199   0.00279
  90       11F+2       -0.00220  -0.00046  -0.00015  -0.00315  -0.00409
  91       11F-2        0.00543  -0.00123  -0.00113  -0.00113  -0.00183
  92       11F+3        0.00048  -0.00191   0.00173  -0.00529   0.00177
  93       11F-3        0.00043   0.00018  -0.00046   0.00229   0.00115
  94 4   C  1S         -0.01002  -0.03562  -0.01584  -0.00301  -0.02713
  95        2S         -0.02173  -0.07821  -0.03444  -0.00662  -0.05962
  96        3S          0.03988   0.21885   0.07740   0.01341   0.14251
  97        4S          0.04021  -0.23560  -0.01071   0.02926  -0.00374
  98        5S          0.08978   4.48051   2.13603   0.39877   3.39321
  99        6PX        -0.05196   0.06362  -0.00985  -0.07544   0.03077
 100        6PY         0.00803  -0.02348  -0.04657   0.04852   0.01396
 101        6PZ         0.07878  -0.09408  -0.00935  -0.05011  -0.05097
 102        7PX        -0.04547  -0.00223  -0.02642  -0.02648  -0.01113
 103        7PY         0.00248   0.00831   0.00373  -0.00548   0.02924
 104        7PZ         0.05944  -0.04513   0.06246   0.01808   0.09081
 105        8PX         0.02977  -0.06294  -0.25331  -0.20865  -0.01627
 106        8PY         0.06398  -0.02648   0.07877   0.16158  -0.00172
 107        8PZ         0.03780  -0.07938   0.21585  -0.01168   0.35376
 108        9D 0        0.00194   0.00398   0.00404  -0.00778  -0.00583
 109        9D+1       -0.00206  -0.00041   0.00353  -0.00682   0.00172
 110        9D-1        0.00201  -0.00017  -0.00562  -0.00268   0.00644
 111        9D+2       -0.00273   0.00152  -0.00081   0.00739  -0.00493
 112        9D-2       -0.00105   0.00288   0.00201   0.00045  -0.00434
 113       10D 0        0.00126   0.04961   0.02584  -0.01031   0.04392
 114       10D+1        0.00101  -0.02696  -0.02640  -0.03661  -0.06245
 115       10D-1        0.00397   0.01128   0.00846   0.01311   0.05440
 116       10D+2       -0.00683  -0.00573   0.03566   0.00342  -0.00905
 117       10D-2       -0.00290  -0.03488  -0.00582   0.04158  -0.00653
 118       11F 0        0.00046  -0.00067   0.00019   0.00088   0.00026
 119       11F+1       -0.00063   0.00575  -0.00148   0.00035   0.00290
 120       11F-1        0.00097  -0.00236  -0.00352  -0.00509   0.00053
 121       11F+2       -0.00054  -0.00065  -0.00070   0.00161   0.00089
 122       11F-2       -0.00012  -0.00271  -0.00176  -0.00483  -0.00889
 123       11F+3        0.00076  -0.00603  -0.00080   0.00104  -0.00373
 124       11F-3       -0.00005  -0.01071  -0.00442   0.00254  -0.00508
 125 5   H  1S         -0.06017  -0.00191   0.00756   0.03049   0.03040
 126        2S         -0.09685   0.13362   0.03976  -0.14582  -0.06327
 127        3S         -0.08390  -1.24003  -0.09565   1.74681   1.22890
 128        4PX        -0.00016  -0.01536   0.00235   0.01336   0.01189
 129        4PY        -0.00243   0.01062  -0.00081  -0.03135  -0.00125
 130        4PZ         0.00245  -0.02232  -0.00293   0.03591   0.02839
 131 6   H  1S         -0.06080  -0.02552  -0.00480  -0.00417   0.02621
 132        2S         -0.10402   0.03784  -0.05068   0.03947  -0.15039
 133        3S         -0.13106  -0.61017   0.00858  -0.27093   1.84659
 134        4PX        -0.00147  -0.00424   0.02263   0.00611  -0.00668
 135        4PY         0.00056  -0.00648   0.01331  -0.01068   0.01631
 136        4PZ         0.00298  -0.01410   0.00123  -0.00823   0.04174
 137 7   H  1S          0.05750  -0.00305   0.00365  -0.02569   0.01965
 138        2S          0.10388   0.08309  -0.02483   0.13858   0.03547
 139        3S          0.11653  -0.87871  -0.00118  -1.64112   0.26656
 140        4PX         0.00308  -0.00458   0.02156   0.01367  -0.00501
 141        4PY        -0.00221  -0.01031   0.01370  -0.03348   0.00214
 142        4PZ         0.00275   0.01949   0.00214   0.02955  -0.00176
 143 8   H  1S         -0.02377  -0.00590  -0.01394   0.03439  -0.01861
 144        2S         -0.03709   0.15647  -0.06072   0.00311   0.04518
 145        3S         -0.10243  -1.52899  -0.35628   0.49185  -1.16169
 146        4PX        -0.00053  -0.04159  -0.00382   0.01247  -0.02428
 147        4PY         0.00101  -0.01176   0.00102   0.00064  -0.00846
 148        4PZ         0.00276  -0.00430   0.00216  -0.00518   0.00389
 149 9   H  1S          0.00552  -0.01828  -0.01184  -0.02115   0.02194
 150        2S          0.01199   0.05142   0.08434  -0.10193   0.07107
 151        3S          0.03022  -1.50110  -0.81332   0.07198  -0.70038
 152        4PX        -0.00200  -0.00031   0.00118  -0.00171   0.00564
 153        4PY         0.00006   0.03432   0.02388  -0.00813   0.01572
 154        4PZ         0.00295  -0.00066   0.00717   0.00202  -0.00059
 155 10  H  1S         -0.00998  -0.00587   0.01543  -0.01442  -0.02153
 156        2S         -0.01588   0.02066   0.05602   0.12643   0.09681
 157        3S         -0.05283  -1.34482  -0.42686  -0.82802  -1.11164
 158        4PX        -0.00107   0.01656   0.00834   0.01009   0.01326
 159        4PY         0.00121  -0.01751  -0.00461  -0.01235  -0.01113
 160        4PZ         0.00146   0.01357   0.00696   0.02537   0.02803
                          21        22        23        24        25
                           V         V         V         V         V
     Eigenvalues --     0.06466   0.08605   0.09141   0.10254   0.13895
   1 1   O  1S          0.02263   0.00268   0.00061  -0.00277  -0.00285
   2        2S          0.05553   0.00624   0.00179  -0.00665  -0.00620
   3        3S         -0.11148  -0.00896  -0.00689   0.01221  -0.00048
   4        4S         -0.02925  -0.03926   0.02657   0.01676   0.07591
   5        5S         -0.88421   0.25794  -0.21845  -0.09124  -0.07463
   6        6PX        -0.20123  -0.05175  -0.05946   0.01569  -0.04688
   7        6PY         0.08055   0.04059   0.10054  -0.03203   0.01708
   8        6PZ        -0.00701   0.04366   0.00262   0.06443  -0.00353
   9        7PX        -0.18394  -0.03353  -0.06327   0.00042  -0.02687
  10        7PY         0.05743   0.05874   0.08488  -0.03409   0.01868
  11        7PZ        -0.00483   0.02858   0.00183   0.03799  -0.00668
  12        8PX        -0.48575  -0.05619  -0.19305   0.04182  -0.12019
  13        8PY         0.09679   0.14511   0.27654  -0.05785   0.25735
  14        8PZ        -0.03487   0.11236   0.05847   0.19370   0.13061
  15        9D 0       -0.00160  -0.00036  -0.00120  -0.00016   0.00056
  16        9D+1        0.00046  -0.00095  -0.00070  -0.00149  -0.00284
  17        9D-1        0.00009  -0.00101  -0.00142  -0.00194   0.00110
  18        9D+2        0.00419   0.00259   0.00235  -0.00037   0.00350
  19        9D-2       -0.00056  -0.00200  -0.00196   0.00034  -0.00144
  20       10D 0        0.01520  -0.00709  -0.00276   0.00043  -0.01344
  21       10D+1        0.00056  -0.00264  -0.00108  -0.00281  -0.00014
  22       10D-1       -0.00218   0.00375  -0.00316  -0.00345   0.00091
  23       10D+2       -0.00725  -0.00625  -0.01183   0.00185  -0.00062
  24       10D-2       -0.00493   0.00104   0.00374  -0.00006   0.00969
  25       11F 0       -0.00014   0.00022   0.00040   0.00046   0.00035
[...]
 159        4PY         0.00020   0.00000   0.00003   0.00000   0.00000
 160        4PZ        -0.00008   0.00000  -0.00000   0.00000   0.00000
                         156       157       158       159       160
 156        2S          0.16166
 157        3S          0.04958   0.03224
 158        4PX         0.00000   0.00000   0.00043
 159        4PY         0.00000   0.00000   0.00000   0.00041
 160        4PZ         0.00000   0.00000   0.00000   0.00000   0.00083
     Gross orbital populations:
                           1
   1 1   O  1S          0.79409
   2        2S          1.17468
   3        3S          0.62165
   4        4S          0.92890
   5        5S          0.34893
   6        6PX         0.54688
   7        6PY         0.55397
   8        6PZ         0.76524
   9        7PX         0.54333
  10        7PY         0.55634
  11        7PZ         0.69874
  12        8PX         0.19813
  13        8PY         0.20236
  14        8PZ         0.36340
  15        9D 0        0.00041
  16        9D+1        0.00035
  17        9D-1        0.00019
  18        9D+2        0.00110
  19        9D-2        0.00089
  20       10D 0        0.00491
  21       10D+1        0.00502
  22       10D-1        0.00332
  23       10D+2        0.01178
  24       10D-2        0.01137
  25       11F 0        0.00023
  26       11F+1        0.00034
  27       11F-1        0.00023
  28       11F+2        0.00017
  29       11F-2        0.00011
  30       11F+3        0.00035
  31       11F-3        0.00055
  32 2   C  1S          0.85481
  33        2S          1.11494
  34        3S          0.53497
  35        4S          0.62240
  36        5S          0.08826
  37        6PX         0.37307
  38        6PY         0.46372
  39        6PZ         0.48242
  40        7PX         0.24767
  41        7PY         0.39171
  42        7PZ         0.38607
  43        8PX         0.03868
  44        8PY         0.08567
  45        8PZ         0.06550
  46        9D 0        0.00554
  47        9D+1        0.00763
  48        9D-1        0.00344
  49        9D+2        0.00705
  50        9D-2        0.00531
  51       10D 0        0.00976
  52       10D+1        0.03576
  53       10D-1        0.01754
  54       10D+2        0.02068
  55       10D-2        0.02473
  56       11F 0        0.00222
  57       11F+1        0.00183
  58       11F-1        0.00107
  59       11F+2        0.00224
  60       11F-2        0.00110
  61       11F+3        0.00191
  62       11F-3        0.00278
  63 3   C  1S          0.85482
  64        2S          1.11513
  65        3S          0.53540
  66        4S          0.63917
  67        5S          0.12196
  68        6PX         0.42521
  69        6PY         0.41561
  70        6PZ         0.48791
  71        7PX         0.38806
  72        7PY         0.23608
  73        7PZ         0.39698
  74        8PX         0.10649
  75        8PY         0.07468
  76        8PZ         0.12940
  77        9D 0        0.00467
  78        9D+1        0.00123
  79        9D-1        0.00839
  80        9D+2        0.00464
  81        9D-2        0.00672
  82       10D 0       -0.00332
  83       10D+1        0.01233
  84       10D-1        0.02331
  85       10D+2        0.01948
  86       10D-2        0.01429
  87       11F 0        0.00140
  88       11F+1        0.00018
  89       11F-1        0.00201
  90       11F+2        0.00089
  91       11F-2        0.00179
  92       11F+3        0.00194
  93       11F-3        0.00273
  94 4   C  1S          0.85459
  95        2S          1.11522
  96        3S          0.53210
  97        4S          0.63256
  98        5S          0.14445
  99        6PX         0.46046
 100        6PY         0.46353
 101        6PZ         0.44830
 102        7PX         0.39129
 103        7PY         0.39614
 104        7PZ         0.37397
 105        8PX         0.15900
 106        8PY         0.18000
 107        8PZ         0.10897
 108        9D 0        0.00387
 109        9D+1        0.00292
 110        9D-1        0.00243
 111        9D+2        0.00432
 112        9D-2        0.00138
 113       10D 0        0.00676
 114       10D+1        0.00345
 115       10D-1        0.00892
 116       10D+2        0.00333
 117       10D-2       -0.00006
 118       11F 0        0.00060
 119       11F+1        0.00084
 120       11F-1        0.00062
 121       11F+2        0.00034
 122       11F-2        0.00024
 123       11F+3        0.00016
 124       11F-3        0.00054
 125 5   H  1S          0.28465
 126        2S          0.49289
 127        3S          0.11304
 128        4PX         0.00528
 129        4PY         0.00594
 130        4PZ         0.00998
 131 6   H  1S          0.28332
 132        2S          0.49260
 133        3S          0.11556
 134        4PX         0.00448
 135        4PY         0.00499
 136        4PZ         0.01144
 137 7   H  1S          0.28331
 138        2S          0.49433
 139        3S          0.11692
 140        4PX         0.00453
 141        4PY         0.00742
 142        4PZ         0.00885
 143 8   H  1S          0.28047
 144        2S          0.48075
 145        3S          0.12340
 146        4PX         0.01161
 147        4PY         0.00501
 148        4PZ         0.00441
 149 9   H  1S          0.28109
 150        2S          0.47952
 151        3S          0.11002
 152        4PX         0.00450
 153        4PY         0.01186
 154        4PZ         0.00473
 155 10  H  1S          0.28136
 156        2S          0.48139
 157        3S          0.10998
 158        4PX         0.00600
 159        4PY         0.00580
 160        4PZ         0.00929
          Condensed to atoms (all electrons):
               1          2          3          4          5          6
     1  O    8.072089   0.182615   0.219113  -0.038102  -0.030415  -0.036617
     2  C    0.182615   4.855874   0.315508   0.326542   0.400766  -0.036348
     3  C    0.219113   0.315508   4.798409  -0.047080  -0.036946   0.392422
     4  C   -0.038102   0.326542  -0.047080   4.952665  -0.064830  -0.001531
     5  H   -0.030415   0.400766  -0.036946  -0.064830   0.633091   0.002341
     6  H   -0.036617  -0.036348   0.392422  -0.001531   0.002341   0.653464
     7  H   -0.041622  -0.018459   0.377031   0.008640   0.000753  -0.063216
     8  H    0.008013  -0.034326  -0.004263   0.367245   0.004722   0.001597
     9  H   -0.005074  -0.039097   0.010945   0.402865  -0.006129  -0.000667
    10  H    0.007961  -0.052588   0.004440   0.394847   0.008407   0.000945
               7          8          9         10
     1  O   -0.041622   0.008013  -0.005074   0.007961
     2  C   -0.018459  -0.034326  -0.039097  -0.052588
     3  C    0.377031  -0.004263   0.010945   0.004440
     4  C    0.008640   0.367245   0.402865   0.394847
     5  H    0.000753   0.004722  -0.006129   0.008407
     6  H   -0.063216   0.001597  -0.000667   0.000945
     7  H    0.655291  -0.002530   0.000163  -0.000695
     8  H   -0.002530   0.618812  -0.033850  -0.019764
     9  H    0.000163  -0.033850   0.590133  -0.027569
    10  H   -0.000695  -0.019764  -0.027569   0.577841
 Mulliken charges:
               1
     1  O   -0.337960
     2  C    0.099513
     3  C   -0.029579
     4  C   -0.301262
     5  H    0.088240
     6  H    0.087609
     7  H    0.084643
     8  H    0.094344
     9  H    0.108279
    10  H    0.106174
 Sum of Mulliken charges =  -0.00000
 Mulliken charges with hydrogens summed into heavy atoms:
               1
     1  O   -0.337960
     2  C    0.187753
     3  C    0.142672
     4  C    0.007535
 Electronic spatial extent (au):  <R**2>=            281.1537
 Charge=             -0.0000 electrons
 Dipole moment (field-independent basis, Debye):
    X=              1.7548    Y=              0.8279    Z=             -0.1453  Tot=              1.9457
 Quadrupole moment (field-independent basis, Debye-Ang):
   XX=            -26.9358   YY=            -23.9917   ZZ=            -24.4761
   XY=             -1.4948   XZ=              0.2050   YZ=              0.3365
 Traceless Quadrupole moment (field-independent basis, Debye-Ang):
   XX=             -1.8013   YY=              1.1429   ZZ=              0.6584
   XY=             -1.4948   XZ=              0.2050   YZ=              0.3365
 Octapole moment (field-independent basis, Debye-Ang**2):
  XXX=            -18.1078  YYY=             -4.6781  ZZZ=             16.0047  XYY=             -7.4189
  XXY=             -1.5776  XXZ=              4.6853  XZZ=             -6.6829  YZZ=             -0.5753
  YYZ=              4.9965  XYZ=             -0.3666
 Hexadecapole moment (field-independent basis, Debye-Ang**3):
 XXXX=           -143.2734 YYYY=           -108.1944 ZZZZ=           -126.3340 XXXY=             20.9599
 XXXZ=             36.2706 YYYX=             19.2128 YYYZ=            -20.8729 ZZZX=             38.6404
 ZZZY=            -22.0611 XXYY=            -44.1342 XXZZ=            -46.6687 YYZZ=            -38.0869
 XXYZ=             -7.9084 YYXZ=             12.3608 ZZXY=              5.9064
 N-N= 1.235339212950D+02 E-N=-6.980420753832D+02  KE= 1.923570623095D+02
 Orbital energies and kinetic energies (alpha):
                                 1                 2
   1         O               -18.779714         29.088759
   2         O                -9.963230         15.941514
   3         O                -9.955587         15.940862
   4         O                -9.907972         15.937864
   5         O                -0.962445          2.368027
   6         O                -0.669784          1.536974
   7         O                -0.589796          1.817710
   8         O                -0.529936          1.472919
   9         O                -0.447722          1.225799
  10         O                -0.413592          1.477348
  11         O                -0.376837          1.178354
  12         O                -0.356005          1.250964
  13         O                -0.329094          1.445820
  14         O                -0.321192          1.491932
  15         O                -0.263423          1.731263
  16         O                -0.219661          2.272423
  17         V                 0.025695          0.677718
  18         V                 0.042818          1.472155
  19         V                 0.050073          0.884508
  20         V                 0.050907          0.760240
  21         V                 0.064656          1.426653
  22         V                 0.086050          0.776817
  23         V                 0.091412          0.813210
  24         V                 0.102539          0.751422
  25         V                 0.138949          0.674402
  26         V                 0.170346          0.613410
  27         V                 0.197425          0.879958
  28         V                 0.202060          0.656349
  29         V                 0.236353          1.023896
  30         V                 0.247540          0.996895
  31         V                 0.268686          1.060704
  32         V                 0.277839          1.925527
  33         V                 0.300960          1.312898
  34         V                 0.337415          1.386786
  35         V                 0.362551          1.269566
  36         V                 0.372047          1.425187
  37         V                 0.384918          1.349855
  38         V                 0.394757          1.449678
  39         V                 0.401577          1.086159
  40         V                 0.415353          1.335343
  41         V                 0.426854          1.396763
  42         V                 0.447078          1.286674
  43         V                 0.459521          1.721484
  44         V                 0.469136          1.610273
  45         V                 0.508048          1.273621
  46         V                 0.536962          1.439969
  47         V                 0.657815          1.257312
  48         V                 0.674298          1.346236
  49         V                 0.707496          1.408783
  50         V                 0.761183          1.474205
  51         V                 0.794355          1.543608
  52         V                 0.832095          1.755784
  53         V                 0.854402          1.583866
  54         V                 0.871433          1.688392
  55         V                 0.920201          1.845750
  56         V                 0.961244          1.768493
  57         V                 0.991985          1.890879
  58         V                 1.012247          2.086889
  59         V                 1.041673          1.867765
  60         V                 1.078846          2.195191
  61         V                 1.105324          1.974599
  62         V                 1.147228          2.179760
  63         V                 1.215086          2.320768
  64         V                 1.348646          3.147754
  65         V                 1.415702          3.344153
  66         V                 1.432741          3.324079
  67         V                 1.443183          2.991343
  68         V                 1.446587          3.098683
  69         V                 1.474186          2.577927
  70         V                 1.477828          3.346179
  71         V                 1.512429          2.770153
  72         V                 1.542284          3.100761
  73         V                 1.577055          3.245297
  74         V                 1.597677          3.108953
  75         V                 1.641857          2.927519
  76         V                 1.695028          3.060236
  77         V                 1.701100          3.042550
  78         V                 1.789609          2.941300
  79         V                 1.815537          3.170649
  80         V                 1.842394          3.039775
  81         V                 1.867310          3.113625
  82         V                 1.920882          3.242472
  83         V                 1.991237          3.501684
  84         V                 1.994476          3.180464
  85         V                 2.089635          3.600832
  86         V                 2.097158          3.578050
  87         V                 2.166288          3.747543
  88         V                 2.200023          3.516129
  89         V                 2.229290          3.538943
  90         V                 2.243763          3.441675
  91         V                 2.266611          3.551375
  92         V                 2.283129          3.464375
  93         V                 2.350618          3.906808
  94         V                 2.387375          3.365093
  95         V                 2.450895          4.351969
  96         V                 2.473588          3.631176
  97         V                 2.483567          3.551724
  98         V                 2.525504          3.746663
  99         V                 2.532606          3.853385
 100         V                 2.559555          3.862729
 101         V                 2.598761          4.828160
 102         V                 2.649409          4.752948
 103         V                 2.668189          5.064099
 104         V                 2.716222          4.183425
 105         V                 2.739710          4.111856
 106         V                 2.806579          4.677798
 107         V                 2.831696          4.818092
 108         V                 2.861932          5.260163
 109         V                 2.898803          4.825420
 110         V                 2.960648          4.530349
 111         V                 2.965908          4.764427
 112         V                 2.988600          4.502863
 113         V                 3.007401          4.521197
 114         V                 3.034656          4.721672
 115         V                 3.068961          4.398095
 116         V                 3.146372          4.624528
 117         V                 3.167111          4.694319
 118         V                 3.190275          4.513821
 119         V                 3.278500          4.560859
 120         V                 3.293012          4.539282
 121         V                 3.316678          4.583146
 122         V                 3.354130          4.590545
 123         V                 3.373227          4.991540
 124         V                 3.430458          4.731848
 125         V                 3.456527          4.796757
 126         V                 3.564259          5.267888
 127         V                 3.572301          4.949624
 128         V                 3.636347          5.219389
 129         V                 3.766514          5.040857
 130         V                 3.784744          5.428741
 131         V                 3.880962          5.091371
 132         V                 3.897677          5.701440
 133         V                 3.987752          5.554576
 134         V                 4.048570          5.656552
 135         V                 4.145268          5.866775
 136         V                 4.196574          5.923030
 137         V                 4.260849          6.079884
 138         V                 4.288456          5.871087
 139         V                 4.338400          6.158487
 140         V                 4.469548          6.117909
 141         V                 4.561237          6.233591
 142         V                 4.572505          6.218631
 143         V                 4.738143          7.352611
 144         V                 4.770761          6.556955
 145         V                 5.181930          6.615024
 146         V                 5.346752          6.823196
 147         V                 5.577670          7.398279
 148         V                 5.603846          7.538872
 149         V                 5.667167          7.495117
 150         V                 5.763710          8.366530
 151         V                 5.909093          8.121798
 152         V                 6.464662          9.430698
 153         V                 6.507152          9.454458
 154         V                 6.676472          9.622086
 155         V                 6.842130         10.026159
 156         V                 7.055633         10.163125
 157         V                21.940758         55.706315
 158         V                21.982124         55.735029
 159         V                22.101314         55.883360
 160         V                43.414172        108.836956
 Total kinetic energy from orbitals= 1.923570623095D+02
 No NMR shielding tensors so no spin-rotation constants.
 Leave Link  601 at Sat Mar 16 14:05:36 2019, MaxMem=   104857600 cpu:               4.8 elap:               0.5
 (Enter /util/academic/gaussian/g16.A03/x86-64-SSE4_2/g16/l9999.exe)
 1\1\GINC-CPN-F15-33\SP\RBLYP\def2TZVP\C3H6O1\HERBERTL\16-Mar-2019\0\\#
 P blyp/def2TZVP SCF=Tight Int=UltraFine NoSymm gfinput pop=full\\opt\\
 0,1\O,0,-0.879112,-0.180294,0.205257\C,0,0.5742,-0.157646,0.122588\C,0
 ,-0.185517,1.088353,0.340116\C,0,1.18542,-0.520407,-1.211416\H,0,1.058
 604,-0.603865,0.99812\H,0,-0.228052,1.538075,1.33555\H,0,-0.325346,1.7
 82434,-0.493154\H,0,2.241636,-0.216103,-1.245734\H,0,1.142471,-1.60613
 1,-1.37427\H,0,0.651796,-0.027264,-2.033329\\Version=ES64L-G16RevA.03\
 HF=-193.1093175\RMSD=7.600e-09\Dipole=0.6904042,0.3257096,-0.0571488\Q
 uadrupole=-1.3391931,0.8496869,0.4895061,-1.1113246,0.1524163,0.250192
 5\PG=C01 [X(C3H6O1)]\\@


 Ideas are like rabbits. You get a couple and learn
 how to handle them, and pretty soon you have a dozen.
                                    -- John Steinbeck
 Job cpu time:       0 days  0 hours  1 minutes 36.3 seconds.
 Elapsed time:       0 days  0 hours  0 minutes 10.2 seconds.
 File lengths (MBytes):  RWF=     16 Int=      0 D2E=      0 Chk=      3 Scr=      1
 Normal termination of Gaussian 16 at Sat Mar 16 14:05:36 2019.
