opt                                                                     
SP        RBLYP                                                       def2TZVP            
Number of atoms                            I               10
Info1-9                                    I   N=           9
          21          18           0           0           0         110
           1          18         202
Full Title                                 C   N=           1
opt         
Route                                      C   N=           6
#P blyp/def2TZVP SCF=Tight Int=UltraFine NoSymm gfinput pop=
full        
Charge                                     I                0
Multiplicity                               I                1
Number of electrons                        I               32
Number of alpha electrons                  I               16
Number of beta electrons                   I               16
Number of basis functions                  I              160
Number of independent functions            I              160
Number of point charges in /Mol/           I                0
Number of translation vectors              I                0
Atomic numbers                             I   N=          10
           8           6           6           6           1           1
           1           1           1           1
Nuclear charges                            R   N=          10
  8.00000000E+00  6.00000000E+00  6.00000000E+00  6.00000000E+00  1.00000000E+00
  1.00000000E+00  1.00000000E+00  1.00000000E+00  1.00000000E+00  1.00000000E+00
Current cartesian coordinates              R   N=          30
 -1.66128091E+00 -3.40706282E-01  3.87879515E-01  1.08508074E+00 -2.97907765E-01
  2.31657746E-01 -3.50576321E-01  2.05668910E+00  6.42726091E-01  2.24011914E+00
 -9.83426703E-01 -2.28924446E+00  2.00047163E+00 -1.14113947E+00  1.88617344E+00
 -4.30955822E-01  2.90654051E+00  2.52382373E+00 -6.14814836E-01  3.36831210E+00
 -9.31925997E-01  4.23607811E+00 -4.08375485E-01 -2.35409608E+00  2.15895730E+00
 -3.03514771E+00 -2.59699392E+00  1.23171593E+00 -5.15214931E-02 -3.84243493E+00
Number of symbols in /Mol/                 I                0
Force Field                                I                0
Atom Types                                 C   N=          10
                                                            
                                                            
Int Atom Types                             I   N=          10
           0           0           0           0           0           0
           0           0           0           0
MM charges                                 R   N=          10
  0.00000000E+00  0.00000000E+00  0.00000000E+00  0.00000000E+00  0.00000000E+00
  0.00000000E+00  0.00000000E+00  0.00000000E+00  0.00000000E+00  0.00000000E+00
Integer atomic weights                     I   N=          10
          16          12          12          12           1           1
           1           1           1           1
Real atomic weights                        R   N=          10
  1.59949146E+01  1.20000000E+01  1.20000000E+01  1.20000000E+01  1.00782504E+00
  1.00782504E+00  1.00782504E+00  1.00782504E+00  1.00782504E+00  1.00782504E+00
Atom fragment info                         I   N=          10
           0           0           0           0           0           0
           0           0           0           0
Atom residue num                           I   N=          10
           0           0           0           0           0           0
           0           0           0           0
Nuclear spins                              I   N=          10
           0           0           0           0           1           1
           1           1           1           1
Nuclear ZEff                               R   N=          10
 -5.60000000E+00 -3.60000000E+00 -3.60000000E+00 -3.60000000E+00 -1.00000000E+00
 -1.00000000E+00 -1.00000000E+00 -1.00000000E+00 -1.00000000E+00 -1.00000000E+00
Nuclear ZNuc                               R   N=          10
  8.00000000E+00  6.00000000E+00  6.00000000E+00  6.00000000E+00  1.00000000E+00
  1.00000000E+00  1.00000000E+00  1.00000000E+00  1.00000000E+00  1.00000000E+00
Nuclear QMom                               R   N=          10
  0.00000000E+00  0.00000000E+00  0.00000000E+00  0.00000000E+00  0.00000000E+00
  0.00000000E+00  0.00000000E+00  0.00000000E+00  0.00000000E+00  0.00000000E+00
Nuclear GFac                               R   N=          10
  0.00000000E+00  0.00000000E+00  0.00000000E+00  0.00000000E+00  2.79284600E+00
  2.79284600E+00  2.79284600E+00  2.79284600E+00  2.79284600E+00  2.79284600E+00
MicOpt                                     I   N=          10
          -1          -1          -1          -1          -1          -1
          -1          -1          -1          -1
Number of residues                         I                0
Number of secondary structures             I                0
Number of contracted shells                I               68
Number of primitive shells                 I              116
Pure/Cartesian d shells                    I                0
Pure/Cartesian f shells                    I                0
Highest angular momentum                   I                3
Largest degree of contraction              I                6
Shell types                                I   N=          68
           0           0           0           0           0           1
           1           1          -2          -2          -3           0
           0           0           0           0           1           1
           1          -2          -2          -3           0           0
           0           0           0           1           1           1
          -2          -2          -3           0           0           0
           0           0           1           1           1          -2
          -2          -3           0           0           0           1
           0           0           0           1           0           0
           0           1           0           0           0           1
           0           0           0           1           0           0
           0           1
Number of primitives per shell             I   N=          68
           6           2           1           1           1           4
           1           1           1           1           1           6
           2           1           1           1           4           1
           1           1           1           1           6           2
           1           1           1           4           1           1
           1           1           1           6           2           1
           1           1           4           1           1           1
           1           1           3           1           1           1
           3           1           1           1           3           1
           1           1           3           1           1           1
           3           1           1           1           3           1
           1           1
Shell to atom map                          I   N=          68
           1           1           1           1           1           1
           1           1           1           1           1           2
           2           2           2           2           2           2
           2           2           2           2           3           3
           3           3           3           3           3           3
           3           3           3           4           4           4
           4           4           4           4           4           4
           4           4           5           5           5           5
           6           6           6           6           7           7
           7           7           8           8           8           8
           9           9           9           9          10          10
          10          10
Primitive exponents                        R   N=         116
  2.70323826E+04  4.05238714E+03  9.22327227E+02  2.61240710E+02  8.53546414E+01
  3.10350352E+01  1.22608607E+01  4.99870760E+00  1.17031082E+00  4.64747410E-01
  1.85045364E-01  6.32749548E+01  1.46270494E+01  4.45012235E+00  1.52757996E+00
  5.29351179E-01  1.74784213E-01  2.31400000E+00  6.45000000E-01  1.42800000E+00
  1.35753497E+04  2.03523337E+03  4.63225624E+02  1.31200196E+02  4.28530159E+01
  1.55841858E+01  6.20671385E+00  2.57648965E+00  5.76963394E-01  2.29728314E-01
  9.51644400E-02  3.46972322E+01  7.95826228E+00  2.37808269E+00  8.14332082E-01
  2.88875473E-01  1.00568237E-01  1.09700000E+00  3.18000000E-01  7.61000000E-01
  1.35753497E+04  2.03523337E+03  4.63225624E+02  1.31200196E+02  4.28530159E+01
  1.55841858E+01  6.20671385E+00  2.57648965E+00  5.76963394E-01  2.29728314E-01
  9.51644400E-02  3.46972322E+01  7.95826228E+00  2.37808269E+00  8.14332082E-01
  2.88875473E-01  1.00568237E-01  1.09700000E+00  3.18000000E-01  7.61000000E-01
  1.35753497E+04  2.03523337E+03  4.63225624E+02  1.31200196E+02  4.28530159E+01
  1.55841858E+01  6.20671385E+00  2.57648965E+00  5.76963394E-01  2.29728314E-01
  9.51644400E-02  3.46972322E+01  7.95826228E+00  2.37808269E+00  8.14332082E-01
  2.88875473E-01  1.00568237E-01  1.09700000E+00  3.18000000E-01  7.61000000E-01
  3.40613410E+01  5.12357460E+00  1.16466260E+00  3.27230410E-01  1.03072410E-01
  8.00000000E-01  3.40613410E+01  5.12357460E+00  1.16466260E+00  3.27230410E-01
  1.03072410E-01  8.00000000E-01  3.40613410E+01  5.12357460E+00  1.16466260E+00
  3.27230410E-01  1.03072410E-01  8.00000000E-01  3.40613410E+01  5.12357460E+00
  1.16466260E+00  3.27230410E-01  1.03072410E-01  8.00000000E-01  3.40613410E+01
  5.12357460E+00  1.16466260E+00  3.27230410E-01  1.03072410E-01  8.00000000E-01
  3.40613410E+01  5.12357460E+00  1.16466260E+00  3.27230410E-01  1.03072410E-01
  8.00000000E-01
Contraction coefficients                   R   N=         116
  5.72273352E-04  4.43532335E-03  2.30201077E-02  9.28224907E-02  2.93785000E-01
  6.74016045E-01  6.38399370E-01  3.95345871E-01  1.00000000E+00  1.00000000E+00
  1.00000000E+00  1.20183322E-02  8.30054218E-02  3.19917439E-01  7.07155429E-01
  1.00000000E+00  1.00000000E+00  1.00000000E+00  1.00000000E+00  1.00000000E+00
  6.06455036E-04  4.69790889E-03  2.43324776E-02  9.73999683E-02  3.01955843E-01
  6.62336091E-01  6.55953085E-01  3.75856333E-01  1.00000000E+00  1.00000000E+00
  1.00000000E+00  1.13272200E-02  7.61696592E-02  3.01922522E-01  7.27850273E-01
  1.00000000E+00  1.00000000E+00  1.00000000E+00  1.00000000E+00  1.00000000E+00
  6.06455036E-04  4.69790889E-03  2.43324776E-02  9.73999683E-02  3.01955843E-01
  6.62336091E-01  6.55953085E-01  3.75856333E-01  1.00000000E+00  1.00000000E+00
  1.00000000E+00  1.13272200E-02  7.61696592E-02  3.01922522E-01  7.27850273E-01
  1.00000000E+00  1.00000000E+00  1.00000000E+00  1.00000000E+00  1.00000000E+00
  6.06455036E-04  4.69790889E-03  2.43324776E-02  9.73999683E-02  3.01955843E-01
  6.62336091E-01  6.55953085E-01  3.75856333E-01  1.00000000E+00  1.00000000E+00
  1.00000000E+00  1.13272200E-02  7.61696592E-02  3.01922522E-01  7.27850273E-01
  1.00000000E+00  1.00000000E+00  1.00000000E+00  1.00000000E+00  1.00000000E+00
  2.54393072E-02  1.90085949E-01  8.52441130E-01  1.00000000E+00  1.00000000E+00
  1.00000000E+00  2.54393072E-02  1.90085949E-01  8.52441130E-01  1.00000000E+00
  1.00000000E+00  1.00000000E+00  2.54393072E-02  1.90085949E-01  8.52441130E-01
  1.00000000E+00  1.00000000E+00  1.00000000E+00  2.54393072E-02  1.90085949E-01
  8.52441130E-01  1.00000000E+00  1.00000000E+00  1.00000000E+00  2.54393072E-02
  1.90085949E-01  8.52441130E-01  1.00000000E+00  1.00000000E+00  1.00000000E+00
  2.54393072E-02  1.90085949E-01  8.52441130E-01  1.00000000E+00  1.00000000E+00
  1.00000000E+00
Coordinates of each shell                  R   N=         204
 -1.66128091E+00 -3.40706282E-01  3.87879515E-01 -1.66128091E+00 -3.40706282E-01
  3.87879515E-01 -1.66128091E+00 -3.40706282E-01  3.87879515E-01 -1.66128091E+00
 -3.40706282E-01  3.87879515E-01 -1.66128091E+00 -3.40706282E-01  3.87879515E-01
 -1.66128091E+00 -3.40706282E-01  3.87879515E-01 -1.66128091E+00 -3.40706282E-01
  3.87879515E-01 -1.66128091E+00 -3.40706282E-01  3.87879515E-01 -1.66128091E+00
 -3.40706282E-01  3.87879515E-01 -1.66128091E+00 -3.40706282E-01  3.87879515E-01
 -1.66128091E+00 -3.40706282E-01  3.87879515E-01  1.08508074E+00 -2.97907765E-01
  2.31657746E-01  1.08508074E+00 -2.97907765E-01  2.31657746E-01  1.08508074E+00
 -2.97907765E-01  2.31657746E-01  1.08508074E+00 -2.97907765E-01  2.31657746E-01
  1.08508074E+00 -2.97907765E-01  2.31657746E-01  1.08508074E+00 -2.97907765E-01
  2.31657746E-01  1.08508074E+00 -2.97907765E-01  2.31657746E-01  1.08508074E+00
 -2.97907765E-01  2.31657746E-01  1.08508074E+00 -2.97907765E-01  2.31657746E-01
  1.08508074E+00 -2.97907765E-01  2.31657746E-01  1.08508074E+00 -2.97907765E-01
  2.31657746E-01 -3.50576321E-01  2.05668910E+00  6.42726091E-01 -3.50576321E-01
  2.05668910E+00  6.42726091E-01 -3.50576321E-01  2.05668910E+00  6.42726091E-01
 -3.50576321E-01  2.05668910E+00  6.42726091E-01 -3.50576321E-01  2.05668910E+00
  6.42726091E-01 -3.50576321E-01  2.05668910E+00  6.42726091E-01 -3.50576321E-01
  2.05668910E+00  6.42726091E-01 -3.50576321E-01  2.05668910E+00  6.42726091E-01
 -3.50576321E-01  2.05668910E+00  6.42726091E-01 -3.50576321E-01  2.05668910E+00
  6.42726091E-01 -3.50576321E-01  2.05668910E+00  6.42726091E-01  2.24011914E+00
 -9.83426703E-01 -2.28924446E+00  2.24011914E+00 -9.83426703E-01 -2.28924446E+00
  2.24011914E+00 -9.83426703E-01 -2.28924446E+00  2.24011914E+00 -9.83426703E-01
 -2.28924446E+00  2.24011914E+00 -9.83426703E-01 -2.28924446E+00  2.24011914E+00
 -9.83426703E-01 -2.28924446E+00  2.24011914E+00 -9.83426703E-01 -2.28924446E+00
  2.24011914E+00 -9.83426703E-01 -2.28924446E+00  2.24011914E+00 -9.83426703E-01
 -2.28924446E+00  2.24011914E+00 -9.83426703E-01 -2.28924446E+00  2.24011914E+00
 -9.83426703E-01 -2.28924446E+00  2.00047163E+00 -1.14113947E+00  1.88617344E+00
  2.00047163E+00 -1.14113947E+00  1.88617344E+00  2.00047163E+00 -1.14113947E+00
  1.88617344E+00  2.00047163E+00 -1.14113947E+00  1.88617344E+00 -4.30955822E-01
  2.90654051E+00  2.52382373E+00 -4.30955822E-01  2.90654051E+00  2.52382373E+00
 -4.30955822E-01  2.90654051E+00  2.52382373E+00 -4.30955822E-01  2.90654051E+00
  2.52382373E+00 -6.14814836E-01  3.36831210E+00 -9.31925997E-01 -6.14814836E-01
  3.36831210E+00 -9.31925997E-01 -6.14814836E-01  3.36831210E+00 -9.31925997E-01
 -6.14814836E-01  3.36831210E+00 -9.31925997E-01  4.23607811E+00 -4.08375485E-01
 -2.35409608E+00  4.23607811E+00 -4.08375485E-01 -2.35409608E+00  4.23607811E+00
 -4.08375485E-01 -2.35409608E+00  4.23607811E+00 -4.08375485E-01 -2.35409608E+00
  2.15895730E+00 -3.03514771E+00 -2.59699392E+00  2.15895730E+00 -3.03514771E+00
 -2.59699392E+00  2.15895730E+00 -3.03514771E+00 -2.59699392E+00  2.15895730E+00
 -3.03514771E+00 -2.59699392E+00  1.23171593E+00 -5.15214931E-02 -3.84243493E+00
  1.23171593E+00 -5.15214931E-02 -3.84243493E+00  1.23171593E+00 -5.15214931E-02
 -3.84243493E+00  1.23171593E+00 -5.15214931E-02 -3.84243493E+00
Num ILSW                                   I              100
ILSW                                       I   N=         100
           0           0           0           0           2           0
           0           0           0           0         402          -1
           5           0           0           0           0           0
           0           0           0           0           0           0
           1           1           0           0           0           0
           0           0      100000           0          -1           0
           0           0           0           0           0           0
           0           0           0           1           0           0
           0 -2000000000           1           0           0           0
           0           0           4          52           0           0
           0           0           0           0           0           0
           0           0           0          10           0           1
           0           0           0           0           0           0
           0           0           0           0           0           0
           0           0           0           0           0           0
           0           0           0           0           0           0
           0           0           0           0
Num RLSW                                   I               52
RLSW                                       R   N=          52
  1.00000000E+00  1.00000000E+00  1.00000000E+00  1.00000000E+00  0.00000000E+00
  0.00000000E+00  0.00000000E+00  1.00000000E+00  0.00000000E+00  0.00000000E+00
  0.00000000E+00  0.00000000E+00  1.00000000E+00  0.00000000E+00  0.00000000E+00
  0.00000000E+00  0.00000000E+00  1.00000000E+00  0.00000000E+00  0.00000000E+00
  0.00000000E+00  0.00000000E+00  1.00000000E+00  0.00000000E+00  0.00000000E+00
  0.00000000E+00  0.00000000E+00  1.00000000E+00  0.00000000E+00  0.00000000E+00
  0.00000000E+00  0.00000000E+00  1.00000000E+00  0.00000000E+00  0.00000000E+00
  0.00000000E+00  0.00000000E+00  0.00000000E+00  1.00000000E+00  1.00000000E+00
  0.00000000E+00  1.00000000E+00  0.00000000E+00  0.00000000E+00  0.00000000E+00
  0.00000000E+00  0.00000000E+00  0.00000000E+00  0.00000000E+00  0.00000000E+00
  0.00000000E+00  0.00000000E+00
ECP-MxAtEC                                 I           250000
ECP-MaxLECP                                I               10
ECP-MaxAtL                                 I          2250000
ECP-MxTECP                                 I         11250000
ECP-LenNCZ                                 I                0
ECP-KFirst                                 I   N=         100
           0           0           0           0           0           0
           0           0           0           0           0           0
           0           0           0           0           0           0
           0           0           0           0           0           0
           0           0           0           0           0           0
           0           0           0           0           0           0
           0           0           0           0           0           0
           0           0           0           0           0           0
           0           0           0           0           0           0
           0           0           0           0           0           0
           0           0           0           0           0           0
           0           0           0           0           0           0
           0           0           0           0           0           0
           0           0           0           0           0           0
           0           0           0           0           0           0
           0           0           0           0           0           0
           0           0           0           0
ECP-KLast                                  I   N=         100
           0           0           0           0           0           0
           0           0           0           0           0           0
           0           0           0           0           0           0
           0           0           0           0           0           0
           0           0           0           0           0           0
           0           0           0           0           0           0
           0           0           0           0           0           0
           0           0           0           0           0           0
           0           0           0           0           0           0
           0           0           0           0           0           0
           0           0           0           0           0           0
           0           0           0           0           0           0
           0           0           0           0           0           0
           0           0           0           0           0           0
           0           0           0           0           0           0
           0           0           0           0           0           0
           0           0           0           0
ECP-LMax                                   I   N=          10
           0           0           0           0           0           0
           0           0           0           0
ECP-LPSkip                                 I   N=          10
           1           1           1           1           1           1
           1           1           1           1
ECP-RNFroz                                 R   N=          10
  0.00000000E+00  0.00000000E+00  0.00000000E+00  0.00000000E+00  0.00000000E+00
  0.00000000E+00  0.00000000E+00  0.00000000E+00  0.00000000E+00  0.00000000E+00
ECP-NLP                                    I                0
ECP-CLP1                                   R      0.000000000000000E+00
ECP-CLP2                                   R      0.000000000000000E+00
ECP-ZLP                                    R      0.000000000000000E+00
MxBond                                     I                4
NBond                                      I   N=          10
           2           4           4           4           1           1
           1           1           1           1
IBond                                      I   N=          40
           2           3           0           0           1           3
           4           5           1           2           6           7
           2           8           9          10           2           0
           0           0           3           0           0           0
           3           0           0           0           4           0
           0           0           4           0           0           0
           4           0           0           0
RBond                                      R   N=          40
  1.00000000E+00  1.00000000E+00  0.00000000E+00  0.00000000E+00  1.00000000E+00
  1.00000000E+00  1.00000000E+00  1.00000000E+00  1.00000000E+00  1.00000000E+00
  1.00000000E+00  1.00000000E+00  1.00000000E+00  1.00000000E+00  1.00000000E+00
  1.00000000E+00  1.00000000E+00  0.00000000E+00  0.00000000E+00  0.00000000E+00
  1.00000000E+00  0.00000000E+00  0.00000000E+00  0.00000000E+00  1.00000000E+00
  0.00000000E+00  0.00000000E+00  0.00000000E+00  1.00000000E+00  0.00000000E+00
  0.00000000E+00  0.00000000E+00  1.00000000E+00  0.00000000E+00  0.00000000E+00
  0.00000000E+00  1.00000000E+00  0.00000000E+00  0.00000000E+00  0.00000000E+00
Virial Ratio                               R      2.003910722881136E+00
SCF Energy                                 R     -1.931093174744559E+02
Total Energy                               R     -1.931093174744559E+02
RMS Density                                R      7.599742877234993E-09
Job Status                                 I                1
Nuclear derivative order                   I                0
External E-field                           R   N=          35
  0.00000000E+00  0.00000000E+00  0.00000000E+00  0.00000000E+00  0.00000000E+00
  0.00000000E+00  0.00000000E+00  0.00000000E+00  0.00000000E+00  0.00000000E+00
  0.00000000E+00  0.00000000E+00  0.00000000E+00  0.00000000E+00  0.00000000E+00
  0.00000000E+00  0.00000000E+00  0.00000000E+00  0.00000000E+00  0.00000000E+00
  0.00000000E+00  0.00000000E+00  0.00000000E+00  0.00000000E+00  0.00000000E+00
  0.00000000E+00  0.00000000E+00  0.00000000E+00  0.00000000E+00  0.00000000E+00
  0.00000000E+00  0.00000000E+00  0.00000000E+00  0.00000000E+00  0.00000000E+00
IOpCl                                      I                0
IROHF                                      I                0
Alpha Orbital Energies                     R   N=         160
 -1.87797137E+01 -9.96323033E+00 -9.95558687E+00 -9.90797247E+00 -9.62445034E-01
 -6.69784413E-01 -5.89795745E-01 -5.29936436E-01 -4.47722466E-01 -4.13592151E-01
 -3.76836990E-01 -3.56005227E-01 -3.29094197E-01 -3.21191909E-01 -2.63422659E-01
 -2.19660982E-01  2.56952033E-02  4.28179789E-02  5.00729269E-02  5.09069362E-02
  6.46557879E-02  8.60501891E-02  9.14117769E-02  1.02538501E-01  1.38948874E-01
  1.70345829E-01  1.97424879E-01  2.02059645E-01  2.36353435E-01  2.47540002E-01
  2.68685855E-01  2.77838815E-01  3.00959833E-01  3.37415486E-01  3.62551111E-01
  3.72047236E-01  3.84918193E-01  3.94756966E-01  4.01576839E-01  4.15352714E-01
  4.26854338E-01  4.47078495E-01  4.59520587E-01  4.69136377E-01  5.08047969E-01
  5.36961585E-01  6.57814632E-01  6.74298361E-01  7.07496069E-01  7.61182990E-01
  7.94355164E-01  8.32095018E-01  8.54402280E-01  8.71433012E-01  9.20201094E-01
  9.61243557E-01  9.91984962E-01  1.01224709E+00  1.04167346E+00  1.07884604E+00
  1.10532447E+00  1.14722765E+00  1.21508604E+00  1.34864639E+00  1.41570171E+00
  1.43274075E+00  1.44318260E+00  1.44658722E+00  1.47418637E+00  1.47782845E+00
  1.51242880E+00  1.54228419E+00  1.57705485E+00  1.59767687E+00  1.64185711E+00
  1.69502781E+00  1.70110028E+00  1.78960888E+00  1.81553724E+00  1.84239394E+00
  1.86731042E+00  1.92088172E+00  1.99123693E+00  1.99447554E+00  2.08963537E+00
  2.09715811E+00  2.16628765E+00  2.20002274E+00  2.22928990E+00  2.24376319E+00
  2.26661091E+00  2.28312861E+00  2.35061826E+00  2.38737502E+00  2.45089451E+00
  2.47358768E+00  2.48356735E+00  2.52550431E+00  2.53260616E+00  2.55955459E+00
  2.59876060E+00  2.64940897E+00  2.66818934E+00  2.71622157E+00  2.73971033E+00
  2.80657903E+00  2.83169598E+00  2.86193197E+00  2.89880348E+00  2.96064798E+00
  2.96590760E+00  2.98859951E+00  3.00740107E+00  3.03465586E+00  3.06896075E+00
  3.14637210E+00  3.16711056E+00  3.19027512E+00  3.27850016E+00  3.29301194E+00
  3.31667771E+00  3.35412999E+00  3.37322721E+00  3.43045796E+00  3.45652745E+00
  3.56425856E+00  3.57230119E+00  3.63634663E+00  3.76651356E+00  3.78474449E+00
  3.88096187E+00  3.89767691E+00  3.98775192E+00  4.04856963E+00  4.14526757E+00
  4.19657427E+00  4.26084871E+00  4.28845582E+00  4.33840028E+00  4.46954826E+00
  4.56123657E+00  4.57250458E+00  4.73814307E+00  4.77076143E+00  5.18192967E+00
  5.34675170E+00  5.57767042E+00  5.60384573E+00  5.66716660E+00  5.76371002E+00
  5.90909253E+00  6.46466188E+00  6.50715208E+00  6.67647232E+00  6.84212957E+00
  7.05563306E+00  2.19407578E+01  2.19821237E+01  2.21013138E+01  4.34141720E+01
Alpha MO coefficients                      R   N=       25600
  4.35421905E-01  6.38477334E-01  3.98850474E-02 -3.32337681E-02  1.15566068E-02
  2.22803293E-03  1.30622381E-03  2.74785901E-05 -6.80727736E-03 -3.73346038E-03
  4.55404797E-06  1.32172690E-03  2.87884395E-04 -4.07932721E-04 -3.04859026E-04
 -4.74176817E-06  5.35302680E-05  9.91314144E-05  1.77314545E-04  1.58444719E-03
  4.98281101E-05 -2.37437358E-04 -7.03548791E-04 -1.12031723E-03  1.03197363E-05
  2.86726156E-04  1.65738742E-04  7.08392877E-05 -4.89977547E-05 -1.42682474E-05
 -2.30318888E-05  1.91361752E-05 -8.45958844E-05 -1.96462863E-03  3.30088164E-03
 -9.58720065E-03  3.25365972E-04 -2.79011503E-04 -8.73195942E-05 -5.09172265E-03
 -5.12744246E-04  7.13505854E-04  2.16952282E-03 -2.15099503E-04  3.03368802E-03
 -1.96294100E-04 -7.72523159E-05 -5.38382374E-05  6.62306830E-04  1.14552825E-04
 -2.42839241E-03  1.06919233E-04  2.99239304E-04  2.57120690E-03  2.29261416E-04
 -8.95799452E-05  5.30440129E-04  1.01363682E-05  1.34439329E-04 -1.05059447E-05
 -8.39824596E-04  1.08044654E-06  1.49414425E-05 -6.35699747E-05 -2.47961744E-03
  5.90320724E-03 -1.92885930E-03 -2.93890638E-04  4.03287079E-04  8.74922845E-05
 -8.45406040E-04 -5.33195005E-03 -7.15343138E-04  9.64067433E-04  1.35339355E-04
 -6.07484708E-04 -2.65765794E-04  9.22923071E-05  7.49204836E-05 -3.23974891E-04
  6.22639492E-04 -2.37816388E-03 -1.56072157E-04  7.16840029E-04 -1.04357508E-03
  1.16957277E-03  1.40041766E-04  2.73403183E-04  4.49855011E-04  6.49788391E-05
 -1.11794047E-04  6.53761685E-04  1.04023640E-05  3.47405541E-06 -1.65281459E-05
 -2.53499633E-05  1.72839271E-03  4.32838993E-03 -2.45962677E-05  1.72033359E-05
 -1.51939865E-06 -1.12844970E-03 -2.83351742E-04  1.09108993E-03 -1.18672656E-03
  1.04441362E-03  1.05941579E-03 -7.51136680E-06 -7.47479963E-06  1.45020719E-05
  1.36000777E-04  2.76849676E-05  8.76266389E-05 -4.09517537E-04  4.44457077E-04
 -1.29849216E-03 -4.40569447E-04  2.70997780E-05  7.50084561E-05  1.23516994E-04
 -4.32478524E-05 -6.47622858E-05  1.09440393E-05 -6.11718409E-06  8.54577245E-05
  9.07868282E-04 -3.44324421E-04 -1.77438075E-04  2.93642219E-05  5.24605585E-05
  8.06872392E-05  1.12052247E-03  7.70573214E-04  3.29519436E-05 -1.56083839E-04
 -4.43191932E-05  7.32685444E-05  1.29637402E-03  3.26332650E-04  2.74344182E-05
 -2.06813787E-04  2.20091036E-06  1.63761999E-04  9.99568522E-04 -4.98487245E-04
 -1.49167542E-04 -1.61147694E-04 -1.50800135E-05 -1.39843501E-04 -1.14643979E-03
  9.34369729E-04 -1.25820130E-04 -2.04939420E-04  2.25058174E-05  1.44120074E-05
  2.93463829E-04 -4.23281580E-04 -1.14630588E-04 -1.52997487E-04  8.30270210E-05
 -3.39244748E-06 -7.46432973E-05  6.14522641E-04  7.17302422E-04 -1.07812108E-03
  4.17629384E-04  7.62700679E-05 -3.11270600E-05 -8.02512135E-04  4.50962878E-05
  2.13922484E-04  1.25031476E-05  2.20041128E-03  3.91978508E-04 -1.01363406E-04
 -3.27202336E-05 -6.62171081E-06  2.12975769E-04 -4.10785503E-06  6.23968194E-04
  2.87853311E-04  7.97510509E-06 -1.29279606E-03  1.60061898E-04 -7.37852855E-05
  4.52357962E-04 -9.61137684E-06  1.21398109E-04 -1.50845358E-05 -4.71117958E-04
  2.62016104E-05  4.67262903E-01  6.06914614E-01  4.24989688E-02 -2.72554167E-02
  3.73682582E-02 -1.20609752E-03  5.76505349E-04 -3.53411911E-04  8.30331895E-04