 Entering Gaussian System, Link 0=g16
 Initial command:
 /util/academic/gaussian/g16.A03/x86-64-SSE4_2/g16/l1.exe "/scratch/2819092/Gau-19546.inp" -scrdir="/scratch/2819092/"
 Entering Link 1 = /util/academic/gaussian/g16.A03/x86-64-SSE4_2/g16/l1.exe PID=     19547.
  
 Copyright (c) 1988,1990,1992,1993,1995,1998,2003,2009,2016,
            Gaussian, Inc.  All Rights Reserved.
  
 This is part of the Gaussian(R) 16 program.  It is based on
 the Gaussian(R) 09 system (copyright 2009, Gaussian, Inc.),
 the Gaussian(R) 03 system (copyright 2003, Gaussian, Inc.),
 the Gaussian(R) 98 system (copyright 1998, Gaussian, Inc.),
 the Gaussian(R) 94 system (copyright 1995, Gaussian, Inc.),
 the Gaussian 92(TM) system (copyright 1992, Gaussian, Inc.),
 the Gaussian 90(TM) system (copyright 1990, Gaussian, Inc.),
 the Gaussian 88(TM) system (copyright 1988, Gaussian, Inc.),
 the Gaussian 86(TM) system (copyright 1986, Carnegie Mellon
 University), and the Gaussian 82(TM) system (copyright 1983,
 Carnegie Mellon University). Gaussian is a federally registered
 trademark of Gaussian, Inc.
  
 This software contains proprietary and confidential information,
 including trade secrets, belonging to Gaussian, Inc.
  
 This software is provided under written license and may be
 used, copied, transmitted, or stored only in accord with that
 written license.
  
 The following legend is applicable only to US Government
 contracts under FAR:
  
                    RESTRICTED RIGHTS LEGEND
  
 Use, reproduction and disclosure by the US Government is
 subject to restrictions as set forth in subparagraphs (a)
 and (c) of the Commercial Computer Software - Restricted
 Rights clause in FAR 52.227-19.
  
 Gaussian, Inc.
 340 Quinnipiac St., Bldg. 40, Wallingford CT 06492
  
  
 ---------------------------------------------------------------
 Warning -- This program may not be used in any manner that
 competes with the business of Gaussian, Inc. or will provide
 assistance to any competitor of Gaussian, Inc.  The licensee
 of this program is prohibited from giving any competitor of
 Gaussian, Inc. access to this program.  By using this program,
 the user acknowledges that Gaussian, Inc. is engaged in the
 business of creating and licensing software in the field of
 computational chemistry and represents and warrants to the
 licensee that it is not a competitor of Gaussian, Inc. and that
 it will not use this program in any manner prohibited above.
 ---------------------------------------------------------------
  

 Cite this work as:
 Gaussian 16, Revision A.03,
 M. J. Frisch, G. W. Trucks, H. B. Schlegel, G. E. Scuseria, 
 M. A. Robb, J. R. Cheeseman, G. Scalmani, V. Barone, 
 G. A. Petersson, H. Nakatsuji, X. Li, M. Caricato, A. V. Marenich, 
 J. Bloino, B. G. Janesko, R. Gomperts, B. Mennucci, H. P. Hratchian, 
 J. V. Ortiz, A. F. Izmaylov, J. L. Sonnenberg, D. Williams-Young, 
 F. Ding, F. Lipparini, F. Egidi, J. Goings, B. Peng, A. Petrone, 
 T. Henderson, D. Ranasinghe, V. G. Zakrzewski, J. Gao, N. Rega, 
 G. Zheng, W. Liang, M. Hada, M. Ehara, K. Toyota, R. Fukuda, 
 J. Hasegawa, M. Ishida, T. Nakajima, Y. Honda, O. Kitao, H. Nakai, 
 T. Vreven, K. Throssell, J. A. Montgomery, Jr., J. E. Peralta, 
 F. Ogliaro, M. J. Bearpark, J. J. Heyd, E. N. Brothers, K. N. Kudin, 
 V. N. Staroverov, T. A. Keith, R. Kobayashi, J. Normand, 
 K. Raghavachari, A. P. Rendell, J. C. Burant, S. S. Iyengar, 
 J. Tomasi, M. Cossi, J. M. Millam, M. Klene, C. Adamo, R. Cammi, 
 J. W. Ochterski, R. L. Martin, K. Morokuma, O. Farkas, 
 J. B. Foresman, and D. J. Fox, Gaussian, Inc., Wallingford CT, 2016.
 
 ******************************************
 Gaussian 16:  ES64L-G16RevA.03 25-Dec-2016
                16-Mar-2019 
 ******************************************
 %NProc=16
 Will use up to   16 processors via shared memory.
 %Chk=chk.chk
 -------------------------------------------------------------
 #P BLYP/def2TZVP OPT=VeryTight Int=UltraFine SCF=Tight NoSymm
 -------------------------------------------------------------
 1/7=1,18=20,19=15,26=4,38=1/1,3;
 2/9=110,12=2,15=1,17=6,18=5,40=1/2;
 3/5=44,7=101,11=2,25=1,30=1,71=1,74=402,75=-5/1,2,3;
 4//1;
 5/5=2,32=2,38=5/2;
 6/7=2,8=2,9=2,10=2,28=1/1;
 7/30=1/1,2,3,16;
 1/7=1,18=20,19=15,26=4/3(2);
 2/9=110,15=1/2;
 99//99;
 2/9=110,15=1/2;
 3/5=44,7=101,11=2,25=1,30=1,71=1,74=402,75=-5/1,2,3;
 4/5=5,16=3,69=1/1;
 5/5=2,32=2,38=5/2;
 7/30=1/1,2,3,16;
 1/7=1,18=20,19=15,26=4/3(-5);
 2/9=110,15=1/2;
 6/7=2,8=2,9=2,10=2,19=2,28=1/1;
 99/9=1/99;
 Leave Link    1 at Sat Mar 16 15:41:02 2019, MaxMem=           0 cpu:               0.8 elap:               0.1
 (Enter /util/academic/gaussian/g16.A03/x86-64-SSE4_2/g16/l101.exe)
 ----------
 opt + freq
 ----------
 Symbolic Z-matrix:
 Charge =  0 Multiplicity = 1
 O                    -1.9733   -0.79812  -0.4845 
 C                    -0.62217  -0.67463  -0.55072 
 C                    -0.07052   0.61     -0.46815 
 C                     1.31861   0.79825  -0.53079 
 C                     1.86939   2.0839   -0.44899 
 C                     3.25331   2.26287  -0.5124 
 C                     4.11572   1.16153  -0.65754 
 C                     3.5609   -0.13113  -0.74133 
 C                     2.17169  -0.31856  -0.67859 
 C                     0.23535  -1.78356  -0.69835 
 C                     5.61681   1.38693  -0.72492 
 C                     6.32043   0.72354   0.43531 
 O                     6.27708  -0.61753   0.58987 
 O                     6.94335   1.4053    1.23605 
 C                     6.19158   0.89471  -2.05775 
 H                     5.82241   2.48017  -0.66764 
 H                     5.69506   1.41961  -2.90176 
 H                     6.04633  -0.1991   -2.18356 
 H                     7.28037   1.11135  -2.10491 
 H                     6.72574  -1.0564    1.32637 
 H                     1.23029   2.95168  -0.33617 
 H                     3.651     3.26798  -0.44672 
 H                     4.20735  -0.99175  -0.85768 
 C                     1.61984  -1.60478  -0.76161 
 H                    -0.1575   -2.78912  -0.76532 
 H                     2.25855  -2.47277  -0.87528 
 H                    -0.7312    1.46204  -0.3549 
 C                    -2.67971  -1.98119  -0.54931 
 H                    -2.38989  -2.64806   0.29055 
 H                    -2.49338  -2.48704  -1.52064 
 H                    -3.76375  -1.76073  -0.46777 
 
 ITRead=  0  0  0  0  0  0  0  0  0  0  0  0  0  0  0  0  0  0  0  0
 ITRead=  0  0  0  0  0  0  0  0  0  0  0
 MicOpt= -1 -1 -1 -1 -1 -1 -1 -1 -1 -1 -1 -1 -1 -1 -1 -1 -1 -1 -1 -1
 MicOpt= -1 -1 -1 -1 -1 -1 -1 -1 -1 -1 -1
 NAtoms=     31 NQM=       31 NQMF=       0 NMMI=      0 NMMIF=      0
                NMic=       0 NMicF=      0.
                    Isotopes and Nuclear Properties:
 (Nuclear quadrupole moments (NQMom) in fm**2, nuclear magnetic moments (NMagM)
  in nuclear magnetons)

  Atom         1           2           3           4           5           6           7           8           9          10
 IAtWgt=          16          12          12          12          12          12          12          12          12          12
 AtmWgt=  15.9949146  12.0000000  12.0000000  12.0000000  12.0000000  12.0000000  12.0000000  12.0000000  12.0000000  12.0000000
 NucSpn=           0           0           0           0           0           0           0           0           0           0
 AtZEff=  -0.0000000  -0.0000000  -0.0000000  -0.0000000  -0.0000000  -0.0000000  -0.0000000  -0.0000000  -0.0000000  -0.0000000
 NQMom=    0.0000000   0.0000000   0.0000000   0.0000000   0.0000000   0.0000000   0.0000000   0.0000000   0.0000000   0.0000000
 NMagM=    0.0000000   0.0000000   0.0000000   0.0000000   0.0000000   0.0000000   0.0000000   0.0000000   0.0000000   0.0000000
 AtZNuc=   8.0000000   6.0000000   6.0000000   6.0000000   6.0000000   6.0000000   6.0000000   6.0000000   6.0000000   6.0000000

  Atom        11          12          13          14          15          16          17          18          19          20
 IAtWgt=          12          12          16          16          12           1           1           1           1           1
 AtmWgt=  12.0000000  12.0000000  15.9949146  15.9949146  12.0000000   1.0078250   1.0078250   1.0078250   1.0078250   1.0078250
 NucSpn=           0           0           0           0           0           1           1           1           1           1
 AtZEff=  -0.0000000  -0.0000000  -0.0000000  -0.0000000  -0.0000000  -0.0000000  -0.0000000  -0.0000000  -0.0000000  -0.0000000
 NQMom=    0.0000000   0.0000000   0.0000000   0.0000000   0.0000000   0.0000000   0.0000000   0.0000000   0.0000000   0.0000000
 NMagM=    0.0000000   0.0000000   0.0000000   0.0000000   0.0000000   2.7928460   2.7928460   2.7928460   2.7928460   2.7928460
 AtZNuc=   6.0000000   6.0000000   8.0000000   8.0000000   6.0000000   1.0000000   1.0000000   1.0000000   1.0000000   1.0000000

  Atom        21          22          23          24          25          26          27          28          29          30
 IAtWgt=           1           1           1          12           1           1           1          12           1           1
 AtmWgt=   1.0078250   1.0078250   1.0078250  12.0000000   1.0078250   1.0078250   1.0078250  12.0000000   1.0078250   1.0078250
 NucSpn=           1           1           1           0           1           1           1           0           1           1
 AtZEff=  -0.0000000  -0.0000000  -0.0000000  -0.0000000  -0.0000000  -0.0000000  -0.0000000  -0.0000000  -0.0000000  -0.0000000
 NQMom=    0.0000000   0.0000000   0.0000000   0.0000000   0.0000000   0.0000000   0.0000000   0.0000000   0.0000000   0.0000000
 NMagM=    2.7928460   2.7928460   2.7928460   0.0000000   2.7928460   2.7928460   2.7928460   0.0000000   2.7928460   2.7928460
 AtZNuc=   1.0000000   1.0000000   1.0000000   6.0000000   1.0000000   1.0000000   1.0000000   6.0000000   1.0000000   1.0000000

  Atom        31
 IAtWgt=           1
 AtmWgt=   1.0078250
 NucSpn=           1
 AtZEff=  -0.0000000
 NQMom=    0.0000000
 NMagM=    2.7928460
 AtZNuc=   1.0000000
 Leave Link  101 at Sat Mar 16 15:41:02 2019, MaxMem=   104857600 cpu:               4.4 elap:               0.3
 (Enter /util/academic/gaussian/g16.A03/x86-64-SSE4_2/g16/l103.exe)

 GradGradGradGradGradGradGradGradGradGradGradGradGradGradGradGradGradGrad
 Berny optimization.
 Initialization pass.
                           ----------------------------
                           !    Initial Parameters    !
                           ! (Angstroms and Degrees)  !
 --------------------------                            --------------------------
 ! Name  Definition              Value          Derivative Info.                !
 --------------------------------------------------------------------------------
 ! R1    R(1,2)                  1.3584         estimate D2E/DX2                !
 ! R2    R(1,28)                 1.3794         estimate D2E/DX2                !
 ! R3    R(2,3)                  1.4005         estimate D2E/DX2                !
 ! R4    R(2,10)                 1.4096         estimate D2E/DX2                !
 ! R5    R(3,4)                  1.4032         estimate D2E/DX2                !
 ! R6    R(3,27)                 1.0841         estimate D2E/DX2                !
 ! R7    R(4,5)                  1.4011         estimate D2E/DX2                !
 ! R8    R(4,9)                  1.4131         estimate D2E/DX2                !
 ! R9    R(5,6)                  1.3969         estimate D2E/DX2                !
 ! R10   R(5,21)                 1.0836         estimate D2E/DX2                !
 ! R11   R(6,7)                  1.4063         estimate D2E/DX2                !
 ! R12   R(6,22)                 1.0829         estimate D2E/DX2                !
 ! R13   R(7,8)                  1.4092         estimate D2E/DX2                !
 ! R14   R(7,11)                 1.5194         estimate D2E/DX2                !
 ! R15   R(8,9)                  1.4032         estimate D2E/DX2                !
 ! R16   R(8,23)                 1.0826         estimate D2E/DX2                !
 ! R17   R(9,24)                 1.4021         estimate D2E/DX2                !
 ! R18   R(10,24)                1.3974         estimate D2E/DX2                !
 ! R19   R(10,25)                1.0817         estimate D2E/DX2                !
 ! R20   R(11,12)                1.5104         estimate D2E/DX2                !
 ! R21   R(11,15)                1.5327         estimate D2E/DX2                !
 ! R22   R(11,16)                1.1139         estimate D2E/DX2                !
 ! R23   R(12,13)                1.3506         estimate D2E/DX2                !
 ! R24   R(12,14)                1.2223         estimate D2E/DX2                !
 ! R25   R(13,20)                0.9676         estimate D2E/DX2                !
 ! R26   R(15,17)                1.111          estimate D2E/DX2                !
 ! R27   R(15,18)                1.1106         estimate D2E/DX2                !
 ! R28   R(15,19)                1.1111         estimate D2E/DX2                !
 ! R29   R(24,26)                1.0836         estimate D2E/DX2                !
 ! R30   R(28,29)                1.1109         estimate D2E/DX2                !
 ! R31   R(28,30)                1.1109         estimate D2E/DX2                !
 ! R32   R(28,31)                1.1092         estimate D2E/DX2                !
 ! A1    A(2,1,28)             125.806          estimate D2E/DX2                !
 ! A2    A(1,2,3)              118.1842         estimate D2E/DX2                !
 ! A3    A(1,2,10)             122.5951         estimate D2E/DX2                !
 ! A4    A(3,2,10)             119.2207         estimate D2E/DX2                !
 ! A5    A(2,3,4)              120.6879         estimate D2E/DX2                !
 ! A6    A(2,3,27)             119.1449         estimate D2E/DX2                !
 ! A7    A(4,3,27)             120.1672         estimate D2E/DX2                !
 ! A8    A(3,4,5)              120.6418         estimate D2E/DX2                !
 ! A9    A(3,4,9)              119.7537         estimate D2E/DX2                !
 ! A10   A(5,4,9)              119.6046         estimate D2E/DX2                !
 ! A11   A(4,5,6)              120.2907         estimate D2E/DX2                !
 ! A12   A(4,5,21)             120.6026         estimate D2E/DX2                !
 ! A13   A(6,5,21)             119.1066         estimate D2E/DX2                !
 ! A14   A(5,6,7)              120.79           estimate D2E/DX2                !
 ! A15   A(5,6,22)             118.6849         estimate D2E/DX2                !
 ! A16   A(7,6,22)             120.5251         estimate D2E/DX2                !
 ! A17   A(6,7,8)              118.8859         estimate D2E/DX2                !
 ! A18   A(6,7,11)             119.6197         estimate D2E/DX2                !
 ! A19   A(8,7,11)             121.4941         estimate D2E/DX2                !
 ! A20   A(7,8,9)              120.6411         estimate D2E/DX2                !
 ! A21   A(7,8,23)             120.0327         estimate D2E/DX2                !
 ! A22   A(9,8,23)             119.326          estimate D2E/DX2                !
 ! A23   A(4,9,8)              119.7875         estimate D2E/DX2                !
 ! A24   A(4,9,24)             119.5778         estimate D2E/DX2                !
 ! A25   A(8,9,24)             120.6347         estimate D2E/DX2                !
 ! A26   A(2,10,24)            120.4525         estimate D2E/DX2                !
 ! A27   A(2,10,25)            121.1251         estimate D2E/DX2                !
 ! A28   A(24,10,25)           118.4224         estimate D2E/DX2                !
 ! A29   A(7,11,12)            111.1623         estimate D2E/DX2                !
 ! A30   A(7,11,15)            111.1869         estimate D2E/DX2                !
 ! A31   A(7,11,16)            109.0063         estimate D2E/DX2                !
 ! A32   A(12,11,15)           110.6249         estimate D2E/DX2                !
 ! A33   A(12,11,16)           107.7936         estimate D2E/DX2                !
 ! A34   A(15,11,16)           106.8999         estimate D2E/DX2                !
 ! A35   A(11,12,13)           120.6009         estimate D2E/DX2                !
 ! A36   A(11,12,14)           119.7134         estimate D2E/DX2                !
 ! A37   A(13,12,14)           119.6833         estimate D2E/DX2                !
 ! A38   A(12,13,20)           121.5033         estimate D2E/DX2                !
 ! A39   A(11,15,17)           109.9556         estimate D2E/DX2                !
 ! A40   A(11,15,18)           111.4552         estimate D2E/DX2                !
 ! A41   A(11,15,19)           109.9844         estimate D2E/DX2                !
 ! A42   A(17,15,18)           108.7118         estimate D2E/DX2                !
 ! A43   A(17,15,19)           108.2736         estimate D2E/DX2                !
 ! A44   A(18,15,19)           108.3839         estimate D2E/DX2                !
 ! A45   A(9,24,10)            120.3075         estimate D2E/DX2                !
 ! A46   A(9,24,26)            120.5993         estimate D2E/DX2                !
 ! A47   A(10,24,26)           119.0931         estimate D2E/DX2                !
 ! A48   A(1,28,29)            110.226          estimate D2E/DX2                !
 ! A49   A(1,28,30)            110.2256         estimate D2E/DX2                !
 ! A50   A(1,28,31)            109.0599         estimate D2E/DX2                !
 ! A51   A(29,28,30)           110.1168         estimate D2E/DX2                !
 ! A52   A(29,28,31)           108.5843         estimate D2E/DX2                !
 ! A53   A(30,28,31)           108.5842         estimate D2E/DX2                !
 ! D1    D(28,1,2,3)           179.9949         estimate D2E/DX2                !
 ! D2    D(28,1,2,10)            0.0026         estimate D2E/DX2                !
 ! D3    D(2,1,28,29)           60.8798         estimate D2E/DX2                !
 ! D4    D(2,1,28,30)          -60.8807         estimate D2E/DX2                !
 ! D5    D(2,1,28,31)          179.9998         estimate D2E/DX2                !
 ! D6    D(1,2,3,4)           -180.0            estimate D2E/DX2                !
 ! D7    D(1,2,3,27)            -0.0097         estimate D2E/DX2                !
 ! D8    D(10,2,3,4)            -0.0074         estimate D2E/DX2                !
 ! D9    D(10,2,3,27)          179.9829         estimate D2E/DX2                !
 ! D10   D(1,2,10,24)          179.9976         estimate D2E/DX2                !
 ! D11   D(1,2,10,25)           -0.0012         estimate D2E/DX2                !
 ! D12   D(3,2,10,24)            0.0054         estimate D2E/DX2                !
 ! D13   D(3,2,10,25)         -179.9934         estimate D2E/DX2                !
 ! D14   D(2,3,4,5)            179.957          estimate D2E/DX2                !
 ! D15   D(2,3,4,9)             -0.0054         estimate D2E/DX2                !
 ! D16   D(27,3,4,5)            -0.0333         estimate D2E/DX2                !
 ! D17   D(27,3,4,9)          -179.9956         estimate D2E/DX2                !
 ! D18   D(3,4,5,6)           -179.9882         estimate D2E/DX2                !
 ! D19   D(3,4,5,21)            -0.0023         estimate D2E/DX2                !
 ! D20   D(9,4,5,6)             -0.0258         estimate D2E/DX2                !
 ! D21   D(9,4,5,21)           179.9601         estimate D2E/DX2                !
 ! D22   D(3,4,9,8)            179.9989         estimate D2E/DX2                !
 ! D23   D(3,4,9,24)             0.0203         estimate D2E/DX2                !
 ! D24   D(5,4,9,8)              0.0362         estimate D2E/DX2                !
 ! D25   D(5,4,9,24)          -179.9425         estimate D2E/DX2                !
 ! D26   D(4,5,6,7)             -0.0601         estimate D2E/DX2                !
 ! D27   D(4,5,6,22)           179.9908         estimate D2E/DX2                !
 ! D28   D(21,5,6,7)           179.9538         estimate D2E/DX2                !
 ! D29   D(21,5,6,22)            0.0047         estimate D2E/DX2                !
 ! D30   D(5,6,7,8)              0.1333         estimate D2E/DX2                !
 ! D31   D(5,6,7,11)           179.9428         estimate D2E/DX2                !
 ! D32   D(22,6,7,8)          -179.9186         estimate D2E/DX2                !
 ! D33   D(22,6,7,11)           -0.109          estimate D2E/DX2                !
 ! D34   D(6,7,8,9)             -0.1224         estimate D2E/DX2                !
 ! D35   D(6,7,8,23)           179.7294         estimate D2E/DX2                !
 ! D36   D(11,7,8,9)          -179.9282         estimate D2E/DX2                !
 ! D37   D(11,7,8,23)           -0.0764         estimate D2E/DX2                !
 ! D38   D(6,7,11,12)          117.3085         estimate D2E/DX2                !
 ! D39   D(6,7,11,15)         -118.97           estimate D2E/DX2                !
 ! D40   D(6,7,11,16)           -1.372          estimate D2E/DX2                !
 ! D41   D(8,7,11,12)          -62.8871         estimate D2E/DX2                !
 ! D42   D(8,7,11,15)           60.8344         estimate D2E/DX2                !
 ! D43   D(8,7,11,16)          178.4324         estimate D2E/DX2                !
 ! D44   D(7,8,9,4)              0.0388         estimate D2E/DX2                !
 ! D45   D(7,8,9,24)          -179.9828         estimate D2E/DX2                !
 ! D46   D(23,8,9,4)          -179.8141         estimate D2E/DX2                !
 ! D47   D(23,8,9,24)            0.1643         estimate D2E/DX2                !
 ! D48   D(4,9,24,10)           -0.0224         estimate D2E/DX2                !
 ! D49   D(4,9,24,26)          179.989          estimate D2E/DX2                !
 ! D50   D(8,9,24,10)          179.9991         estimate D2E/DX2                !
 ! D51   D(8,9,24,26)            0.0105         estimate D2E/DX2                !
 ! D52   D(2,10,24,9)            0.0096         estimate D2E/DX2                !
 ! D53   D(2,10,24,26)         179.9984         estimate D2E/DX2                !
 ! D54   D(25,10,24,9)        -179.9915         estimate D2E/DX2                !
 ! D55   D(25,10,24,26)         -0.0028         estimate D2E/DX2                !
 ! D56   D(7,11,12,13)          62.724          estimate D2E/DX2                !
 ! D57   D(7,11,12,14)        -117.8392         estimate D2E/DX2                !
 ! D58   D(15,11,12,13)        -61.3172         estimate D2E/DX2                !
 ! D59   D(15,11,12,14)        118.1197         estimate D2E/DX2                !
 ! D60   D(16,11,12,13)       -177.869          estimate D2E/DX2                !
 ! D61   D(16,11,12,14)          1.5678         estimate D2E/DX2                !
 ! D62   D(7,11,15,17)          58.2579         estimate D2E/DX2                !
 ! D63   D(7,11,15,18)         -62.3666         estimate D2E/DX2                !
 ! D64   D(7,11,15,19)         177.4016         estimate D2E/DX2                !
 ! D65   D(12,11,15,17)       -177.715          estimate D2E/DX2                !
 ! D66   D(12,11,15,18)         61.6605         estimate D2E/DX2                !
 ! D67   D(12,11,15,19)        -58.5713         estimate D2E/DX2                !
 ! D68   D(16,11,15,17)        -60.6112         estimate D2E/DX2                !
 ! D69   D(16,11,15,18)        178.7642         estimate D2E/DX2                !
 ! D70   D(16,11,15,19)         58.5325         estimate D2E/DX2                !
 ! D71   D(11,12,13,20)        179.7727         estimate D2E/DX2                !
 ! D72   D(14,12,13,20)          0.3357         estimate D2E/DX2                !
 --------------------------------------------------------------------------------
 Trust Radius=3.00D-01 FncErr=1.00D-07 GrdErr=1.00D-06 EigMax=2.50D+02 EigMin=1.00D-04
 Number of steps in this run=    167 maximum allowed number of steps=    186.
 GradGradGradGradGradGradGradGradGradGradGradGradGradGradGradGradGradGrad

 Leave Link  103 at Sat Mar 16 15:41:03 2019, MaxMem=   104857600 cpu:               0.3 elap:               0.1
 (Enter /util/academic/gaussian/g16.A03/x86-64-SSE4_2/g16/l202.exe)
                          Input orientation:                          
 ---------------------------------------------------------------------
 Center     Atomic      Atomic             Coordinates (Angstroms)
 Number     Number       Type             X           Y           Z
 ---------------------------------------------------------------------
      1          8           0       -1.973300   -0.798120   -0.484500
      2          6           0       -0.622170   -0.674630   -0.550720
      3          6           0       -0.070520    0.610000   -0.468150
      4          6           0        1.318610    0.798250   -0.530790
      5          6           0        1.869390    2.083900   -0.448990
      6          6           0        3.253310    2.262870   -0.512400
      7          6           0        4.115720    1.161530   -0.657540
      8          6           0        3.560900   -0.131130   -0.741330
      9          6           0        2.171690   -0.318560   -0.678590
     10          6           0        0.235350   -1.783560   -0.698350
     11          6           0        5.616810    1.386930   -0.724920
     12          6           0        6.320430    0.723540    0.435310
     13          8           0        6.277080   -0.617530    0.589870
     14          8           0        6.943350    1.405300    1.236050
     15          6           0        6.191580    0.894710   -2.057750
     16          1           0        5.822410    2.480170   -0.667640
     17          1           0        5.695060    1.419610   -2.901760
     18          1           0        6.046330   -0.199100   -2.183560
     19          1           0        7.280370    1.111350   -2.104910
     20          1           0        6.725740   -1.056400    1.326370
     21          1           0        1.230290    2.951680   -0.336170
     22          1           0        3.651000    3.267980   -0.446720
     23          1           0        4.207350   -0.991750   -0.857680
     24          6           0        1.619840   -1.604780   -0.761610
     25          1           0       -0.157500   -2.789120   -0.765320
     26          1           0        2.258550   -2.472770   -0.875280
     27          1           0       -0.731200    1.462040   -0.354900
     28          6           0       -2.679710   -1.981190   -0.549310
     29          1           0       -2.389890   -2.648060    0.290550
     30          1           0       -2.493380   -2.487040   -1.520640
     31          1           0       -3.763750   -1.760730   -0.467770
 ---------------------------------------------------------------------
                    Distance matrix (angstroms):
                    1          2          3          4          5
     1  O    0.000000
     2  C    1.358377   0.000000
     3  C    2.367201   1.400503   0.000000
     4  C    3.658854   2.436473   1.403226   0.000000
     5  C    4.803495   3.718563   2.436391   1.401052   0.000000
     6  C    6.057053   4.863098   3.712382   2.426626   1.396884
     7  C    6.398932   5.082371   4.226661   2.823449   2.437264
     8  C    5.580162   4.222535   3.716330   2.436378   2.802325
     9  C    4.177151   2.819360   2.435983   1.413101   2.432266
    10  C    2.427954   1.409561   2.423980   2.804866   4.205890
    11  C    7.902026   6.573070   5.745892   4.342667   3.821657
    12  C    8.482185   7.150303   6.455492   5.094814   4.737544
    13  O    8.321998   6.993129   6.551203   5.277001   5.273015
    14  O    9.344624   8.047096   7.261623   5.926882   5.389335
    15  C    8.485638   7.152703   6.466976   5.107519   4.762731
    16  H    8.458949   7.176283   6.185787   4.809553   3.978845
    17  H    8.340577   7.058373   6.310296   5.016064   4.592724
    18  H    8.219495   6.881946   6.404149   5.106632   5.066325
    19  H    9.586564   8.249568   7.547577   6.174016   5.741657
    20  H    8.889278   7.593484   7.224011   6.010476   6.049589
    21  H    4.934166   4.077716   2.681975   2.164010   1.083614
    22  H    6.940270   5.815064   4.573295   3.398040   2.139202
    23  H    6.194933   4.849645   4.584486   3.414056   3.884933
    24  C    3.692986   2.436445   2.801551   2.432811   3.710305
    25  H    2.709256   2.175555   3.413194   3.886274   5.287218
    26  H    4.567901   3.411333   3.885073   3.420780   4.593083
    27  H    2.582234   2.148393   1.084111   2.161776   2.675562
    28  C    1.379446   2.437329   3.678142   4.869517   6.101584
    29  H    2.048543   2.779747   4.070634   5.128803   6.409355
    30  H    2.048541   2.779748   4.070583   5.128762   6.409032
    31  H    2.032882   3.325059   4.388657   5.690583   6.820103
                    6          7          8          9         10
     6  C    0.000000
     7  C    1.406331   0.000000
     8  C    2.424512   1.409190   0.000000
     9  C    2.803801   2.443432   1.403200   0.000000
    10  C    5.051362   4.871601   3.713712   2.428174   0.000000
    11  C    2.529539   1.519413   2.555688   3.844437   6.246025
    12  C    3.560185   2.499380   3.119287   4.420270   6.678243
    13  O    4.319131   3.064729   3.063709   4.307273   6.286624
    14  O    4.172397   3.411832   4.208517   5.422756   7.675154
    15  C    3.590738   2.518129   3.115411   4.419686   6.670665
    16  H    2.582943   2.156781   3.455249   4.600083   7.028199
    17  H    3.518845   2.756346   3.409823   4.514184   6.702518
    18  H    4.081058   2.811993   2.874371   4.158370   6.203535
    19  H    4.480993   3.480288   4.151815   5.493418   7.745400
    20  H    5.143578   3.958196   3.892007   5.030273   6.837647
    21  H    2.144324   3.410810   3.885822   3.420227   4.852172
    22  H    1.082921   2.167381   3.413043   3.886565   6.103117
    23  H    3.409100   2.164502   1.082636   2.151551   4.053287
    24  C    4.205835   3.727294   2.437164   1.402067   1.397418
    25  H    6.100836   5.820624   4.570775   3.396515   1.081650
    26  H    4.852578   4.087130   2.682785   2.164914   2.144680
    27  H    4.067242   4.865648   4.594523   3.420831   3.403836
    28  C    7.294802   7.487741   6.511897   5.130023   2.925550
    29  H    7.523807   7.598343   6.543059   5.212851   2.935501
    30  H    7.523473   7.598500   6.543084   5.212891   2.935475
    31  H    8.088911   8.406049   7.508724   6.111771   4.005807
                   11         12         13         14         15
    11  C    0.000000
    12  C    1.510398   0.000000
    13  O    2.486461   1.350643   0.000000
    14  O    2.367583   1.222297   2.225602   0.000000
    15  C    1.532670   2.502249   3.050258   3.416867   0.000000
    16  H    1.113879   2.133137   3.373989   2.456804   2.140648
    17  H    2.178491   3.465781   4.084136   4.322025   1.111038
    18  H    2.197182   2.790139   2.814293   3.882329   1.110561
    19  H    2.178933   2.743100   3.355213   3.370757   1.111135
    20  H    3.377481   2.031367   0.967644   2.472949   3.942642
    21  H    4.673449   5.609752   6.250352   6.123906   5.639979
    22  H    2.734987   3.791834   4.802916   4.140152   3.831759
    23  H    2.768090   3.013163   2.553277   4.197053   2.989326
    24  C    4.992739   5.380450   4.948843   6.433583   5.369193
    25  H    7.126267   7.466182   6.925039   8.486502   7.453308
    26  H    5.118379   5.332252   4.662313   6.437740   5.311015
    27  H    6.359229   7.134094   7.371105   7.837924   7.151674
    28  C    8.955854   9.449210   9.131341  10.356597   9.447009
    29  H    9.023279   9.341216   8.906684  10.219250   9.576396
    30  H    9.023081   9.582109   9.212507  10.573624   9.335591
    31  H    9.897919  10.424866  10.160894  11.294633  10.425353
                   16         17         18         19         20
    16  H    0.000000
    17  H    2.476348   0.000000
    18  H    3.086526   1.805387   0.000000
    19  H    2.462734   1.800889   1.801755   0.000000
    20  H    4.159256   5.006996   3.676434   4.096393   0.000000
    21  H    4.628149   5.372491   6.044378   6.566485   7.002051
    22  H    2.320446   3.690782   4.557945   4.535744   5.594474
    23  H    3.833897   3.493737   2.401687   3.927094   3.334148
    24  C    5.861505   5.507685   4.857128   6.420546   5.543518
    25  H    7.970839   7.518660   6.870743   8.504709   7.399762
    26  H    6.105393   5.573764   4.607434   6.290992   5.177756
    27  H    6.639593   6.912678   7.213757   8.207970   8.048302
    28  C    9.602280   9.340034   9.054855  10.544519   9.635139
    29  H    9.729272   9.597041   9.126250  10.648254   9.311338
    30  H    9.723844   9.177143   8.865708  10.431489   9.754198
    31  H   10.484257  10.271707  10.080689  11.528298  10.665103
                   21         22         23         24         25
    21  H    0.000000
    22  H    2.443789   0.000000
    23  H    4.968450   4.315520   0.000000
    24  C    4.592829   5.288531   2.660873   0.000000
    25  H    5.921732   7.162028   4.721333   2.135793   0.000000
    26  H    5.547307   5.922735   2.447765   1.083641   2.439153
    27  H    2.463092   4.740625   5.537432   3.885639   4.309285
    28  C    6.298153   8.224488   6.964602   4.321213   2.657246
    29  H    6.697430   8.487370   6.898215   4.274741   2.473525
    30  H    6.696892   8.486870   6.897477   4.274703   2.473479
    31  H    6.867646   8.959179   8.017593   5.393858   3.761803
                   26         27         28         29         30
    26  H    0.000000
    27  H    4.969118   0.000000
    28  C    4.973361   3.961101   0.000000
    29  H    4.795611   4.478926   1.110890   0.000000
    30  H    4.795574   4.478779   1.110894   1.821276   0.000000
    31  H    6.077924   4.426663   1.109231   1.802747   1.802748
                   31
    31  H    0.000000
 Symmetry turned off by external request.
 Stoichiometry    C14H14O3
 Framework group  C1[X(C14H14O3)]
 Deg. of freedom    87
 Full point group                 C1      NOp   1
 Rotational constants (GHZ):           1.2880418           0.2086805           0.1954350
 Leave Link  202 at Sat Mar 16 15:41:03 2019, MaxMem=   104857600 cpu:               0.1 elap:               0.0
 (Enter /util/academic/gaussian/g16.A03/x86-64-SSE4_2/g16/l301.exe)
 Standard basis: def2TZVP (5D, 7F)
 Ernie: Thresh=  0.10000D-02 Tol=  0.10000D-05 Strict=F.
   611 basis functions,   979 primitive gaussians,   696 cartesian basis functions
    61 alpha electrons       61 beta electrons
       nuclear repulsion energy      1129.1799785489 Hartrees.
 IExCor=  402 DFT=T Ex=B Corr=LYP ExCW=0 ScaHFX=  0.000000
 ScaDFX=  1.000000  1.000000  1.000000  1.000000 ScalE2=  1.000000  1.000000
 IRadAn=      5 IRanWt=     -1 IRanGd=            0 ICorTp=0 IEmpDi=  4
 NAtoms=   31 NActive=   31 NUniq=   31 SFac= 1.00D+00 NAtFMM=   60 NAOKFM=F Big=F
 Integral buffers will be    131072 words long.
 Raffenetti 2 integral format.
 Two-electron integral symmetry is turned off.
 Leave Link  301 at Sat Mar 16 15:41:03 2019, MaxMem=   104857600 cpu:               2.4 elap:               0.3
 (Enter /util/academic/gaussian/g16.A03/x86-64-SSE4_2/g16/l302.exe)
 NPDir=0 NMtPBC=     1 NCelOv=     1 NCel=       1 NClECP=     1 NCelD=      1
         NCelK=      1 NCelE2=     1 NClLst=     1 CellRange=     0.0.
 One-electron integrals computed using PRISM.
 PrsmSu:  requested number of processors reduced to:  12 ShMem   1 Linda.
   1 Symmetry operations used in ECPInt.
 ECPInt:  NShTT=   29646 NPrTT=   90516 LenC2=   25837 LenP2D=   57673.
 LDataN:  DoStor=T MaxTD1= 6 Len=  172
 Number of processors reduced to  11 by ecpmxn.
 NBasis=   611 RedAO= T EigKep=  5.53D-06  NBF=   611
 NBsUse=   611 1.00D-06 EigRej= -1.00D+00 NBFU=   611
 Precomputing XC quadrature grid using
 IXCGrd= 4 IRadAn=           5 IRanWt=          -1 IRanGd=           0 AccXCQ= 0.00D+00.
 Generated NRdTot=       0 NPtTot=           0 NUsed=           0 NTot=          32
 NSgBfM=   684   684   684   684   684 MxSgAt=    31 MxSgA2=    31.
 Leave Link  302 at Sat Mar 16 15:41:05 2019, MaxMem=   104857600 cpu:              18.7 elap:               1.3
 (Enter /util/academic/gaussian/g16.A03/x86-64-SSE4_2/g16/l303.exe)
 DipDrv:  MaxL=1.
 Leave Link  303 at Sat Mar 16 15:41:05 2019, MaxMem=   104857600 cpu:               2.8 elap:               0.5
 (Enter /util/academic/gaussian/g16.A03/x86-64-SSE4_2/g16/l401.exe)
 ExpMin= 9.52D-02 ExpMax= 2.70D+04 ExpMxC= 9.22D+02 IAcc=3 IRadAn=         5 AccDes= 0.00D+00
 Harris functional with IExCor=  402 and IRadAn=       5 diagonalized for initial guess.
 HarFok:  IExCor=  402 AccDes= 0.00D+00 IRadAn=         5 IDoV= 1 UseB2=F ITyADJ=14
 ICtDFT=  3500011 ScaDFX=  1.000000  1.000000  1.000000  1.000000
 FoFCou: FMM=F IPFlag=           0 FMFlag=      100000 FMFlg1=           0
         NFxFlg=           0 DoJE=T BraDBF=F KetDBF=T FulRan=T
         wScrn=  0.000000 ICntrl=       500 IOpCl=  0 I1Cent=   200000004 NGrid=           0
         NMat0=    1 NMatS0=      1 NMatT0=    0 NMatD0=    1 NMtDS0=    0 NMtDT0=    0
 Symmetry not used in FoFCou.
 Harris En= -767.959221801719    
 JPrj=0 DoOrth=F DoCkMO=F.
 Leave Link  401 at Sat Mar 16 15:41:11 2019, MaxMem=   104857600 cpu:              81.1 elap:               5.2
 (Enter /util/academic/gaussian/g16.A03/x86-64-SSE4_2/g16/l502.exe)
 Two-electron integral symmetry not used.
 Closed shell SCF:
 Using DIIS extrapolation, IDIIS=  1040.
 NGot=   104857600 LenX=   103873019 LenY=   103387907
 Requested convergence on RMS density matrix=1.00D-08 within 128 cycles.
 Requested convergence on MAX density matrix=1.00D-06.
 Requested convergence on             energy=1.00D-06.
 No special actions if energy rises.
 Fock matrices will be formed incrementally for  20 cycles.
 Integral accuracy reduced to 1.0D-05 until final iterations.

 Cycle   1  Pass 0  IDiag  1:
 FoFJK:  IHMeth= 1 ICntrl=     500 DoSepK=F KAlg= 0 I1Cent=           0 FoldK=F
 IRaf= 810000000 NMat=       1 IRICut=       1 DoRegI=T DoRafI=F ISym2E= 0 IDoP0=0 IntGTp=1.
 FoFCou: FMM=F IPFlag=           0 FMFlag=      100000 FMFlg1=           0
         NFxFlg=           0 DoJE=T BraDBF=F KetDBF=F FulRan=T
         wScrn=  0.000000 ICntrl=       500 IOpCl=  0 I1Cent=           0 NGrid=           0
         NMat0=    1 NMatS0=      1 NMatT0=    0 NMatD0=    1 NMtDS0=    0 NMtDT0=    0
 Symmetry not used in FoFCou.
 E= -767.172248581510    
 DIIS: error= 1.84D-02 at cycle   1 NSaved=   1.
 NSaved= 1 IEnMin= 1 EnMin= -767.172248581510     IErMin= 1 ErrMin= 1.84D-02
 ErrMax= 1.84D-02  0.00D+00 EMaxC= 1.00D-01 BMatC= 4.70D-01 BMatP= 4.70D-01
 IDIUse=3 WtCom= 8.16D-01 WtEn= 1.84D-01
 Coeff-Com:  0.100D+01
 Coeff-En:   0.100D+01
 Coeff:      0.100D+01
 Gap=     0.110 Goal=   None    Shift=    0.000
 GapD=    0.110 DampG=1.000 DampE=0.500 DampFc=0.5000 IDamp=-1.
 Damping current iteration by 5.00D-01
 RMSDP=1.25D-02 MaxDP=1.66D+00              OVMax= 3.35D-01

 Cycle   2  Pass 0  IDiag  1:
 RMSU=  6.22D-03    CP:  1.10D+00
 E= -767.212631738544     Delta-E=       -0.040383157034 Rises=F Damp=T
 DIIS: error= 1.19D-02 at cycle   2 NSaved=   2.
 NSaved= 2 IEnMin= 2 EnMin= -767.212631738544     IErMin= 2 ErrMin= 1.19D-02
 ErrMax= 1.19D-02  0.00D+00 EMaxC= 1.00D-01 BMatC= 1.25D-01 BMatP= 4.70D-01
 IDIUse=3 WtCom= 8.81D-01 WtEn= 1.19D-01
 Coeff-Com:  0.302D+00 0.698D+00
 Coeff-En:   0.461D+00 0.539D+00
 Coeff:      0.320D+00 0.680D+00
 Gap=     0.193 Goal=   None    Shift=    0.000
 RMSDP=3.80D-03 MaxDP=4.83D-01 DE=-4.04D-02 OVMax= 3.19D-01

 Cycle   3  Pass 0  IDiag  1:
 RMSU=  2.35D-03    CP:  1.06D+00  5.24D-01
 E= -767.476734198726     Delta-E=       -0.264102460182 Rises=F Damp=F
 DIIS: error= 1.44D-02 at cycle   3 NSaved=   3.
 NSaved= 3 IEnMin= 3 EnMin= -767.476734198726     IErMin= 2 ErrMin= 1.19D-02
 ErrMax= 1.44D-02  0.00D+00 EMaxC= 1.00D-01 BMatC= 1.65D-01 BMatP= 1.25D-01
 IDIUse=2 WtCom= 0.00D+00 WtEn= 1.00D+00
 EnCoef did     2 forward-backward iterations
 Coeff-En:   0.148D-01 0.482D-01 0.937D+00
 Coeff:      0.148D-01 0.482D-01 0.937D+00
 Gap=     0.104 Goal=   None    Shift=    0.000
 RMSDP=5.04D-03 MaxDP=2.97D-01 DE=-2.64D-01 OVMax= 6.27D-01

 Cycle   4  Pass 0  IDiag  1:
 RMSU=  3.47D-03    CP:  1.07D+00  9.04D-01 -1.81D-01
 E= -765.902840963699     Delta-E=        1.573893235026 Rises=F Damp=F
 DIIS: error= 4.91D-02 at cycle   4 NSaved=   4.
 NSaved= 4 IEnMin= 3 EnMin= -767.476734198726     IErMin= 2 ErrMin= 1.19D-02
 ErrMax= 4.91D-02  0.00D+00 EMaxC= 1.00D-01 BMatC= 1.86D+00 BMatP= 1.25D-01
 IDIUse=2 WtCom= 0.00D+00 WtEn= 1.00D+00
 Coeff-En:   0.000D+00 0.000D+00 0.868D+00 0.132D+00
 Coeff:      0.000D+00 0.000D+00 0.868D+00 0.132D+00
 Gap=     0.047 Goal=   None    Shift=    0.000
 RMSDP=3.77D-03 MaxDP=3.28D-01 DE= 1.57D+00 OVMax= 4.21D-01

 Cycle   5  Pass 0  IDiag  1:
 RMSU=  1.27D-03    CP:  1.04D+00  5.16D-01  4.93D-01  4.07D-01
 E= -767.401212295673     Delta-E=       -1.498371331974 Rises=F Damp=F
 DIIS: error= 1.80D-02 at cycle   5 NSaved=   5.
 NSaved= 5 IEnMin= 3 EnMin= -767.476734198726     IErMin= 2 ErrMin= 1.19D-02
 ErrMax= 1.80D-02  0.00D+00 EMaxC= 1.00D-01 BMatC= 2.69D-01 BMatP= 1.25D-01
 IDIUse=2 WtCom= 0.00D+00 WtEn= 1.00D+00
 Coeff-En:   0.000D+00 0.000D+00 0.576D+00 0.000D+00 0.424D+00
 Coeff:      0.000D+00 0.000D+00 0.576D+00 0.000D+00 0.424D+00
 Gap=     0.104 Goal=   None    Shift=    0.000
 RMSDP=1.11D-03 MaxDP=9.05D-02 DE=-1.50D+00 OVMax= 1.63D-01

 Cycle   6  Pass 0  IDiag  1:
 RMSU=  3.67D-04    CP:  1.05D+00  5.30D-01  7.11D-01  2.07D-01  5.37D-01
 E= -767.604921412593     Delta-E=       -0.203709116920 Rises=F Damp=F
 DIIS: error= 1.88D-03 at cycle   6 NSaved=   6.
 NSaved= 6 IEnMin= 6 EnMin= -767.604921412593     IErMin= 6 ErrMin= 1.88D-03
 ErrMax= 1.88D-03  0.00D+00 EMaxC= 1.00D-01 BMatC= 4.93D-03 BMatP= 1.25D-01
 IDIUse=3 WtCom= 9.81D-01 WtEn= 1.88D-02
 Coeff-Com:  0.757D-02 0.270D-01 0.283D+00-0.203D-01 0.222D+00 0.480D+00
 Coeff-En:   0.000D+00 0.000D+00 0.000D+00 0.000D+00 0.000D+00 0.100D+01
 Coeff:      0.743D-02 0.265D-01 0.278D+00-0.199D-01 0.218D+00 0.490D+00
 Gap=     0.105 Goal=   None    Shift=    0.000
 RMSDP=2.92D-04 MaxDP=3.27D-02 DE=-2.04D-01 OVMax= 2.26D-02

 Cycle   7  Pass 0  IDiag  1:
 RMSU=  1.38D-04    CP:  1.05D+00  5.01D-01  7.30D-01  1.87D-01  5.02D-01
                    CP:  5.96D-01
 E= -767.608637883226     Delta-E=       -0.003716470633 Rises=F Damp=F
 DIIS: error= 1.13D-03 at cycle   7 NSaved=   7.
 NSaved= 7 IEnMin= 7 EnMin= -767.608637883226     IErMin= 7 ErrMin= 1.13D-03
 ErrMax= 1.13D-03  0.00D+00 EMaxC= 1.00D-01 BMatC= 9.86D-04 BMatP= 4.93D-03
 IDIUse=3 WtCom= 9.89D-01 WtEn= 1.13D-02
 Coeff-Com:  0.371D-03 0.242D-02 0.104D+00-0.620D-02 0.563D-01 0.317D+00
 Coeff-Com:  0.526D+00
 Coeff-En:   0.000D+00 0.000D+00 0.000D+00 0.000D+00 0.000D+00 0.136D+00
 Coeff-En:   0.864D+00
 Coeff:      0.367D-03 0.239D-02 0.103D+00-0.613D-02 0.557D-01 0.315D+00
 Coeff:      0.530D+00
 Gap=     0.103 Goal=   None    Shift=    0.000
 RMSDP=1.00D-04 MaxDP=1.06D-02 DE=-3.72D-03 OVMax= 1.29D-02

 Cycle   8  Pass 0  IDiag  1:
 RMSU=  8.38D-05    CP:  1.05D+00  5.04D-01  7.44D-01  1.83D-01  4.94D-01
                    CP:  5.43D-01  7.79D-01
 E= -767.609351236561     Delta-E=       -0.000713353335 Rises=F Damp=F
 DIIS: error= 5.96D-04 at cycle   8 NSaved=   8.
 NSaved= 8 IEnMin= 8 EnMin= -767.609351236561     IErMin= 8 ErrMin= 5.96D-04
 ErrMax= 5.96D-04  0.00D+00 EMaxC= 1.00D-01 BMatC= 3.13D-04 BMatP= 9.86D-04
 IDIUse=3 WtCom= 9.94D-01 WtEn= 5.96D-03
 Coeff-Com:  0.220D-03-0.158D-02 0.224D-01-0.381D-03-0.740D-02 0.139D+00
 Coeff-Com:  0.412D+00 0.436D+00
 Coeff-En:   0.000D+00 0.000D+00 0.000D+00 0.000D+00 0.000D+00 0.000D+00
 Coeff-En:   0.242D+00 0.758D+00
 Coeff:      0.219D-03-0.157D-02 0.222D-01-0.379D-03-0.735D-02 0.138D+00
 Coeff:      0.411D+00 0.438D+00
 Gap=     0.103 Goal=   None    Shift=    0.000
 RMSDP=6.92D-05 MaxDP=5.04D-03 DE=-7.13D-04 OVMax= 5.46D-03

 Cycle   9  Pass 0  IDiag  1:
 RMSU=  5.37D-05    CP:  1.05D+00  5.02D-01  7.45D-01  1.78D-01  4.84D-01
                    CP:  6.19D-01  7.98D-01  7.26D-01
 E= -767.609636347524     Delta-E=       -0.000285110963 Rises=F Damp=F
 DIIS: error= 1.76D-04 at cycle   9 NSaved=   9.
 NSaved= 9 IEnMin= 9 EnMin= -767.609636347524     IErMin= 9 ErrMin= 1.76D-04
 ErrMax= 1.76D-04  0.00D+00 EMaxC= 1.00D-01 BMatC= 9.02D-06 BMatP= 3.13D-04
 IDIUse=3 WtCom= 9.98D-01 WtEn= 1.76D-03
 Coeff-Com:  0.270D-03-0.134D-02 0.122D-01-0.194D-03-0.569D-02 0.801D-01
 Coeff-Com:  0.246D+00 0.283D+00 0.385D+00
 Coeff-En:   0.000D+00 0.000D+00 0.000D+00 0.000D+00 0.000D+00 0.000D+00
 Coeff-En:   0.000D+00 0.000D+00 0.100D+01
 Coeff:      0.270D-03-0.134D-02 0.121D-01-0.193D-03-0.568D-02 0.799D-01
 Coeff:      0.246D+00 0.282D+00 0.386D+00
 Gap=     0.104 Goal=   None    Shift=    0.000
 RMSDP=2.95D-05 MaxDP=2.61D-03 DE=-2.85D-04 OVMax= 2.06D-03

 Cycle  10  Pass 0  IDiag  1:
 RMSU=  2.10D-05    CP:  1.05D+00  5.01D-01  7.40D-01  1.78D-01  4.85D-01
                    CP:  6.45D-01  8.17D-01  7.30D-01  1.19D+00
 E= -767.609643126288     Delta-E=       -0.000006778765 Rises=F Damp=F
 DIIS: error= 7.19D-05 at cycle  10 NSaved=  10.
 NSaved=10 IEnMin=10 EnMin= -767.609643126288     IErMin=10 ErrMin= 7.19D-05
 ErrMax= 7.19D-05  0.00D+00 EMaxC= 1.00D-01 BMatC= 2.08D-06 BMatP= 9.02D-06
 IDIUse=1 WtCom= 1.00D+00 WtEn= 0.00D+00
 Coeff-Com:  0.273D-03-0.768D-03 0.520D-02 0.179D-04-0.325D-02 0.346D-01
 Coeff-Com:  0.109D+00 0.133D+00 0.296D+00 0.427D+00
 Coeff:      0.273D-03-0.768D-03 0.520D-02 0.179D-04-0.325D-02 0.346D-01
 Coeff:      0.109D+00 0.133D+00 0.296D+00 0.427D+00
 Gap=     0.103 Goal=   None    Shift=    0.000
 RMSDP=3.19D-05 MaxDP=1.62D-03 DE=-6.78D-06 OVMax= 8.31D-04

 Cycle  11  Pass 0  IDiag  1:
 RMSU=  1.69D-05    CP:  1.05D+00  4.99D-01  7.36D-01  1.77D-01  4.84D-01
                    CP:  6.55D-01  8.41D-01  8.17D-01  1.34D+00  1.86D+00
 E= -767.609642707332     Delta-E=        0.000000418957 Rises=F Damp=F
 DIIS: error= 2.12D-05 at cycle  11 NSaved=  11.
 NSaved=11 IEnMin=10 EnMin= -767.609643126288     IErMin=11 ErrMin= 2.12D-05
 ErrMax= 2.12D-05  0.00D+00 EMaxC= 1.00D-01 BMatC= 2.77D-07 BMatP= 2.08D-06
 IDIUse=1 WtCom= 1.00D+00 WtEn= 0.00D+00
 Coeff-Com:  0.232D-03-0.294D-03 0.270D-02 0.632D-05-0.190D-02 0.176D-01
 Coeff-Com:  0.566D-01 0.699D-01 0.173D+00 0.300D+00 0.382D+00
 Coeff:      0.232D-03-0.294D-03 0.270D-02 0.632D-05-0.190D-02 0.176D-01
 Coeff:      0.566D-01 0.699D-01 0.173D+00 0.300D+00 0.382D+00
 Gap=     0.104 Goal=   None    Shift=    0.000
 RMSDP=4.28D-05 MaxDP=3.22D-03 DE= 4.19D-07 OVMax= 2.28D-04

 Cycle  12  Pass 0  IDiag  1:
 RMSU=  1.30D-05    CP:  1.05D+00  4.95D-01  7.29D-01  1.76D-01  4.82D-01
                    CP:  6.75D-01  8.91D-01  8.80D-01  1.51D+00  2.79D+00
                    CP:  1.84D+00
 E= -767.609638465523     Delta-E=        0.000004241808 Rises=F Damp=F
 DIIS: error= 3.05D-05 at cycle  12 NSaved=  12.
 NSaved=12 IEnMin=10 EnMin= -767.609643126288     IErMin=11 ErrMin= 2.12D-05
 ErrMax= 3.05D-05  0.00D+00 EMaxC= 1.00D-01 BMatC= 1.76D-07 BMatP= 2.77D-07
 IDIUse=1 WtCom= 1.00D+00 WtEn= 0.00D+00
 Coeff-Com:  0.260D-03-0.307D-03 0.299D-02 0.741D-05-0.213D-02 0.195D-01
 Coeff-Com:  0.628D-01 0.777D-01 0.194D+00 0.343D+00 0.462D+00-0.160D+00
 Coeff:      0.260D-03-0.307D-03 0.299D-02 0.741D-05-0.213D-02 0.195D-01
 Coeff:      0.628D-01 0.777D-01 0.194D+00 0.343D+00 0.462D+00-0.160D+00
 Gap=     0.104 Goal=   None    Shift=    0.000
 RMSDP=2.67D-05 MaxDP=1.96D-03 DE= 4.24D-06 OVMax= 3.92D-05

 Cycle  13  Pass 0  IDiag  1:
 RMSU=  4.66D-06    CP:  1.05D+00  4.98D-01  7.34D-01  1.77D-01  4.83D-01
                    CP:  6.68D-01  8.60D-01  8.52D-01  1.46D+00  2.42D+00
                    CP:  1.47D+00  2.46D-01
 E= -767.609640301967     Delta-E=       -0.000001836443 Rises=F Damp=F
 DIIS: error= 2.58D-05 at cycle  13 NSaved=  13.
 NSaved=13 IEnMin=10 EnMin= -767.609643126288     IErMin=11 ErrMin= 2.12D-05
 ErrMax= 2.58D-05  0.00D+00 EMaxC= 1.00D-01 BMatC= 1.41D-07 BMatP= 1.76D-07
 IDIUse=1 WtCom= 1.00D+00 WtEn= 0.00D+00
 Coeff-Com:  0.231D-03-0.243D-03 0.231D-02 0.724D-05-0.171D-02 0.149D-01
 Coeff-Com:  0.485D-01 0.603D-01 0.157D+00 0.289D+00 0.477D+00-0.850D+00
 Coeff-Com:  0.802D+00
 Coeff:      0.231D-03-0.243D-03 0.231D-02 0.724D-05-0.171D-02 0.149D-01
 Coeff:      0.485D-01 0.603D-01 0.157D+00 0.289D+00 0.477D+00-0.850D+00
 Coeff:      0.802D+00
 Gap=     0.104 Goal=   None    Shift=    0.000
 RMSDP=6.21D-05 MaxDP=4.86D-03 DE=-1.84D-06 OVMax= 9.45D-05

 Cycle  14  Pass 0  IDiag  1:
 RMSU=  1.69D-05    CP:  1.05D+00  5.05D-01  7.41D-01  1.84D-01  4.89D-01
                    CP:  6.65D-01  7.96D-01  8.71D-01  1.47D+00  2.25D+00
                    CP:  1.53D+00 -1.35D+00  3.00D+00
 E= -767.609639305183     Delta-E=        0.000000996784 Rises=F Damp=F
 DIIS: error= 2.57D-05 at cycle  14 NSaved=  14.
 NSaved=14 IEnMin=10 EnMin= -767.609643126288     IErMin=11 ErrMin= 2.12D-05
 ErrMax= 2.57D-05  0.00D+00 EMaxC= 1.00D-01 BMatC= 9.35D-08 BMatP= 1.41D-07
 IDIUse=1 WtCom= 1.00D+00 WtEn= 0.00D+00
 Coeff-Com:  0.218D-03-0.242D-03 0.223D-02 0.663D-05-0.163D-02 0.144D-01
 Coeff-Com:  0.466D-01 0.579D-01 0.150D+00 0.273D+00 0.441D+00-0.775D+00
 Coeff-Com:  0.667D+00 0.124D+00
 Coeff:      0.218D-03-0.242D-03 0.223D-02 0.663D-05-0.163D-02 0.144D-01
 Coeff:      0.466D-01 0.579D-01 0.150D+00 0.273D+00 0.441D+00-0.775D+00
 Coeff:      0.667D+00 0.124D+00
 Gap=     0.104 Goal=   None    Shift=    0.000
 RMSDP=6.00D-06 MaxDP=3.62D-04 DE= 9.97D-07 OVMax= 2.30D-05

 Initial convergence to 1.0D-05 achieved.  Increase integral accuracy.
 Cycle  15  Pass 1  IDiag  1:
 E= -767.609598522636     Delta-E=        0.000040782547 Rises=F Damp=F
 DIIS: error= 4.22D-04 at cycle   1 NSaved=   1.
 NSaved= 1 IEnMin= 1 EnMin= -767.609598522636     IErMin= 1 ErrMin= 4.22D-04
 ErrMax= 4.22D-04  0.00D+00 EMaxC= 1.00D-01 BMatC= 5.40D-05 BMatP= 5.40D-05
 IDIUse=3 WtCom= 9.96D-01 WtEn= 4.22D-03
 Coeff-Com:  0.100D+01
 Coeff-En:   0.100D+01
 Coeff:      0.100D+01
 Gap=     0.104 Goal=   None    Shift=    0.000
 RMSDP=6.00D-06 MaxDP=3.62D-04 DE= 4.08D-05 OVMax= 1.19D-03

 Cycle  16  Pass 1  IDiag  1:
 RMSU=  2.15D-03    CP:  8.62D-01
 E= -767.609635852614     Delta-E=       -0.000037329978 Rises=F Damp=F
 DIIS: error= 8.05D-06 at cycle   2 NSaved=   2.
 NSaved= 2 IEnMin= 2 EnMin= -767.609635852614     IErMin= 2 ErrMin= 8.05D-06
 ErrMax= 8.05D-06  0.00D+00 EMaxC= 1.00D-01 BMatC= 5.81D-08 BMatP= 5.40D-05
 IDIUse=1 WtCom= 1.00D+00 WtEn= 0.00D+00
 Coeff-Com:  0.135D-02 0.999D+00
 Coeff:      0.135D-02 0.999D+00
 Gap=     0.104 Goal=   None    Shift=    0.000
 RMSDP=2.10D-06 MaxDP=2.60D-04 DE=-3.73D-05 OVMax= 3.09D-04

 Cycle  17  Pass 1  IDiag  1:
 RMSU=  2.06D-06    CP:  8.62D-01  1.00D+00
 E= -767.609635510494     Delta-E=        0.000000342120 Rises=F Damp=F
 DIIS: error= 2.51D-05 at cycle   3 NSaved=   3.
 NSaved= 3 IEnMin= 2 EnMin= -767.609635852614     IErMin= 2 ErrMin= 8.05D-06
 ErrMax= 2.51D-05  0.00D+00 EMaxC= 1.00D-01 BMatC= 5.05D-07 BMatP= 5.81D-08
 IDIUse=1 WtCom= 1.00D+00 WtEn= 0.00D+00
 Coeff-Com: -0.303D-04 0.749D+00 0.251D+00
 Coeff:     -0.303D-04 0.749D+00 0.251D+00
 Gap=     0.104 Goal=   None    Shift=    0.000
 RMSDP=1.33D-06 MaxDP=2.00D-04 DE= 3.42D-07 OVMax= 2.53D-04

 Cycle  18  Pass 1  IDiag  1:
 RMSU=  7.16D-07    CP:  8.62D-01  1.00D+00  4.62D-01
 E= -767.609635893791     Delta-E=       -0.000000383297 Rises=F Damp=F
 DIIS: error= 1.90D-06 at cycle   4 NSaved=   4.
 NSaved= 4 IEnMin= 4 EnMin= -767.609635893791     IErMin= 4 ErrMin= 1.90D-06
 ErrMax= 1.90D-06  0.00D+00 EMaxC= 1.00D-01 BMatC= 4.64D-09 BMatP= 5.81D-08
 IDIUse=1 WtCom= 1.00D+00 WtEn= 0.00D+00
 Coeff-Com: -0.487D-04 0.483D+00 0.169D+00 0.348D+00
 Coeff:     -0.487D-04 0.483D+00 0.169D+00 0.348D+00
 Gap=     0.104 Goal=   None    Shift=    0.000
 RMSDP=2.24D-07 MaxDP=3.93D-05 DE=-3.83D-07 OVMax= 2.01D-05

 Cycle  19  Pass 1  IDiag  1:
 RMSU=  1.95D-07    CP:  8.62D-01  1.00D+00  4.54D-01  8.72D-01
 E= -767.609635897124     Delta-E=       -0.000000003333 Rises=F Damp=F
 DIIS: error= 4.03D-07 at cycle   5 NSaved=   5.
 NSaved= 5 IEnMin= 5 EnMin= -767.609635897124     IErMin= 5 ErrMin= 4.03D-07
 ErrMax= 4.03D-07  0.00D+00 EMaxC= 1.00D-01 BMatC= 1.71D-10 BMatP= 4.64D-09
 IDIUse=1 WtCom= 1.00D+00 WtEn= 0.00D+00
 Coeff-Com: -0.248D-04 0.203D+00 0.720D-01 0.200D+00 0.526D+00
 Coeff:     -0.248D-04 0.203D+00 0.720D-01 0.200D+00 0.526D+00
 Gap=     0.104 Goal=   None    Shift=    0.000
 RMSDP=5.00D-08 MaxDP=5.27D-06 DE=-3.33D-09 OVMax= 6.63D-06

 Cycle  20  Pass 1  IDiag  1:
 RMSU=  3.85D-08    CP:  8.62D-01  1.00D+00  4.56D-01  9.05D-01  9.01D-01
 E= -767.609635897178     Delta-E=       -0.000000000054 Rises=F Damp=F
 DIIS: error= 3.91D-07 at cycle   6 NSaved=   6.
 NSaved= 6 IEnMin= 6 EnMin= -767.609635897178     IErMin= 6 ErrMin= 3.91D-07
 ErrMax= 3.91D-07  0.00D+00 EMaxC= 1.00D-01 BMatC= 5.14D-11 BMatP= 1.71D-10
 IDIUse=1 WtCom= 1.00D+00 WtEn= 0.00D+00
 Coeff-Com: -0.123D-04 0.924D-01 0.332D-01 0.105D+00 0.384D+00 0.385D+00
 Coeff:     -0.123D-04 0.924D-01 0.332D-01 0.105D+00 0.384D+00 0.385D+00
 Gap=     0.104 Goal=   None    Shift=    0.000
 RMSDP=2.00D-08 MaxDP=2.29D-06 DE=-5.39D-11 OVMax= 5.01D-06

 Cycle  21  Pass 1  IDiag  1:
 RMSU=  1.42D-08    CP:  8.62D-01  1.00D+00  4.55D-01  9.03D-01  9.04D-01
                    CP:  6.77D-01
 E= -767.609635897291     Delta-E=       -0.000000000113 Rises=F Damp=F
 DIIS: error= 1.70D-07 at cycle   7 NSaved=   7.
 NSaved= 7 IEnMin= 7 EnMin= -767.609635897291     IErMin= 7 ErrMin= 1.70D-07
 ErrMax= 1.70D-07  0.00D+00 EMaxC= 1.00D-01 BMatC= 8.81D-12 BMatP= 5.14D-11
 IDIUse=1 WtCom= 1.00D+00 WtEn= 0.00D+00
 Coeff-Com: -0.293D-05 0.181D-01 0.662D-02 0.275D-01 0.152D+00 0.304D+00
 Coeff-Com:  0.491D+00
 Coeff:     -0.293D-05 0.181D-01 0.662D-02 0.275D-01 0.152D+00 0.304D+00
 Coeff:      0.491D+00
 Gap=     0.104 Goal=   None    Shift=    0.000
 RMSDP=7.19D-09 MaxDP=4.93D-07 DE=-1.13D-10 OVMax= 1.82D-06

 SCF Done:  E(RB-LYP) =  -767.609635897     A.U. after   21 cycles
            NFock= 21  Conv=0.72D-08     -V/T= 2.0034
 KE= 7.650089809436D+02 PE=-4.049822768094D+03 EE= 1.388024172704D+03
 Leave Link  502 at Sat Mar 16 15:45:00 2019, MaxMem=   104857600 cpu:            3650.1 elap:             229.0
 (Enter /util/academic/gaussian/g16.A03/x86-64-SSE4_2/g16/l601.exe)
 Copying SCF densities to generalized density rwf, IOpCl= 0 IROHF=0.

 **********************************************************************

            Population analysis using the SCF density.

 **********************************************************************

 Alpha  occ. eigenvalues --  -18.81737 -18.80393 -18.75014 -10.03305  -9.97178
 Alpha  occ. eigenvalues --   -9.96788  -9.93542  -9.91888  -9.91455  -9.91360
 Alpha  occ. eigenvalues --   -9.91268  -9.91168  -9.91158  -9.90873  -9.90726
 Alpha  occ. eigenvalues --   -9.90649  -9.90376  -1.00262  -0.98180  -0.91217
 Alpha  occ. eigenvalues --   -0.79348  -0.75388  -0.71841  -0.69914  -0.66811
 Alpha  occ. eigenvalues --   -0.65430  -0.61653  -0.60327  -0.57434  -0.55393
 Alpha  occ. eigenvalues --   -0.53848  -0.52614  -0.48255  -0.46115  -0.45738
 Alpha  occ. eigenvalues --   -0.43063  -0.42284  -0.41967  -0.40752  -0.40152
 Alpha  occ. eigenvalues --   -0.39901  -0.39093  -0.38407  -0.36900  -0.35866
 Alpha  occ. eigenvalues --   -0.35362  -0.35053  -0.34481  -0.33349  -0.32328
 Alpha  occ. eigenvalues --   -0.31735  -0.30831  -0.29608  -0.29324  -0.27449
 Alpha  occ. eigenvalues --   -0.27129  -0.26601  -0.24583  -0.21644  -0.20856
 Alpha  occ. eigenvalues --   -0.17543
 Alpha virt. eigenvalues --   -0.07192  -0.04032  -0.01997  -0.01392  -0.00143
 Alpha virt. eigenvalues --    0.01741   0.03060   0.03900   0.04131   0.05629
 Alpha virt. eigenvalues --    0.05715   0.06017   0.06878   0.07411   0.08535
 Alpha virt. eigenvalues --    0.08600   0.08707   0.09479   0.10679   0.11571
 Alpha virt. eigenvalues --    0.11937   0.12602   0.13477   0.14128   0.15216
 Alpha virt. eigenvalues --    0.15491   0.16072   0.17078   0.17547   0.18118
 Alpha virt. eigenvalues --    0.18802   0.19381   0.19834   0.20210   0.20740
 Alpha virt. eigenvalues --    0.21570   0.22592   0.22636   0.23254   0.23837
 Alpha virt. eigenvalues --    0.24853   0.25152   0.26278   0.26340   0.26969
 Alpha virt. eigenvalues --    0.27684   0.28170   0.28809   0.28944   0.29155
 Alpha virt. eigenvalues --    0.29671   0.30956   0.31327   0.32522   0.33011
 Alpha virt. eigenvalues --    0.33403   0.33683   0.34389   0.34901   0.35522
 Alpha virt. eigenvalues --    0.36025   0.36263   0.36773   0.37487   0.37885
 Alpha virt. eigenvalues --    0.38153   0.38381   0.38941   0.39284   0.39734
 Alpha virt. eigenvalues --    0.40067   0.41161   0.41417   0.42279   0.42583
 Alpha virt. eigenvalues --    0.42832   0.43153   0.43375   0.44530   0.44676
 Alpha virt. eigenvalues --    0.45925   0.46048   0.46901   0.47636   0.47998
 Alpha virt. eigenvalues --    0.48736   0.49304   0.49675   0.51706   0.52127
 Alpha virt. eigenvalues --    0.52723   0.53394   0.53926   0.54694   0.55706
 Alpha virt. eigenvalues --    0.56695   0.56927   0.58468   0.59622   0.60587
 Alpha virt. eigenvalues --    0.60651   0.61373   0.62489   0.62933   0.64254
 Alpha virt. eigenvalues --    0.65411   0.65816   0.66212   0.66621   0.67460
 Alpha virt. eigenvalues --    0.68251   0.68815   0.70826   0.71243   0.71957
 Alpha virt. eigenvalues --    0.72982   0.74165   0.74390   0.75203   0.75905
 Alpha virt. eigenvalues --    0.77142   0.77724   0.78305   0.79115   0.79917
 Alpha virt. eigenvalues --    0.81150   0.81580   0.81894   0.83033   0.84427
 Alpha virt. eigenvalues --    0.84776   0.85142   0.85507   0.86554   0.88721
 Alpha virt. eigenvalues --    0.89326   0.89600   0.90091   0.91878   0.92746
 Alpha virt. eigenvalues --    0.93414   0.94769   0.96139   0.96650   0.96995
 Alpha virt. eigenvalues --    0.99227   1.00783   1.01595   1.01774   1.02877
 Alpha virt. eigenvalues --    1.03035   1.05705   1.06861   1.08241   1.10056
 Alpha virt. eigenvalues --    1.10391   1.12030   1.12646   1.14250   1.15009
 Alpha virt. eigenvalues --    1.15297   1.16495   1.17574   1.19273   1.19637
 Alpha virt. eigenvalues --    1.20798   1.20878   1.22382   1.24128   1.24551
 Alpha virt. eigenvalues --    1.25444   1.25489   1.27556   1.28211   1.30947
 Alpha virt. eigenvalues --    1.31733   1.32238   1.34199   1.35286   1.35839
 Alpha virt. eigenvalues --    1.37699   1.38362   1.39222   1.40304   1.40605
 Alpha virt. eigenvalues --    1.41108   1.41464   1.42673   1.43025   1.43590
 Alpha virt. eigenvalues --    1.44031   1.44843   1.45329   1.45657   1.46784
 Alpha virt. eigenvalues --    1.47693   1.48898   1.49671   1.50949   1.52170
 Alpha virt. eigenvalues --    1.52642   1.53469   1.54109   1.54743   1.55663
 Alpha virt. eigenvalues --    1.56545   1.56802   1.57258   1.59698   1.60413
 Alpha virt. eigenvalues --    1.61284   1.61958   1.62625   1.62801   1.63552
 Alpha virt. eigenvalues --    1.65002   1.66693   1.67596   1.69276   1.71649
 Alpha virt. eigenvalues --    1.72614   1.73572   1.75557   1.76161   1.77742
 Alpha virt. eigenvalues --    1.78816   1.79265   1.80650   1.81767   1.82516
 Alpha virt. eigenvalues --    1.83255   1.84691   1.86281   1.86898   1.88212
 Alpha virt. eigenvalues --    1.88369   1.89103   1.89548   1.91026   1.92143
 Alpha virt. eigenvalues --    1.93726   1.95412   1.96619   1.98749   1.99492
 Alpha virt. eigenvalues --    2.00481   2.01309   2.01534   2.02492   2.05731
 Alpha virt. eigenvalues --    2.06978   2.07741   2.08595   2.09989   2.11052
 Alpha virt. eigenvalues --    2.11103   2.12651   2.13601   2.15508   2.16653
 Alpha virt. eigenvalues --    2.17956   2.18245   2.18849   2.19645   2.21206
 Alpha virt. eigenvalues --    2.22527   2.23369   2.24109   2.24478   2.25610
 Alpha virt. eigenvalues --    2.27024   2.28789   2.29373   2.29922   2.32402
 Alpha virt. eigenvalues --    2.33464   2.35144   2.35553   2.37210   2.38056
 Alpha virt. eigenvalues --    2.40377   2.40641   2.40837   2.42908   2.44568
 Alpha virt. eigenvalues --    2.46146   2.46802   2.47674   2.47840   2.49700
 Alpha virt. eigenvalues --    2.50076   2.50221   2.52548   2.52751   2.55445
 Alpha virt. eigenvalues --    2.55952   2.57664   2.58070   2.59554   2.60544
 Alpha virt. eigenvalues --    2.60710   2.62173   2.63693   2.64724   2.65653
 Alpha virt. eigenvalues --    2.66249   2.67101   2.67642   2.68968   2.69746
 Alpha virt. eigenvalues --    2.69808   2.72004   2.72419   2.73125   2.73454
 Alpha virt. eigenvalues --    2.73872   2.75622   2.76045   2.76506   2.77486
 Alpha virt. eigenvalues --    2.79165   2.79227   2.79464   2.80663   2.80990
 Alpha virt. eigenvalues --    2.82305   2.83434   2.84381   2.84797   2.87073
 Alpha virt. eigenvalues --    2.88030   2.88901   2.89053   2.89955   2.91249
 Alpha virt. eigenvalues --    2.92617   2.93063   2.95032   2.95677   2.96378
 Alpha virt. eigenvalues --    2.97601   2.98112   2.99003   2.99927   3.01487
 Alpha virt. eigenvalues --    3.01738   3.02977   3.05192   3.05869   3.05997
 Alpha virt. eigenvalues --    3.06653   3.07718   3.08099   3.08602   3.09837
 Alpha virt. eigenvalues --    3.10561   3.10664   3.11178   3.11842   3.12853
 Alpha virt. eigenvalues --    3.13739   3.14770   3.15044   3.15943   3.18972
 Alpha virt. eigenvalues --    3.19895   3.20265   3.20799   3.21139   3.21803
 Alpha virt. eigenvalues --    3.22874   3.23625   3.24047   3.24560   3.25392
 Alpha virt. eigenvalues --    3.25640   3.26402   3.27590   3.28431   3.29846
 Alpha virt. eigenvalues --    3.30637   3.31092   3.32747   3.34196   3.35320
 Alpha virt. eigenvalues --    3.35729   3.37251   3.37358   3.37878   3.39309
 Alpha virt. eigenvalues --    3.39826   3.40334   3.41259   3.42197   3.43343
 Alpha virt. eigenvalues --    3.43826   3.43987   3.44927   3.46050   3.47557
 Alpha virt. eigenvalues --    3.48088   3.49083   3.50273   3.51820   3.52572
 Alpha virt. eigenvalues --    3.53001   3.54456   3.55168   3.57002   3.58193
 Alpha virt. eigenvalues --    3.59908   3.61113   3.63494   3.64312   3.66268
 Alpha virt. eigenvalues --    3.66612   3.69179   3.71024   3.72204   3.73833
 Alpha virt. eigenvalues --    3.75003   3.77809   3.79323   3.80741   3.82604
 Alpha virt. eigenvalues --    3.84133   3.86677   3.87921   3.90090   3.91362
 Alpha virt. eigenvalues --    3.91855   3.93577   3.95305   3.96742   3.98019
 Alpha virt. eigenvalues --    4.00072   4.01045   4.02797   4.03918   4.05280
 Alpha virt. eigenvalues --    4.06994   4.07476   4.08346   4.09808   4.10211
 Alpha virt. eigenvalues --    4.11489   4.12686   4.12935   4.15845   4.17036
 Alpha virt. eigenvalues --    4.18761   4.20275   4.21766   4.22822   4.23562
 Alpha virt. eigenvalues --    4.25528   4.26428   4.26498   4.30422   4.33955
 Alpha virt. eigenvalues --    4.36814   4.39587   4.41469   4.42965   4.45234
 Alpha virt. eigenvalues --    4.45843   4.47946   4.49096   4.52493   4.52978
 Alpha virt. eigenvalues --    4.55575   4.56178   4.60780   4.68484   4.70333
 Alpha virt. eigenvalues --    4.71848   4.72214   4.73907   4.76692   4.78708
 Alpha virt. eigenvalues --    4.83186   4.85540   4.89402   4.95282   4.97441
 Alpha virt. eigenvalues --    5.02618   5.04517   5.05673   5.08709   5.09629
 Alpha virt. eigenvalues --    5.14288   5.15228   5.16491   5.21404   5.22349
 Alpha virt. eigenvalues --    5.28162   5.30174   5.32297   5.36373   5.37656
 Alpha virt. eigenvalues --    5.43543   5.51211   5.54201   5.56242   5.56819
 Alpha virt. eigenvalues --    5.60275   5.64848   5.77298   5.84588   5.88730
 Alpha virt. eigenvalues --    5.89191   5.95755   6.04434   6.12977   6.21032
 Alpha virt. eigenvalues --    6.21854   6.29062   6.32818   6.35733   6.48355
 Alpha virt. eigenvalues --    6.49717   6.50618   6.60093   6.65013   6.70051
 Alpha virt. eigenvalues --    6.71920   6.76599   6.83771   6.93928   6.98754
 Alpha virt. eigenvalues --    7.05491   7.16915   7.28940  21.76244  22.02524
 Alpha virt. eigenvalues --   22.08074  22.28058  22.35958  22.40901  22.44771
 Alpha virt. eigenvalues --   22.49641  22.58197  22.67091  22.73394  22.81549
 Alpha virt. eigenvalues --   22.95008  23.38933  43.40894  43.44891  43.84235
          Condensed to atoms (all electrons):
               1          2          3          4          5          6
     1  O    7.858630   0.445831  -0.077990   0.004487  -0.000211  -0.000006
     2  C    0.445831   5.182618   0.318544   0.112793   0.017236  -0.001281
     3  C   -0.077990   0.318544   5.259402   0.326872  -0.102310   0.003839
     4  C    0.004487   0.112793   0.326872   5.131666   0.339827   0.070863
     5  C   -0.000211   0.017236  -0.102310   0.339827   5.164540   0.377363
     6  C   -0.000006  -0.001281   0.003839   0.070863   0.377363   5.240253
     7  C   -0.000002  -0.000620   0.002930  -0.142647   0.083886   0.211739
     8  C    0.000045   0.006420   0.004357   0.039166  -0.118584  -0.012797
     9  C   -0.003645  -0.198025   0.036993   0.204385   0.012703  -0.094156
    10  C   -0.126296  -0.187798   0.146981  -0.177646  -0.009208  -0.000068
    11  C    0.000000  -0.000008   0.000070   0.000167   0.015790  -0.044796
    12  C   -0.000000   0.000001  -0.000011   0.001385  -0.002342   0.007262
    13  O   -0.000000   0.000001  -0.000000   0.000748  -0.000055  -0.002888
    14  O    0.000000   0.000000  -0.000000   0.000015  -0.000182   0.000007
    15  C   -0.000000   0.000002  -0.000046  -0.001025   0.000412  -0.009773
    16  H    0.000000   0.000001   0.000006   0.000758   0.000506   0.004994
    17  H   -0.000000   0.000001  -0.000009  -0.000066  -0.000530   0.007984
    18  H    0.000000   0.000002  -0.000002   0.000245  -0.000262   0.002998
    19  H   -0.000000  -0.000000   0.000001   0.000024  -0.000002  -0.001340
    20  H    0.000000   0.000000  -0.000000  -0.000050   0.000018   0.000036
    21  H   -0.000024   0.000704  -0.004800  -0.082154   0.451451  -0.070638
    22  H   -0.000000   0.000056  -0.000899   0.017104  -0.067728   0.440786
    23  H   -0.000001  -0.000201   0.000011   0.014005  -0.005501   0.018337
    24  C    0.020282   0.310800  -0.157048   0.066791   0.022217   0.002648
    25  H   -0.013200  -0.086494   0.009666  -0.002579  -0.000132   0.000004
    26  H   -0.000083   0.007817  -0.000797   0.011661  -0.000499   0.000210
    27  H    0.011511  -0.104759   0.470999  -0.104865  -0.011080   0.000713
    28  C    0.262566  -0.090004   0.004593  -0.001245   0.000053  -0.000003
    29  H   -0.052995  -0.018024   0.001565  -0.000351  -0.000011   0.000000
    30  H   -0.053006  -0.018066   0.001608  -0.000427  -0.000014  -0.000000
    31  H   -0.035401   0.006136  -0.000512   0.000182   0.000003   0.000000
               7          8          9         10         11         12
     1  O   -0.000002   0.000045  -0.003645  -0.126296   0.000000  -0.000000
     2  C   -0.000620   0.006420  -0.198025  -0.187798  -0.000008   0.000001
     3  C    0.002930   0.004357   0.036993   0.146981   0.000070  -0.000011
     4  C   -0.142647   0.039166   0.204385  -0.177646   0.000167   0.001385
     5  C    0.083886  -0.118584   0.012703  -0.009208   0.015790  -0.002342
     6  C    0.211739  -0.012797  -0.094156  -0.000068  -0.044796   0.007262
     7  C    5.370843   0.183393   0.177573  -0.000518   0.187311   0.007556
     8  C    0.183393   5.928591  -0.032806  -0.002253  -0.072204  -0.023406
     9  C    0.177573  -0.032806   5.413073   0.203341  -0.012635   0.008166
    10  C   -0.000518  -0.002253   0.203341   5.878849   0.000023   0.000007
    11  C    0.187311  -0.072204  -0.012635   0.000023   5.442446   0.209902
    12  C    0.007556  -0.023406   0.008166   0.000007   0.209902   4.525385
    13  O   -0.032159   0.025339  -0.012460  -0.000003  -0.124099   0.391826
    14  O    0.005677  -0.000408   0.000649  -0.000000  -0.138945   0.714966
    15  C   -0.033576  -0.017471   0.013624   0.000001   0.184621  -0.007959
    16  H   -0.045284   0.016984  -0.002786  -0.000001   0.389343  -0.047034
    17  H   -0.007115  -0.003307  -0.000534  -0.000003  -0.027870   0.006726
    18  H   -0.014203   0.004210  -0.002089  -0.000014  -0.022991  -0.011753
    19  H    0.016691   0.001460  -0.000270   0.000000  -0.056512   0.001243
    20  H    0.001215  -0.001547  -0.000359  -0.000002   0.020935  -0.015747
    21  H    0.017283  -0.004019   0.015590  -0.000319  -0.000626  -0.000033
    22  H   -0.082796   0.022751  -0.005324  -0.000006  -0.010026  -0.000606
    23  H   -0.075593   0.450089  -0.088472   0.000968   0.000564   0.000521
    24  C    0.010861  -0.104795   0.203553  -0.008652  -0.001847  -0.000449
    25  H    0.000080  -0.001242   0.017503   0.459626  -0.000000   0.000000
    26  H    0.001305  -0.006200  -0.064731  -0.051932  -0.000130   0.000007
    27  H   -0.000066  -0.000366   0.023888   0.039068  -0.000003  -0.000001
    28  C    0.000001  -0.000059   0.001634   0.011006  -0.000000   0.000000
    29  H    0.000000  -0.000011   0.000393   0.017069  -0.000000   0.000000
    30  H    0.000000   0.000001   0.000511   0.017415   0.000000  -0.000000
    31  H   -0.000000   0.000001  -0.000114  -0.004778  -0.000000  -0.000000
              13         14         15         16         17         18
     1  O   -0.000000   0.000000  -0.000000   0.000000  -0.000000   0.000000
     2  C    0.000001   0.000000   0.000002   0.000001   0.000001   0.000002
     3  C   -0.000000  -0.000000  -0.000046   0.000006  -0.000009  -0.000002
     4  C    0.000748   0.000015  -0.001025   0.000758  -0.000066   0.000245
     5  C   -0.000055  -0.000182   0.000412   0.000506  -0.000530  -0.000262
     6  C   -0.002888   0.000007  -0.009773   0.004994   0.007984   0.002998
     7  C   -0.032159   0.005677  -0.033576  -0.045284  -0.007115  -0.014203
     8  C    0.025339  -0.000408  -0.017471   0.016984  -0.003307   0.004210
     9  C   -0.012460   0.000649   0.013624  -0.002786  -0.000534  -0.002089
    10  C   -0.000003  -0.000000   0.000001  -0.000001  -0.000003  -0.000014
    11  C   -0.124099  -0.138945   0.184621   0.389343  -0.027870  -0.022991
    12  C    0.391826   0.714966  -0.007959  -0.047034   0.006726  -0.011753
    13  O    7.940608  -0.123833   0.014633   0.005143  -0.000092   0.003694
    14  O   -0.123833   7.795433   0.005207   0.013593  -0.000880  -0.000013
    15  C    0.014633   0.005207   5.082591  -0.040661   0.386548   0.389125
    16  H    0.005143   0.013593  -0.040661   0.637707  -0.007895   0.007559
    17  H   -0.000092  -0.000880   0.386548  -0.007895   0.585688  -0.021223
    18  H    0.003694  -0.000013   0.389125   0.007559  -0.021223   0.575091
    19  H   -0.000879   0.002348   0.392346  -0.004690  -0.026483  -0.025491
    20  H    0.262330   0.008079  -0.001846  -0.000700   0.000119  -0.000241
    21  H    0.000001  -0.000002   0.000036  -0.000101   0.000005  -0.000001
    22  H   -0.000053  -0.000460  -0.000630   0.009226   0.000486   0.000091
    23  H    0.022710   0.000563  -0.004243   0.000192   0.000107   0.005831
    24  C   -0.000614  -0.000004   0.000154   0.000035   0.000035  -0.000037
    25  H   -0.000000   0.000000   0.000000   0.000000  -0.000000  -0.000000
    26  H   -0.000128   0.000000   0.000020  -0.000002   0.000003   0.000006
    27  H   -0.000000   0.000000  -0.000000  -0.000000   0.000000   0.000000
    28  C   -0.000000   0.000000   0.000000   0.000000  -0.000000  -0.000000
    29  H   -0.000000  -0.000000   0.000000  -0.000000  -0.000000  -0.000000
    30  H    0.000000  -0.000000  -0.000000  -0.000000   0.000000  -0.000000
    31  H    0.000000   0.000000  -0.000000   0.000000   0.000000   0.000000
              19         20         21         22         23         24
     1  O   -0.000000   0.000000  -0.000024  -0.000000  -0.000001   0.020282
     2  C   -0.000000   0.000000   0.000704   0.000056  -0.000201   0.310800
     3  C    0.000001  -0.000000  -0.004800  -0.000899   0.000011  -0.157048
     4  C    0.000024  -0.000050  -0.082154   0.017104   0.014005   0.066791
     5  C   -0.000002   0.000018   0.451451  -0.067728  -0.005501   0.022217
     6  C   -0.001340   0.000036  -0.070638   0.440786   0.018337   0.002648
     7  C    0.016691   0.001215   0.017283  -0.082796  -0.075593   0.010861
     8  C    0.001460  -0.001547  -0.004019   0.022751   0.450089  -0.104795
     9  C   -0.000270  -0.000359   0.015590  -0.005324  -0.088472   0.203553
    10  C    0.000000  -0.000002  -0.000319  -0.000006   0.000968  -0.008652
    11  C   -0.056512   0.020935  -0.000626  -0.010026   0.000564  -0.001847
    12  C    0.001243  -0.015747  -0.000033  -0.000606   0.000521  -0.000449
    13  O   -0.000879   0.262330   0.000001  -0.000053   0.022710  -0.000614
    14  O    0.002348   0.008079  -0.000002  -0.000460   0.000563  -0.000004
    15  C    0.392346  -0.001846   0.000036  -0.000630  -0.004243   0.000154
    16  H   -0.004690  -0.000700  -0.000101   0.009226   0.000192   0.000035
    17  H   -0.026483   0.000119   0.000005   0.000486   0.000107   0.000035
    18  H   -0.025491  -0.000241  -0.000001   0.000091   0.005831  -0.000037
    19  H    0.590831  -0.000173  -0.000001  -0.000120  -0.000188  -0.000008
    20  H   -0.000173   0.417989   0.000000   0.000003  -0.000924   0.000047
    21  H   -0.000001   0.000000   0.598257  -0.009478   0.000060   0.000021
    22  H   -0.000120   0.000003  -0.009478   0.600570  -0.000107   0.000075
    23  H   -0.000188  -0.000924   0.000060  -0.000107   0.567762  -0.003970
    24  C   -0.000008   0.000047   0.000021   0.000075  -0.003970   5.496720
    25  H   -0.000000  -0.000000  -0.000007   0.000000  -0.000058  -0.065864
    26  H   -0.000001   0.000006   0.000035  -0.000006   0.007413   0.429907
    27  H   -0.000000   0.000000   0.006482  -0.000073   0.000037  -0.013800
    28  C   -0.000000  -0.000000   0.000001   0.000000   0.000001  -0.006275
    29  H   -0.000000  -0.000000  -0.000000   0.000000   0.000000  -0.002783
    30  H    0.000000   0.000000  -0.000000   0.000000   0.000000  -0.002911
    31  H   -0.000000  -0.000000   0.000000  -0.000000  -0.000000   0.000663
              25         26         27         28         29         30
     1  O   -0.013200  -0.000083   0.011511   0.262566  -0.052995  -0.053006
     2  C   -0.086494   0.007817  -0.104759  -0.090004  -0.018024  -0.018066
     3  C    0.009666  -0.000797   0.470999   0.004593   0.001565   0.001608
     4  C   -0.002579   0.011661  -0.104865  -0.001245  -0.000351  -0.000427
     5  C   -0.000132  -0.000499  -0.011080   0.000053  -0.000011  -0.000014
     6  C    0.000004   0.000210   0.000713  -0.000003   0.000000  -0.000000
     7  C    0.000080   0.001305  -0.000066   0.000001   0.000000   0.000000
     8  C   -0.001242  -0.006200  -0.000366  -0.000059  -0.000011   0.000001
     9  C    0.017503  -0.064731   0.023888   0.001634   0.000393   0.000511
    10  C    0.459626  -0.051932   0.039068   0.011006   0.017069   0.017415
    11  C   -0.000000  -0.000130  -0.000003  -0.000000  -0.000000   0.000000
    12  C    0.000000   0.000007  -0.000001   0.000000   0.000000  -0.000000
    13  O   -0.000000  -0.000128  -0.000000  -0.000000  -0.000000   0.000000
    14  O    0.000000   0.000000   0.000000   0.000000  -0.000000  -0.000000
    15  C    0.000000   0.000020  -0.000000   0.000000   0.000000  -0.000000
    16  H    0.000000  -0.000002  -0.000000   0.000000  -0.000000  -0.000000
    17  H   -0.000000   0.000003   0.000000  -0.000000  -0.000000   0.000000
    18  H   -0.000000   0.000006   0.000000  -0.000000  -0.000000  -0.000000
    19  H   -0.000000  -0.000001  -0.000000  -0.000000  -0.000000   0.000000
    20  H   -0.000000   0.000006   0.000000  -0.000000  -0.000000   0.000000
    21  H   -0.000007   0.000035   0.006482   0.000001  -0.000000  -0.000000
    22  H    0.000000  -0.000006  -0.000073   0.000000   0.000000   0.000000
    23  H   -0.000058   0.007413   0.000037   0.000001   0.000000   0.000000
    24  C   -0.065864   0.429907  -0.013800  -0.006275  -0.002783  -0.002911
    25  H    0.573088  -0.007384   0.000111   0.010735   0.004389   0.004269
    26  H   -0.007384   0.586841   0.000082  -0.000167  -0.000027  -0.000034
    27  H    0.000111   0.000082   0.607836  -0.000626   0.000272   0.000270
    28  C    0.010735  -0.000167  -0.000626   4.780763   0.399489   0.399092
    29  H    0.004389  -0.000027   0.000272   0.399489   0.640951  -0.063757
    30  H    0.004269  -0.000034   0.000270   0.399092  -0.063757   0.641524
    31  H   -0.000972   0.000002  -0.000441   0.397810  -0.029886  -0.029943
              31
     1  O   -0.035401
     2  C    0.006136
     3  C   -0.000512
     4  C    0.000182
     5  C    0.000003
     6  C    0.000000
     7  C   -0.000000
     8  C    0.000001
     9  C   -0.000114
    10  C   -0.004778
    11  C   -0.000000
    12  C   -0.000000
    13  O    0.000000
    14  O    0.000000
    15  C   -0.000000
    16  H    0.000000
    17  H    0.000000
    18  H    0.000000
    19  H   -0.000000
    20  H   -0.000000
    21  H    0.000000
    22  H   -0.000000
    23  H   -0.000000
    24  C    0.000663
    25  H   -0.000972
    26  H    0.000002
    27  H   -0.000441
    28  C    0.397810
    29  H   -0.029886
    30  H   -0.029943
    31  H    0.571027
 Mulliken charges:
               1
     1  O   -0.240489
     2  C    0.296318
     3  C   -0.244009
     4  C    0.169910
     5  C   -0.167355
     6  C   -0.152289
     7  C    0.156236
     8  C   -0.281331
     9  C    0.184827
    10  C   -0.204857
    11  C    0.061520
    12  C    0.234387
    13  O   -0.369773
    14  O   -0.281811
    15  C   -0.352091
    16  H    0.063105
    17  H    0.108303
    18  H    0.109466
    19  H    0.111214
    20  H    0.310813
    21  H    0.082277
    22  H    0.087164
    23  H    0.090089
    24  C   -0.195750
    25  H    0.098462
    26  H    0.086806
    27  H    0.074811
    28  C   -0.169364
    29  H    0.103718
    30  H    0.103467
    31  H    0.126224
 Sum of Mulliken charges =  -0.00000
 Mulliken charges with hydrogens summed into heavy atoms:
               1
     1  O   -0.240489
     2  C    0.296318
     3  C   -0.169197
     4  C    0.169910
     5  C   -0.085078
     6  C   -0.065125
     7  C    0.156236
     8  C   -0.191242
     9  C    0.184827
    10  C   -0.106395
    11  C    0.124625
    12  C    0.234387
    13  O   -0.058960
    14  O   -0.281811
    15  C   -0.023108
    24  C   -0.108944
    28  C    0.164045
 Electronic spatial extent (au):  <R**2>=           8630.2903
 Charge=             -0.0000 electrons
 Dipole moment (field-independent basis, Debye):
    X=             -1.7315    Y=             -2.7433    Z=             -1.2263  Tot=              3.4681
 Quadrupole moment (field-independent basis, Debye-Ang):
   XX=           -105.2759   YY=            -91.9155   ZZ=           -103.7081
   XY=             -9.2679   XZ=             -7.7856   YZ=             -4.4545
 Traceless Quadrupole moment (field-independent basis, Debye-Ang):
   XX=             -4.9760   YY=              8.3843   ZZ=             -3.4083
   XY=             -9.2679   XZ=             -7.7856   YZ=             -4.4545
 Octapole moment (field-independent basis, Debye-Ang**2):
  XXX=           -871.6681  YYY=            -54.5601  ZZZ=            152.6463  XYY=           -261.7339
  XXY=           -127.5475  XXZ=            -10.9900  XZZ=           -265.0212  YZZ=            -26.5940
  YYZ=             39.9090  XYZ=            -42.5895
 Hexadecapole moment (field-independent basis, Debye-Ang**3):
 XXXX=         -10301.9256 YYYY=          -1206.1218 ZZZZ=           -595.0485 XXXY=          -1530.6320
 XXXZ=           -137.5451 YYYX=           -800.5222 YYYZ=             -1.0352 ZZZX=            265.6015
[...]
 Alpha virt. eigenvalues --    3.89235   3.91857   3.92447   3.95724   3.97455
 Alpha virt. eigenvalues --    3.97880   4.00571   4.03230   4.03819   4.05426
 Alpha virt. eigenvalues --    4.06359   4.07257   4.08545   4.08943   4.09161
 Alpha virt. eigenvalues --    4.09930   4.11993   4.12405   4.13957   4.15525
 Alpha virt. eigenvalues --    4.15807   4.19109   4.19689   4.20634   4.22591
 Alpha virt. eigenvalues --    4.24804   4.26048   4.27093   4.28048   4.32315
 Alpha virt. eigenvalues --    4.35143   4.37953   4.40735   4.41444   4.42294
 Alpha virt. eigenvalues --    4.45801   4.46599   4.46991   4.49741   4.51580
 Alpha virt. eigenvalues --    4.53588   4.56333   4.58821   4.66206   4.66764
 Alpha virt. eigenvalues --    4.68322   4.69534   4.72095   4.73638   4.76570
 Alpha virt. eigenvalues --    4.81295   4.83496   4.87879   4.94595   4.95852
 Alpha virt. eigenvalues --    5.03153   5.04307   5.05312   5.08072   5.09872
 Alpha virt. eigenvalues --    5.09936   5.11844   5.20304   5.21533   5.24258
 Alpha virt. eigenvalues --    5.26626   5.27328   5.29308   5.33208   5.38452
 Alpha virt. eigenvalues --    5.39347   5.46191   5.51271   5.54580   5.59630
 Alpha virt. eigenvalues --    5.60137   5.61177   5.73576   5.75272   5.75418
 Alpha virt. eigenvalues --    5.81194   5.88715   6.04967   6.09564   6.20060
 Alpha virt. eigenvalues --    6.22395   6.23015   6.33451   6.35734   6.36362
 Alpha virt. eigenvalues --    6.49261   6.51952   6.57465   6.63585   6.64743
 Alpha virt. eigenvalues --    6.70135   6.71444   6.78094   6.94667   6.97679
 Alpha virt. eigenvalues --    7.02527   7.16797   7.28496  21.77812  22.00253
 Alpha virt. eigenvalues --   22.06287  22.23199  22.34854  22.37431  22.41259
 Alpha virt. eigenvalues --   22.45801  22.52221  22.60357  22.71970  22.77368
 Alpha virt. eigenvalues --   22.86765  23.28745  43.35848  43.44990  43.76716
          Condensed to atoms (all electrons):
               1          2          3          4          5          6
     1  O    7.855687   0.430831  -0.077646   0.003808  -0.000157  -0.000008
     2  C    0.430831   5.134341   0.329201   0.100622   0.016134  -0.001072
     3  C   -0.077646   0.329201   5.252930   0.326949  -0.096966   0.003762
     4  C    0.003808   0.100622   0.326949   5.090563   0.358115   0.038792
     5  C   -0.000157   0.016134  -0.096966   0.358115   5.132392   0.429079
     6  C   -0.000008  -0.001072   0.003762   0.038792   0.429079   5.130407
     7  C   -0.000002   0.000057  -0.001217  -0.125501   0.065904   0.294005
     8  C    0.000023   0.001682   0.019699   0.065233  -0.142656   0.003725
     9  C   -0.003033  -0.173221   0.025990   0.228545   0.020336  -0.090584
    10  C   -0.111451  -0.127294   0.151620  -0.170990  -0.007848   0.000154
    11  C    0.000000  -0.000023  -0.000015  -0.003642   0.018719  -0.064609
    12  C   -0.000000   0.000001  -0.000012   0.000727  -0.001067   0.006398
    13  O   -0.000000  -0.000000   0.000006   0.000602  -0.000244  -0.000459
    14  O    0.000000   0.000000  -0.000002  -0.000053  -0.000027   0.003961
    15  C   -0.000000   0.000004  -0.000042  -0.000707   0.000292  -0.004430
    16  H    0.000000   0.000001   0.000009   0.001282  -0.000494   0.006486
    17  H   -0.000000   0.000000  -0.000006  -0.000084  -0.000340   0.004695
    18  H    0.000000   0.000001  -0.000002   0.000152  -0.000146   0.001723
    19  H   -0.000000  -0.000000   0.000001   0.000014  -0.000005  -0.000691
    20  H    0.000000  -0.000000   0.000000  -0.000029   0.000020  -0.000087
    21  H   -0.000018   0.000317  -0.002814  -0.077649   0.442496  -0.066333
    22  H   -0.000000   0.000036  -0.000715   0.015734  -0.067436   0.434162
    23  H   -0.000001  -0.000266   0.000284   0.012647  -0.004688   0.015272
    24  C    0.017818   0.277854  -0.159486   0.061066   0.020543   0.002754
    25  H   -0.011148  -0.087620   0.008154  -0.002138  -0.000093   0.000001
    26  H   -0.000106   0.006949  -0.000302   0.010063  -0.000507   0.000144
    27  H    0.011176  -0.100938   0.467497  -0.100210  -0.009721   0.000472
    28  C    0.257589  -0.091294   0.003908  -0.001377   0.000050  -0.000003
    29  H   -0.044642  -0.017175   0.001338  -0.000283  -0.000006  -0.000000
    30  H   -0.044641  -0.017675   0.001482  -0.000411  -0.000012  -0.000000
    31  H   -0.031725   0.006859  -0.000491   0.000148   0.000001   0.000000
               7          8          9         10         11         12
     1  O   -0.000002   0.000023  -0.003033  -0.111451   0.000000  -0.000000
     2  C    0.000057   0.001682  -0.173221  -0.127294  -0.000023   0.000001
     3  C   -0.001217   0.019699   0.025990   0.151620  -0.000015  -0.000012
     4  C   -0.125501   0.065233   0.228545  -0.170990  -0.003642   0.000727
     5  C    0.065904  -0.142656   0.020336  -0.007848   0.018719  -0.001067
     6  C    0.294005   0.003725  -0.090584   0.000154  -0.064609   0.006398
     7  C    5.250216   0.103032   0.212129  -0.001006   0.308054  -0.002490
     8  C    0.103032   6.069543  -0.112063   0.004659  -0.121782  -0.017221
     9  C    0.212129  -0.112063   5.398665   0.168200   0.018648   0.002796
    10  C   -0.001006   0.004659   0.168200   5.776450   0.000053  -0.000006
    11  C    0.308054  -0.121782   0.018648   0.000053   5.296100   0.255335
    12  C   -0.002490  -0.017221   0.002796  -0.000006   0.255335   4.553865
    13  O   -0.040036   0.031257  -0.009760   0.000001  -0.130008   0.365357
    14  O   -0.006238  -0.003562   0.000798  -0.000000  -0.110900   0.704663
    15  C   -0.044120  -0.013259   0.008335  -0.000008   0.222045  -0.015992
    16  H   -0.047918   0.020912  -0.003572  -0.000001   0.370655  -0.046617
    17  H   -0.004011  -0.003492   0.000099  -0.000001  -0.030242   0.007644
    18  H   -0.011161   0.004597  -0.000808  -0.000009  -0.022435  -0.012110
    19  H    0.014587   0.000644  -0.000153   0.000000  -0.051527   0.000516
    20  H    0.001197  -0.001130  -0.000148  -0.000000   0.022233  -0.019238
    21  H    0.015190  -0.003396   0.013714  -0.000247  -0.000677  -0.000019
    22  H   -0.072699   0.023084  -0.005003   0.000004  -0.013548  -0.000867
    23  H   -0.075143   0.462676  -0.095129   0.000839  -0.007294  -0.000775
    24  C    0.012778  -0.104454   0.240462   0.050027  -0.001349  -0.000326
    25  H    0.000074  -0.000954   0.015908   0.455091   0.000001   0.000000
    26  H    0.001577  -0.005396  -0.061710  -0.049255  -0.000089  -0.000002
    27  H   -0.000046  -0.000202   0.021278   0.035399  -0.000004  -0.000000
    28  C    0.000001  -0.000047   0.001627   0.002914  -0.000000   0.000000
    29  H    0.000000  -0.000010   0.000296   0.013953   0.000000   0.000000
    30  H    0.000000   0.000003   0.000449   0.014606   0.000000   0.000000
    31  H    0.000000   0.000000  -0.000081  -0.002822  -0.000000  -0.000000
              13         14         15         16         17         18
     1  O   -0.000000   0.000000  -0.000000   0.000000  -0.000000   0.000000
     2  C   -0.000000   0.000000   0.000004   0.000001   0.000000   0.000001
     3  C    0.000006  -0.000002  -0.000042   0.000009  -0.000006  -0.000002
     4  C    0.000602  -0.000053  -0.000707   0.001282  -0.000084   0.000152
     5  C   -0.000244  -0.000027   0.000292  -0.000494  -0.000340  -0.000146
     6  C   -0.000459   0.003961  -0.004430   0.006486   0.004695   0.001723
     7  C   -0.040036  -0.006238  -0.044120  -0.047918  -0.004011  -0.011161
     8  C    0.031257  -0.003562  -0.013259   0.020912  -0.003492   0.004597
     9  C   -0.009760   0.000798   0.008335  -0.003572   0.000099  -0.000808
    10  C    0.000001  -0.000000  -0.000008  -0.000001  -0.000001  -0.000009
    11  C   -0.130008  -0.110900   0.222045   0.370655  -0.030242  -0.022435
    12  C    0.365357   0.704663  -0.015992  -0.046617   0.007644  -0.012110
    13  O    7.948891  -0.105677   0.012958   0.005989   0.000176   0.004131
    14  O   -0.105677   7.752830   0.007156   0.014368  -0.000579   0.000039
    15  C    0.012958   0.007156   5.025179  -0.033308   0.388659   0.393008
    16  H    0.005989   0.014368  -0.033308   0.650337  -0.008887   0.006674
    17  H    0.000176  -0.000579   0.388659  -0.008887   0.586970  -0.023004
    18  H    0.004131   0.000039   0.393008   0.006674  -0.023004   0.566768
    19  H   -0.000355   0.000411   0.397107  -0.004632  -0.026732  -0.025193
    20  H    0.258519   0.010543  -0.002645  -0.001209   0.000133  -0.000225
    21  H    0.000000  -0.000004   0.000030  -0.000156   0.000004  -0.000001
    22  H    0.000019  -0.000300  -0.000422   0.010511   0.000195   0.000061
    23  H    0.017460   0.000221  -0.003642   0.000472   0.000202   0.005021
    24  C   -0.000282  -0.000001   0.000104   0.000017   0.000000  -0.000018
    25  H   -0.000000   0.000000  -0.000000   0.000000   0.000000   0.000000
    26  H   -0.000089   0.000000   0.000024  -0.000003   0.000002   0.000013
    27  H   -0.000000   0.000000  -0.000000  -0.000000   0.000000   0.000000
    28  C   -0.000000   0.000000   0.000000   0.000000  -0.000000  -0.000000
    29  H   -0.000000  -0.000000   0.000000   0.000000  -0.000000   0.000000
    30  H    0.000000   0.000000  -0.000000  -0.000000   0.000000  -0.000000
    31  H   -0.000000   0.000000  -0.000000   0.000000  -0.000000   0.000000
              19         20         21         22         23         24
     1  O   -0.000000   0.000000  -0.000018  -0.000000  -0.000001   0.017818
     2  C   -0.000000  -0.000000   0.000317   0.000036  -0.000266   0.277854
     3  C    0.000001   0.000000  -0.002814  -0.000715   0.000284  -0.159486
     4  C    0.000014  -0.000029  -0.077649   0.015734   0.012647   0.061066
     5  C   -0.000005   0.000020   0.442496  -0.067436  -0.004688   0.020543
     6  C   -0.000691  -0.000087  -0.066333   0.434162   0.015272   0.002754
     7  C    0.014587   0.001197   0.015190  -0.072699  -0.075143   0.012778
     8  C    0.000644  -0.001130  -0.003396   0.023084   0.462676  -0.104454
     9  C   -0.000153  -0.000148   0.013714  -0.005003  -0.095129   0.240462
    10  C    0.000000  -0.000000  -0.000247   0.000004   0.000839   0.050027
    11  C   -0.051527   0.022233  -0.000677  -0.013548  -0.007294  -0.001349
    12  C    0.000516  -0.019238  -0.000019  -0.000867  -0.000775  -0.000326
    13  O   -0.000355   0.258519   0.000000   0.000019   0.017460  -0.000282
    14  O    0.000411   0.010543  -0.000004  -0.000300   0.000221  -0.000001
    15  C    0.397107  -0.002645   0.000030  -0.000422  -0.003642   0.000104
    16  H   -0.004632  -0.001209  -0.000156   0.010511   0.000472   0.000017
    17  H   -0.026732   0.000133   0.000004   0.000195   0.000202   0.000000
    18  H   -0.025193  -0.000225  -0.000001   0.000061   0.005021  -0.000018
    19  H    0.587668  -0.000125  -0.000001  -0.000073  -0.000180  -0.000004
    20  H   -0.000125   0.432563   0.000000   0.000000  -0.000435   0.000032
    21  H   -0.000001   0.000000   0.599798  -0.010277   0.000093  -0.000131
    22  H   -0.000073   0.000000  -0.010277   0.600089  -0.000203   0.000064
    23  H   -0.000180  -0.000435   0.000093  -0.000203   0.576088  -0.002670
    24  C   -0.000004   0.000032  -0.000131   0.000064  -0.002670   5.441319
    25  H   -0.000000  -0.000000  -0.000007   0.000000  -0.000049  -0.057879
    26  H   -0.000001   0.000003   0.000037  -0.000007   0.007423   0.420985
    27  H    0.000000   0.000000   0.006503  -0.000064   0.000034  -0.012473
    28  C   -0.000000   0.000000   0.000000   0.000000   0.000001  -0.005909
    29  H   -0.000000  -0.000000  -0.000000   0.000000   0.000000  -0.002461
    30  H    0.000000   0.000000  -0.000000   0.000000   0.000000  -0.002719
    31  H   -0.000000  -0.000000  -0.000000  -0.000000  -0.000000   0.000522
              25         26         27         28         29         30
     1  O   -0.011148  -0.000106   0.011176   0.257589  -0.044642  -0.044641
     2  C   -0.087620   0.006949  -0.100938  -0.091294  -0.017175  -0.017675
     3  C    0.008154  -0.000302   0.467497   0.003908   0.001338   0.001482
     4  C   -0.002138   0.010063  -0.100210  -0.001377  -0.000283  -0.000411
     5  C   -0.000093  -0.000507  -0.009721   0.000050  -0.000006  -0.000012
     6  C    0.000001   0.000144   0.000472  -0.000003  -0.000000  -0.000000
     7  C    0.000074   0.001577  -0.000046   0.000001   0.000000   0.000000
     8  C   -0.000954  -0.005396  -0.000202  -0.000047  -0.000010   0.000003
     9  C    0.015908  -0.061710   0.021278   0.001627   0.000296   0.000449
    10  C    0.455091  -0.049255   0.035399   0.002914   0.013953   0.014606
    11  C    0.000001  -0.000089  -0.000004  -0.000000   0.000000   0.000000
    12  C    0.000000  -0.000002  -0.000000   0.000000   0.000000   0.000000
    13  O   -0.000000  -0.000089  -0.000000  -0.000000  -0.000000   0.000000
    14  O    0.000000   0.000000   0.000000   0.000000  -0.000000   0.000000
    15  C   -0.000000   0.000024  -0.000000   0.000000   0.000000  -0.000000
    16  H    0.000000  -0.000003  -0.000000   0.000000   0.000000  -0.000000
    17  H    0.000000   0.000002   0.000000  -0.000000  -0.000000   0.000000
    18  H    0.000000   0.000013   0.000000  -0.000000   0.000000  -0.000000
    19  H   -0.000000  -0.000001   0.000000  -0.000000  -0.000000   0.000000
    20  H   -0.000000   0.000003   0.000000   0.000000  -0.000000   0.000000
    21  H   -0.000007   0.000037   0.006503   0.000000  -0.000000  -0.000000
    22  H    0.000000  -0.000007  -0.000064   0.000000   0.000000   0.000000
    23  H   -0.000049   0.007423   0.000034   0.000001   0.000000   0.000000
    24  C   -0.057879   0.420985  -0.012473  -0.005909  -0.002461  -0.002719
    25  H    0.572641  -0.007874   0.000068   0.010224   0.003813   0.003752
    26  H   -0.007874   0.590847   0.000100  -0.000210  -0.000020  -0.000031
    27  H    0.000068   0.000100   0.604168  -0.000789   0.000213   0.000219
    28  C    0.010224  -0.000210  -0.000789   4.809249   0.399632   0.399274
    29  H    0.003813  -0.000020   0.000213   0.399632   0.621570  -0.065151
    30  H    0.003752  -0.000031   0.000219   0.399274  -0.065151   0.622463
    31  H   -0.000690   0.000002  -0.000299   0.395541  -0.025148  -0.025285
              31
     1  O   -0.031725
     2  C    0.006859
     3  C   -0.000491
     4  C    0.000148
     5  C    0.000001
     6  C    0.000000
     7  C    0.000000
     8  C    0.000000
     9  C   -0.000081
    10  C   -0.002822
    11  C   -0.000000
    12  C   -0.000000
    13  O   -0.000000
    14  O    0.000000
    15  C   -0.000000
    16  H    0.000000
    17  H   -0.000000
    18  H    0.000000
    19  H   -0.000000
    20  H   -0.000000
    21  H   -0.000000
    22  H   -0.000000
    23  H   -0.000000
    24  C    0.000522
    25  H   -0.000690
    26  H    0.000002
    27  H   -0.000299
    28  C    0.395541
    29  H   -0.025148
    30  H   -0.025285
    31  H    0.554505
 Mulliken charges:
               1
     1  O   -0.252352
     2  C    0.311686
     3  C   -0.253114
     4  C    0.168015
     5  C   -0.171669
     6  C   -0.147716
     7  C    0.152785
     8  C   -0.281148
     9  C    0.176991
    10  C   -0.203028
    11  C    0.046303
    12  C    0.219439
    13  O   -0.358454
    14  O   -0.267646
    15  C   -0.336326
    16  H    0.059083
    17  H    0.108598
    18  H    0.112923
    19  H    0.108724
    20  H    0.300028
    21  H    0.083547
    22  H    0.087656
    23  H    0.091742
    24  C   -0.196182
    25  H    0.098725
    26  H    0.087432
    27  H    0.077620
    28  C   -0.180382
    29  H    0.114081
    30  H    0.113678
    31  H    0.128961
 Sum of Mulliken charges =  -0.00000
 Mulliken charges with hydrogens summed into heavy atoms:
               1
     1  O   -0.252352
     2  C    0.311686
     3  C   -0.175494
     4  C    0.168015
     5  C   -0.088122
     6  C   -0.060060
     7  C    0.152785
     8  C   -0.189406
     9  C    0.176991
    10  C   -0.104303
    11  C    0.105386
    12  C    0.219439
    13  O   -0.058426
    14  O   -0.267646
    15  C   -0.006080
    24  C   -0.108750
    28  C    0.176338
 Electronic spatial extent (au):  <R**2>=           8671.5516
 Charge=              0.0000 electrons
 Dipole moment (field-independent basis, Debye):
    X=             -1.4080    Y=             -2.5697    Z=             -1.3795  Tot=              3.2386
 Quadrupole moment (field-independent basis, Debye-Ang):
   XX=            -99.7299   YY=            -92.3102   ZZ=           -104.7290
   XY=             -4.9844   XZ=             -7.6214   YZ=             -3.8650
 Traceless Quadrupole moment (field-independent basis, Debye-Ang):
   XX=             -0.8068   YY=              6.6128   ZZ=             -5.8059
   XY=             -4.9844   XZ=             -7.6214   YZ=             -3.8650
 Octapole moment (field-independent basis, Debye-Ang**2):
  XXX=           -798.1700  YYY=            -59.0110  ZZZ=            148.0658  XYY=           -268.3354
  XXY=            -96.6280  XXZ=             -4.0745  XZZ=           -268.4533  YZZ=            -28.8966
  YYZ=             37.2575  XYZ=            -40.5945
 Hexadecapole moment (field-independent basis, Debye-Ang**3):
 XXXX=          -9648.8158 YYYY=          -1200.3159 ZZZZ=           -620.9757 XXXY=          -1257.8565
 XXXZ=            -38.5967 YYYX=           -793.5986 YYYZ=            -15.7902 ZZZX=            244.1516
 ZZZY=            -29.2142 XXYY=          -1834.3830 XXZZ=          -1756.0655 YYZZ=           -328.0538
 XXYZ=           -266.6388 YYXZ=             43.0798 ZZXY=           -327.7972
 N-N= 1.121019542919D+03 E-N=-4.033224305312D+03  KE= 7.646777719345D+02
 No NMR shielding tensors so no spin-rotation constants.
 Leave Link  601 at Sat Mar 16 17:11:24 2019, MaxMem=   104857600 cpu:               6.3 elap:               0.5
 (Enter /util/academic/gaussian/g16.A03/x86-64-SSE4_2/g16/l9999.exe)
 1\1\GINC-CPN-P27-07-01\FOpt\RBLYP\def2TZVP\C14H14O3\HERBERTL\16-Mar-20
 19\0\\#P BLYP/def2TZVP OPT=VeryTight Int=UltraFine SCF=Tight NoSymm\\o
 pt + freq\\0,1\O,-2.0486052969,-0.7218400356,-0.4562429338\C,-0.674837
 2221,-0.6467569263,-0.5410425809\C,-0.1214484809,0.6233161955,-0.43698
 50583\C,1.2807421126,0.814043185,-0.5104792554\C,1.8886542466,2.099381
 1787,-0.404779266\C,3.2588773069,2.2456616145,-0.4802643453\C,4.118442
 8502,1.1239873974,-0.6724168676\C,3.5498885426,-0.1365757693,-0.772396
 948\C,2.1420315014,-0.3280225443,-0.6973033674\C,0.1693978953,-1.77860
 96177,-0.7242214945\C,5.63488088,1.3507812084,-0.764056128\C,6.3296939
 157,0.8081824337,0.4913453547\O,6.5412239917,-0.5507404238,0.437187505
 3\O,6.6602018426,1.4756867946,1.4516291357\C,6.258275903,0.8134926073,
 -2.0752137892\H,5.8057165847,2.4327877226,-0.7130905578\H,5.7837502105
 ,1.3039019875,-2.9342102981\H,6.1200373071,-0.2679672604,-2.1759241917
 \H,7.3354763132,1.0235244345,-2.1100833852\H,6.954223942,-0.7941449799
 ,1.2931756482\H,1.2534135045,2.973425651,-0.2606807871\H,3.6994300381,
 3.2387483105,-0.3918368402\H,4.1816039578,-1.0149957155,-0.9018904445\
 C,1.5406941927,-1.6119345498,-0.7989892703\H,-0.2532406115,-2.77623037
 63,-0.8063695474\H,2.1801651195,-2.4836901087,-0.9395378081\H,-0.78333
 12026,1.4768759314,-0.2959374755\C,-2.6809317106,-2.008540688,-0.55314
 36152\H,-2.3591336139,-2.6795280986,0.2575221031\H,-2.482311664,-2.484
 8623953,-1.5250867323\H,-3.7532423563,-1.813967163,-0.4578267591\\Vers
 ion=ES64L-G16RevA.03\HF=-767.6291644\RMSD=8.748e-09\RMSF=2.846e-07\Dip
 ole=-0.5539618,-1.0109936,-0.5427274\Quadrupole=-0.5998681,4.9164448,-
 4.3165767,-3.7057913,-5.6662909,-2.8735391\PG=C01 [X(C14H14O3)]\\@


 NECESSARY EVIL: ONE WE LIKE TOO MUCH TO RELINQUISH.
 Job cpu time:       0 days 23 hours 58 minutes 39.0 seconds.
 Elapsed time:       0 days  1 hours 30 minutes 15.7 seconds.
 File lengths (MBytes):  RWF=    233 Int=      0 D2E=      0 Chk=     28 Scr=      1
 Normal termination of Gaussian 16 at Sat Mar 16 17:11:24 2019.
