   This run of MOLCAS is using the pymolcas driver

                             OPE
                             OPE          NMOL  CASOP  ENMOLC A   SO
                 OPE        NMOLC        AS  OP EN  MO LC     AS  OP
                OPENM       OL CA        SO  PE NM  OL CA     SOP EN
                OP EN      MO   LC       AS  OP ENMOL  CASO   PENMOL
                OP  EN     MO   LC       AS  OP EN     MO     LC ASO
               OP   E  NMOL  C  AS       OP  EN MO     LC     AS  OP
               OP  E   NMO   LC AS        OPEN  MO     LCASOP EN   M
               O  PEN   MO  LCA  SO
            OPE   NMO   L   CAS    OP
        OPENMOL  CASOP     ENMOL   CASOPE
     OPENMOLCA   SOPENMOLCASOPEN   MOLCASOPE
    OPENMOLCAS   OP           EN   MOL    CAS
    OPENMOLCAS       OP  ENM        O     LCA
    OPENMOLCAS    OPEN  MOLCASO     P  E  NMO
    OPENMOLCAS     OP               E  N  MOL
    OPENMOLCA   SO           PENM   O  L  CAS    OPEN    MO    LCAS
    OPENMOLCA   SOP           ENM   O  L  CAS   OP  EN  MOLC  AS   O
    OPENMOLCA   SOPE           NM      O  LCA   S      OP  EN MO
    OPENMOLC                AS         O  PEN   M      OL  CA  SOPE
    OPENMO        LCASOPE  NMOL        C  ASO   P      ENMOLC     AS
    OPE     NMO      LCA  SO     P     E   NM   OL  CA SO  PE N   MO
          OPENMOLCA            SOPE   NMO        LCAS  O    P  ENMO
     OPENMOLCASOPENMOLCASOPENMOLCASOPENMOLCA
        OPENMOLCASOPENMOLCASOPENMOLCASOPE
            OPENMOLCASOPENMOLCASOPENM
               OPENMOLCASOPENMOLCA        version: 22.02
                   OPENMOLCASO
                       OPE                tag: 339-ga8348c1

 OpenMolcas is free software; you can redistribute it and/or modify it
 under the terms of the GNU Lesser General Public License version 2.1.
 OpenMolcas is distributed in the hope that it will be useful, but it
 is provided "as is" and without any express or implied warranties.
 For more details see the full text of the license in the file
 LICENSE or in <http://www.gnu.org/licenses/>.

                 Copyright (C) The OpenMolcas Authors
           For the author list and the recommended citation,
                   consult the file CONTRIBUTORS.md

           *************************************************
           * pymolcas version py2.23                       *
           *   build d53e6f8e18683222a6e02cb84ce98eb3      *
           *   (after the EMIL interpreter by V. Veryazov) *
           *************************************************

configuration info
------------------
Host name: srv-p22-13.cbls.ccr.buffalo.edu (Linux)
C Compiler ID: GNU
C flags: -std=gnu99
Fortran Compiler ID: GNU
Fortran flags: -fno-aggressive-loop-optimizations -cpp -fdefault-integer-8 -fmax-stack-var-size=1048576
Definitions: _MOLCAS_;_I8_;_LINUX_
Parallel: OFF (GA=OFF)


   -----------------------------------------------------------------------------------------
  |
  |           Project: formald
  |    Submitted from: /scratch/10762484
  |      Scratch area: /scratch/10762484
  |   Save outputs to: WORKDIR
  |            Molcas: /projects/academic/jochena/herbertl/src/OpenMolcas/build-gcc
  |
  | Scratch area is NOT empty
  |
  |        MOLCASBIN = /projects/academic/jochena/herbertl/src/OpenMolcas/build-gcc/bin
  |      MOLCAS_CPUS = 1
  |    MOLCAS_DRIVER = /projects/academic/jochena/herbertl/src/OpenMolcas/build-gcc/pymolcas
  |    MOLCAS_MOLDEN = OFF
  |    MOLCAS_NPROCS = 1
  |     MOLCAS_PRINT = 2
  |    MOLCAS_SOURCE = /projects/academic/jochena/herbertl/src/OpenMolcas
  | MOLCAS_STRUCTURE = 0
  |
   -----------------------------------------------------------------------------------------

++ ---------   Input file   ---------

>>> COPY $HomeDir/saved/formald.JobMix JOB001

&RASSI
NrofJobIphs
1 10
1 2 3 4 5 6 7 8 9 10
HAMI
SPIN
MESO
MEES
PRPR
End of input

-- ----------------------------------

>>> COPY /projects/academic/jochena/herbertl/projects/molcas-tests/formaldehyde/formald-aug-cc-pvdz/confg000/from-cas-4.3/rassi-ras-8.18.1.1.2.3.13-jobmix-026.copy/saved/formald.JobMix JOB001

*** symbolic link created: INPORB -> formald.GssOrb
--- Start Module: rassi at Sat Dec 31 15:35:26 2022 ---

()()()()()()()()()()()()()()()()()()()()()()()()()()()()()()()()()()()()()()()()()()()()()()()()()()

                                               &RASSI

                                   only a single process is used
                       available to each process: 12 GB of memory, 1 thread?
                                             pid: 59223
()()()()()()()()()()()()()()()()()()()()()()()()()()()()()()()()()()()()()()()()()()()()()()()()()()

 Identity Hamiltonian turned on
 SPIN-ORBIT PROPERTY PRINT ON

      ********************************************************************************
      *                                                                              *
      *                             General data section                             *
      *                                                                              *
      ********************************************************************************

   Specific data for JOBIPH file JOB001                                                                                                                          
   -------------------------------------

   Header from SEWARD:
                                                                               
        Integrals generated by Gateway/Seward, Wed Dec  7 15:03:44 2022        

   CASSCF title (first line only):
       (No title given)                                                        

   STATE IRREP:                            1
   SPIN MULTIPLICITY:                      1
   ACTIVE ELECTRONS:                       8
   MAX RAS1 HOLES:                         1
   MAX RAS3 ELECTRONS:                     1
   NR OF CONFIG:                         350

   The following data are common to all the states:
   ------------------------------------------------
   (note: frozen counts as inactive, deleted as secondary)

      Nr of irreps: 1

                 Total     No./Irrep 
      Irrep                  1
                             a

      INACTIVE       4       4
      ACTIVE        18      18
      SECONDARY     42      42
      BASIS         64      64

      RAS1           2       2
      RAS2           3       3
      RAS3          13      13

        MATRIX ELEMENTS WILL BE COMPUTED FOR THE FOLLOWING ONE-ELECTRON OPERATORS, UNLESS ZERO BY SYMMETRY.
   (Herm=Hermitian, Anti=Antihermitian, Sing=Singlet operator, Trip=Triplet operator)
     MLTPL  0   1 (HERMSING)     MLTPL  0   1 (ANTITRIP)     MLTPL  1   1 (HERMSING)
     MLTPL  1   1 (ANTITRIP)     MLTPL  1   2 (HERMSING)     MLTPL  1   2 (ANTITRIP)
     MLTPL  1   3 (HERMSING)     MLTPL  1   3 (ANTITRIP)     MLTPL  2   1 (HERMSING)
     MLTPL  2   2 (HERMSING)     MLTPL  2   3 (HERMSING)     MLTPL  2   4 (HERMSING)
     MLTPL  2   5 (HERMSING)     MLTPL  2   6 (HERMSING)     VELOCITY   1 (ANTISING)
     VELOCITY   2 (ANTISING)     VELOCITY   3 (ANTISING)     ANGMOM     1 (ANTISING)
     ANGMOM     2 (ANTISING)     ANGMOM     3 (ANTISING)     MLTPV  2   1 (ANTISING)
     MLTPV  2   2 (ANTISING)     MLTPV  2   3 (ANTISING)     MLTPV  2   4 (ANTISING)
     MLTPV  2   5 (ANTISING)     MLTPV  2   6 (ANTISING)     AMFI       1 (ANTITRIP)
     AMFI       2 (ANTITRIP)     AMFI       3 (ANTITRIP)

       EIGENSTATES OF A SPIN-FREE HAMILTONIAN WILL BE COMPUTED BASED ON:

  A Hamiltonian matrix computed by RASSI.

  SO coupling elements will be added.

        MATRIX ELEMENTS OVER SPIN EIGENSTATES FOR:
     MLTPL  0   1 (HERMSING)     MLTPL  0   1 (ANTITRIP)     MLTPL  1   1 (HERMSING)
     MLTPL  1   1 (ANTITRIP)     MLTPL  1   2 (HERMSING)     MLTPL  1   2 (ANTITRIP)
     MLTPL  1   3 (HERMSING)     MLTPL  1   3 (ANTITRIP)     MLTPL  2   1 (HERMSING)
     MLTPL  2   2 (HERMSING)     MLTPL  2   3 (HERMSING)     MLTPL  2   4 (HERMSING)
     MLTPL  2   5 (HERMSING)     MLTPL  2   6 (HERMSING)     VELOCITY   1 (ANTISING)
     VELOCITY   2 (ANTISING)     VELOCITY   3 (ANTISING)     ANGMOM     1 (ANTISING)
     ANGMOM     2 (ANTISING)     ANGMOM     3 (ANTISING)     MLTPV  2   1 (ANTISING)
     MLTPV  2   2 (ANTISING)     MLTPV  2   3 (ANTISING)     MLTPV  2   4 (ANTISING)
     MLTPV  2   5 (ANTISING)     MLTPV  2   6 (ANTISING)     AMFI       1 (ANTITRIP)
     AMFI       2 (ANTITRIP)     AMFI       3 (ANTITRIP)

       EIGENSTATES OF SPIN-ORBIT HAMILTONIAN WILL BE COMPUTED

  Nr of states:                   10

   State:        1   2   3   4   5   6   7   8   9  10
  JobIph:        1   1   1   1   1   1   1   1   1   1
 Root nr:        1   2   3   4   5   6   7   8   9  10

::    RASSI State    1     Total energy:    -113.96940190069630
::    RASSI State    2     Total energy:    -113.83545154335006
::    RASSI State    3     Total energy:    -113.70347620601933
::    RASSI State    4     Total energy:    -113.66793405000077
::    RASSI State    5     Total energy:    -113.66674794377842
::    RASSI State    6     Total energy:    -113.53985204411239
::    RASSI State    7     Total energy:    -113.56353624889346
::    RASSI State    8     Total energy:    -113.64583278798706
::    RASSI State    9     Total energy:    -113.58887490171256
::    RASSI State   10     Total energy:    -113.57629957059832



      ****************************************************************************************************
      *                                                                                                  *
      *                                         Spin-free section                                        *
      *                                                                                                  *
      *                 Note: index according to input order, order according to energy.                 *
      *                                                                                                  *
      ****************************************************************************************************



  SPIN-FREE ENERGIES:
  (Shifted by EMIN (a.u.) =       -113.9694019007)

 SF State       Relative EMIN(au)   Rel lowest level(eV)    D:o, cm**(-1)

     1             0.0000000000        0.0000000000              0.0000
     2             0.1339503573        3.6449749115          29398.7053
     3             0.2659256947        7.2362067906          58363.9438
     4             0.3014678507        8.2033581260          66164.5454
     5             0.3026539569        8.2356337206          66424.8656
     8             0.3235691127        8.8047641032          71015.2117
     9             0.3805269990       10.3546671464          83516.0228
    10             0.3931023301       10.6968593385          86275.9890
     7             0.4058656518       11.0441670152          89077.2143
     6             0.4295498566       11.6886470594          94275.2964

   Spin-free eigenstates in basis of input states:
   -----------------------------------------------

     Eigenstate No.    1 energy=   -113.9694019007
 1 0.989513 7 -0.143583                                                                              

     Eigenstate No.    2 energy=   -113.8354515434
 2 0.994320 9 -0.106424                                                                              

     Eigenstate No.    3 energy=   -113.7034762060
 3 0.997898                                                                                          

     Eigenstate No.    4 energy=   -113.6679340500
 4 0.999819                                                                                          

     Eigenstate No.    5 energy=   -113.6667479438
 5 0.995389                                                                                          

     Eigenstate No.    8 energy=   -113.6458327880
 8 0.999893                                                                                          

     Eigenstate No.    9 energy=   -113.5888749017
 2 0.106426 9 0.994213                                                                               

     Eigenstate No.   10 energy=   -113.5762995706
 10 0.998070                                                                                         

     Eigenstate No.    7 energy=   -113.5635362489
 1 0.144430 7 0.984980                                                                               

     Eigenstate No.    6 energy=   -113.5398520441
 6 1.000000                                                                                          


++ Dipole transition strengths (spin-free states):
   -----------------------------------------------
     for osc. strength at least  1.00000000E-05

      From   To        Osc. strength     Einstein coefficients Ax, Ay, Az (sec-1)    Total A (sec-1)
     -----------------------------------------------------------------------------------------------
         1    3       2.52610794E-02  2.23576423E-15  5.73962334E+07  2.35124820E-15  5.73962334E+07
         1    4       4.20180934E-02  2.22980878E-15  1.22695670E+08  5.88188870E-13  1.22695670E+08
         1    5       5.52260309E-02  5.85328047E-14  5.34137813E-13  1.62535199E+08  1.62535199E+08
         1   10       7.19520822E-02  2.35190052E-13  3.57244447E+08  1.21054410E-10  3.57244447E+08
         1    7       2.87363837E-01  5.97457468E-13  1.96196577E-11  1.52092429E+09  1.52092429E+09
         1    6       9.10244300E-03  5.39629904E+07  8.17000348E-15  2.72383426E-11  5.39629904E+07
     -----------------------------------------------------------------------------------------------
--

++ Velocity transition strengths (spin-free states):
   -------------------------------------------------
     for osc. strength at least  1.00000000E-05

      From   To        Osc. strength     Einstein coefficients Ax, Ay, Az (sec-1)    Total A (sec-1)
     -----------------------------------------------------------------------------------------------
         1    3       2.06592937E-02  6.54807582E-15  4.69404186E+07  6.92216190E-15  4.69404186E+07
         1    4       3.98960739E-02  7.21965953E-15  1.16499230E+08  3.58886121E-13  1.16499230E+08
         1    5       4.40229723E-02  7.56271558E-14  7.95066133E-13  1.29563585E+08  1.29563585E+08
         1   10       3.66743824E-02  2.02668504E-13  1.82089511E+08  1.01894084E-10  1.82089511E+08
         1    7       2.30797559E-01  9.25437390E-13  9.27687100E-12  1.22153719E+09  1.22153719E+09
         1    6       1.74135520E-02  1.03234630E+08  7.63004159E-21  2.07937465E-11  1.03234630E+08
     -----------------------------------------------------------------------------------------------
--

++ Length and velocity gauge comparison (spin-free states):
   --------------------------------------------------------

 --------------------------------------------------
 A comparison between the dipole oscillator strengths in 
 length and velocity gauge will be performed

     All dipole oscillator differences above the tolerance of   1.00000000E-01  will be printed 

 Due to basis set deficiency these oscillator may be problematic 

 The tolerance is defined as ABS(1-O_l/O_v) 
 O_l : dipole oscillator strength in length gauge
 O_p : dipole oscillator strength in velocity gauge
 --------------------------------------------------

  Problematic transitions have been found

      From   To       Difference (%) Osc. st. (len.) Osc. st. (vel.)
     ---------------------------------------------------------------
         1    3            22.274652  2.52610794E-02  2.06592937E-02
         1    5            25.448211  5.52260309E-02  4.40229723E-02
         1   10            96.191667  7.19520822E-02  3.66743824E-02
         1    7            24.509045  2.87363837E-01  2.30797559E-01
         1    6            47.727821  9.10244300E-03  1.74135520E-02
     ---------------------------------------------------------------

 Number of problematic transitions =                    30

--

 Electric-dipole - electric-octupole not included
 Electric-dipole - magnetic-quadrupole not included

++ Total transition strengths for the second-order expansion of the wave vector (spin-free states):
   ------------------------------------------------------------------------------------------------
     for osc. strength at least  1.00000000E-05

      From   To        Osc. strength
     -------------------------------
         1    6       1.03908577E-05
     -------------------------------
--



      ****************************************************************************************************
      *                                                                                                  *
      *                                         Spin-orbit section                                       *
      *                                                                                                  *
      ****************************************************************************************************

 tjd- BEFORE CALLING BRCMAT FOR EIGVECTORS
 tjd- T                   10

       Total energies including SO-coupling:
::    SO-RASSI State    1     Total energy:    -113.96940190069630
::    SO-RASSI State    2     Total energy:    -113.83545154335006
::    SO-RASSI State    3     Total energy:    -113.70347620601933
::    SO-RASSI State    4     Total energy:    -113.66793405000077
::    SO-RASSI State    5     Total energy:    -113.66674794377842
::    SO-RASSI State    6     Total energy:    -113.64583278798706
::    SO-RASSI State    7     Total energy:    -113.58887490171256
::    SO-RASSI State    8     Total energy:    -113.57629957059832
::    SO-RASSI State    9     Total energy:    -113.56353624889346
::    SO-RASSI State   10     Total energy:    -113.53985204411239


   Eigenvalues of complex Hamiltonian:
   -----------------------------------
  (Shifted by EMIN (a.u.) =       -113.9694019007)

 SO State       Relative EMIN(au)   Rel lowest level(eV)    D:o, cm**(-1)

     1             0.0000000000        0.0000000000              0.0000
     2             0.1339503573        3.6449749115          29398.7053
     3             0.2659256947        7.2362067906          58363.9438
     4             0.3014678507        8.2033581260          66164.5454
     5             0.3026539569        8.2356337206          66424.8656
     6             0.3235691127        8.8047641032          71015.2117
     7             0.3805269990       10.3546671464          83516.0228
     8             0.3931023301       10.6968593385          86275.9890
     9             0.4058656518       11.0441670152          89077.2143
    10             0.4295498566       11.6886470594          94275.2964


 Weights of the five most important spin-orbit-free states for each spin-orbit state.

 SO State  Total energy (au)           Spin-free states, spin, and weights
 -------------------------------------------------------------------------------------------------------
    1         0.000000       1 0.0  1.0000   10 0.0  0.0000    9 0.0  0.0000    8 0.0  0.0000    7 0.0  0.0000
    2         0.133950       2 0.0  1.0000   10 0.0  0.0000    9 0.0  0.0000    8 0.0  0.0000    7 0.0  0.0000
    3         0.265926       3 0.0  1.0000   10 0.0  0.0000    9 0.0  0.0000    8 0.0  0.0000    7 0.0  0.0000
    4         0.301468       4 0.0  1.0000   10 0.0  0.0000    9 0.0  0.0000    8 0.0  0.0000    7 0.0  0.0000
    5         0.302654       5 0.0  1.0000   10 0.0  0.0000    9 0.0  0.0000    8 0.0  0.0000    7 0.0  0.0000
    6         0.323569       8 0.0  1.0000   10 0.0  0.0000    9 0.0  0.0000    7 0.0  0.0000    6 0.0  0.0000
    7         0.380527       9 0.0  1.0000   10 0.0  0.0000    8 0.0  0.0000    7 0.0  0.0000    6 0.0  0.0000
    8         0.393102      10 0.0  1.0000    9 0.0  0.0000    8 0.0  0.0000    7 0.0  0.0000    6 0.0  0.0000
    9         0.405866       7 0.0  1.0000   10 0.0  0.0000    9 0.0  0.0000    8 0.0  0.0000    6 0.0  0.0000
   10         0.429550       6 0.0  1.0000   10 0.0  0.0000    9 0.0  0.0000    8 0.0  0.0000    7 0.0  0.0000
 -------------------------------------------------------------------------------------------------------


      ****************************************************************************************************
      *                                                                                                  *
      *                                   Spin-free properties section                                   *
      *                                                                                                  *
      ****************************************************************************************************


++ Matrix elements

  =========================================
   MATRIX ELEMENTS OF 1-ELECTRON OPERATORS
   FOR THE SPIN-FREE EIGENSTATES:
  =========================================
  (including nuclear contrib.)

  SELECTED PROPERTIES:
 MLTPL  0  1    MLTPL  0  1    MLTPL  1  1    MLTPL  1  1    MLTPL  1  2
 MLTPL  1  2    MLTPL  1  3    MLTPL  1  3    MLTPL  2  1    MLTPL  2  2
 MLTPL  2  3    MLTPL  2  4    MLTPL  2  5    MLTPL  2  6    VELOCITY  1
 VELOCITY  2    VELOCITY  3    ANGMOM    1    ANGMOM    2    ANGMOM    3
 MLTPV  2  1    MLTPV  2  2    MLTPV  2  3    MLTPV  2  4    MLTPV  2  5
 MLTPV  2  6    AMFI      1    AMFI      2    AMFI      3

 PROPERTY: MLTPL  0   COMPONENT:   1
 ORIGIN:   0.000000000E+00  0.000000000E+00  0.000000000E+00

  STATE          1                2                3                4

    1       -1.776356839E-14  3.128560745E-15  6.855411323E-15  4.063691847E-16
    2        3.128560745E-15 -3.907985047E-14  2.366112068E-15  4.707228675E-15
    3        6.855411323E-15  2.366112068E-15 -5.329070518E-14 -7.428519605E-15
    4        4.063691847E-16  4.707228675E-15 -7.429820648E-15 -2.131628207E-14
    5       -6.383782392E-16  9.277982497E-16 -1.846924362E-15  1.963068424E-15
    6       -1.675641760E-16  1.721944424E-15  3.457102371E-15 -5.380669810E-16
    7       -4.440892099E-16 -9.630388874E-17 -6.314064851E-16  7.480797640E-16
    8        2.996245013E-15  5.634381850E-15 -5.079118385E-15  4.516805484E-16
    9        7.195508040E-15 -3.285810209E-15 -7.334994602E-16  1.813641029E-15
   10       -3.732974705E-16  1.018495613E-15 -4.440892099E-15 -3.330669074E-15

  STATE          5                6                7                8

    1       -6.383782392E-16 -1.675641762E-16  4.440892099E-16  2.996245013E-15
    2        9.277982497E-16  1.721944424E-15 -9.630388874E-17  5.634381850E-15
    3       -1.846924362E-15  3.457102371E-15 -6.314064851E-16 -5.079118385E-15
    4        1.963068420E-15 -5.380669814E-16  7.480797639E-16  4.516805483E-16
    5       -2.131628207E-14 -2.800457253E-16  8.881784197E-16  3.796786129E-15
    6       -2.800457318E-16 -2.842170943E-14  1.680131894E-16 -6.019069531E-16
    7        6.661338148E-16  1.680131896E-16 -3.197442311E-14  1.118799700E-16
    8        3.796786129E-15 -6.019069531E-16  1.118799703E-16 -1.776356839E-14
    9        1.536367167E-15  5.558118752E-16  3.004086695E-16  5.301314943E-15
   10       -3.340243600E-15  6.416681615E-15  1.900225521E-15  5.761384220E-16

  STATE          9               10

    1        7.195508040E-15 -3.732974705E-16
    2       -3.384120241E-15  1.018495612E-15
    3       -7.334994602E-16 -4.329869796E-15
    4        1.813641029E-15 -3.323730180E-15
    5        1.536367167E-15 -3.340243600E-15
    6        5.558118752E-16  6.416681615E-15
    7        3.004086695E-16  1.900225521E-15
    8        5.301314943E-15  5.761384220E-16
    9       -1.421085472E-14 -8.180138508E-16
   10       -8.180138508E-16 -2.486899575E-14

 PROPERTY: MLTPL  0   COMPONENT:   1
 ORIGIN:   0.000000000E+00  0.000000000E+00  0.000000000E+00

  STATE          1                2                3                4

    1        1.600000000E+01  0.000000000E+00  0.000000000E+00  0.000000000E+00
    2        0.000000000E+00  1.600000000E+01  0.000000000E+00  0.000000000E+00
    3        0.000000000E+00  0.000000000E+00  1.600000000E+01  0.000000000E+00
    4        0.000000000E+00  0.000000000E+00  0.000000000E+00  1.600000000E+01
    5        0.000000000E+00  0.000000000E+00  0.000000000E+00  0.000000000E+00
    6        0.000000000E+00  0.000000000E+00  0.000000000E+00  0.000000000E+00
    7        0.000000000E+00  0.000000000E+00  0.000000000E+00  0.000000000E+00
    8        0.000000000E+00  0.000000000E+00  0.000000000E+00  0.000000000E+00
    9        0.000000000E+00  0.000000000E+00  0.000000000E+00  0.000000000E+00
   10        0.000000000E+00  0.000000000E+00  0.000000000E+00  0.000000000E+00

  STATE          5                6                7                8

    1        0.000000000E+00  0.000000000E+00  0.000000000E+00  0.000000000E+00
    2        0.000000000E+00  0.000000000E+00  0.000000000E+00  0.000000000E+00
    3        0.000000000E+00  0.000000000E+00  0.000000000E+00  0.000000000E+00
    4        0.000000000E+00  0.000000000E+00  0.000000000E+00  0.000000000E+00
    5        1.600000000E+01  0.000000000E+00  0.000000000E+00  0.000000000E+00
    6        0.000000000E+00  1.600000000E+01  0.000000000E+00  0.000000000E+00
    7        0.000000000E+00  0.000000000E+00  1.600000000E+01  0.000000000E+00
    8        0.000000000E+00  0.000000000E+00  0.000000000E+00  1.600000000E+01
    9        0.000000000E+00  0.000000000E+00  0.000000000E+00  0.000000000E+00
   10        0.000000000E+00  0.000000000E+00  0.000000000E+00  0.000000000E+00

  STATE          9               10

    1        0.000000000E+00  0.000000000E+00
    2        0.000000000E+00  0.000000000E+00
    3        0.000000000E+00  0.000000000E+00
    4        0.000000000E+00  0.000000000E+00
    5        0.000000000E+00  0.000000000E+00
    6        0.000000000E+00  0.000000000E+00
    7        0.000000000E+00  0.000000000E+00
    8        0.000000000E+00  0.000000000E+00
    9        1.600000000E+01  0.000000000E+00
   10        0.000000000E+00  1.600000000E+01

 PROPERTY: MLTPL  1   COMPONENT:   1
 ORIGIN:   0.000000000E+00  0.000000000E+00  0.000000000E+00

  STATE          1                2                3                4

    1       -4.849334746E-12 -1.788069108E-12 -2.355931918E-12  1.949227329E-12
    2       -1.788069108E-12 -2.184148075E-13  5.247670335E-01 -7.542367693E-02
    3       -2.355931918E-12  5.247670335E-01  2.459471765E-14  1.081535331E-12
    4        1.949227329E-12 -7.542367693E-02  1.081535331E-12  6.447952051E-12
    5       -9.928195502E-12  1.694985525E-11 -1.982756583E-11  1.560872448E-11
    6        1.782862394E-01  3.281302939E-12 -1.920682967E-12  6.194855352E-12
    7        2.042538431E-11  7.744293110E-12 -3.720029575E-11 -7.928521757E-12
    8       -1.386145268E-11  2.715475087E-12  2.965952963E+00  8.081758358E-01
    9        7.337210664E-12 -3.037001756E-12 -2.379611282E-01 -1.282861796E-01
   10        1.344439409E-11  2.422135385E-02 -4.169129310E-12  1.664984699E-11

  STATE          5                6                7                8

    1       -9.928195502E-12  1.782862394E-01  2.042538431E-11 -1.386145268E-11
    2        1.694985525E-11  3.281302939E-12  7.744293110E-12  2.715475087E-12
    3       -1.982756583E-11 -1.920682967E-12 -3.720029575E-11  2.965952963E+00
    4        1.560872448E-11  6.194855352E-12 -7.928521757E-12  8.081758358E-01
    5       -1.787838263E-11  7.311720978E-03  1.121415553E-11 -1.199160406E-11
    6        7.311720978E-03 -4.376611359E-11  2.279403920E-01  4.660581570E-13
    7        1.121415553E-11  2.279403920E-01  2.093374683E-11  2.600232410E-10
    8       -1.199160406E-11  4.660581570E-13  2.600232410E-10  4.471257165E-12
    9        3.295938564E-12 -4.818999991E-11 -2.050098842E-11 -4.212693961E-12
   10        6.551816992E-12  5.497818783E-11 -4.989730393E-12 -8.999456251E-01

  STATE          9               10

    1        7.337210664E-12  1.344439409E-11
    2       -3.037001756E-12  2.422135385E-02
    3       -2.379611282E-01 -4.169129310E-12
    4       -1.282861796E-01  1.664984699E-11
    5        3.295938564E-12  6.551816992E-12
    6       -4.818999991E-11  5.497818783E-11
    7       -2.050098842E-11 -4.989730393E-12
    8       -4.212693961E-12 -8.999456251E-01
    9       -9.781237512E-13  9.465712327E-02
   10        9.465712327E-02  6.648072453E-12

 PROPERTY: MLTPL  1   COMPONENT:   1
 ORIGIN:   0.000000000E+00  0.000000000E+00  0.000000000E+00

  STATE          1                2                3                4

    1       -2.190041400E-16  0.000000000E+00  0.000000000E+00  0.000000000E+00
    2        0.000000000E+00 -2.190041400E-16  0.000000000E+00  0.000000000E+00
    3        0.000000000E+00  0.000000000E+00 -2.190041400E-16  0.000000000E+00
    4        0.000000000E+00  0.000000000E+00  0.000000000E+00 -2.190041400E-16
    5        0.000000000E+00  0.000000000E+00  0.000000000E+00  0.000000000E+00
    6        0.000000000E+00  0.000000000E+00  0.000000000E+00  0.000000000E+00
    7        0.000000000E+00  0.000000000E+00  0.000000000E+00  0.000000000E+00
    8        0.000000000E+00  0.000000000E+00  0.000000000E+00  0.000000000E+00
    9        0.000000000E+00  0.000000000E+00  0.000000000E+00  0.000000000E+00
   10        0.000000000E+00  0.000000000E+00  0.000000000E+00  0.000000000E+00

  STATE          5                6                7                8

    1        0.000000000E+00  0.000000000E+00  0.000000000E+00  0.000000000E+00
    2        0.000000000E+00  0.000000000E+00  0.000000000E+00  0.000000000E+00
    3        0.000000000E+00  0.000000000E+00  0.000000000E+00  0.000000000E+00
    4        0.000000000E+00  0.000000000E+00  0.000000000E+00  0.000000000E+00
    5       -2.190041400E-16  0.000000000E+00  0.000000000E+00  0.000000000E+00
    6        0.000000000E+00 -2.190041400E-16  0.000000000E+00  0.000000000E+00
    7        0.000000000E+00  0.000000000E+00 -2.190041400E-16  0.000000000E+00
    8        0.000000000E+00  0.000000000E+00  0.000000000E+00 -2.190041400E-16
    9        0.000000000E+00  0.000000000E+00  0.000000000E+00  0.000000000E+00
   10        0.000000000E+00  0.000000000E+00  0.000000000E+00  0.000000000E+00

  STATE          9               10

    1        0.000000000E+00  0.000000000E+00
    2        0.000000000E+00  0.000000000E+00
    3        0.000000000E+00  0.000000000E+00
    4        0.000000000E+00  0.000000000E+00
    5        0.000000000E+00  0.000000000E+00
    6        0.000000000E+00  0.000000000E+00
    7        0.000000000E+00  0.000000000E+00
    8        0.000000000E+00  0.000000000E+00
    9       -2.190041400E-16  0.000000000E+00
   10        0.000000000E+00 -2.190041400E-16

 PROPERTY: MLTPL  1   COMPONENT:   2
 ORIGIN:   0.000000000E+00  0.000000000E+00  0.000000000E+00

  STATE          1                2                3                4

    1       -6.250982437E-12  6.325136507E-13 -3.774778133E-01  4.572390339E-01
    2        6.325136507E-13 -1.458436063E-12 -3.664735859E-12 -4.675960894E-11
    3       -3.774778133E-01 -3.664735859E-12  1.577358065E-11 -2.417871989E-10
    4        4.572390339E-01 -4.675960894E-11 -2.417871989E-10 -2.511423783E-11
    5       -2.999143978E-11  7.338031991E-14 -3.779685250E+00 -2.949742226E-01
    6       -2.193718718E-12  1.151993181E-01 -2.559147877E-11  8.126230000E-11
    7        1.170475837E-10  1.046404234E-11  2.892134482E-01  6.634473837E-01
    8       -2.762377003E-12 -1.848317411E-12 -1.370471187E-11 -2.623511895E-11
    9        2.325950962E-12  2.151967130E-12 -1.808460868E-11 -7.061126274E-10
   10       -5.239797506E-01  2.203792657E-11 -1.846393192E-11  7.349888918E-10

  STATE          5                6                7                8

    1       -2.999143978E-11 -2.193718718E-12  1.170475837E-10 -2.762377003E-12
    2        7.338031991E-14  1.151993181E-01  1.046404234E-11 -1.848317411E-12
    3       -3.779685250E+00 -2.559147877E-11  2.892134482E-01 -1.370471187E-11
    4       -2.949742226E-01  8.126230000E-11  6.634473837E-01 -2.623511895E-11
    5        5.161731829E-11 -5.566086127E-12 -3.833008347E-10 -1.536820549E-11
    6       -5.566086127E-12  4.346448582E-12  8.292102339E-11  4.950008541E-02
    7       -3.833008347E-10  8.292102339E-11  2.277661280E-10  5.735616278E-12
    8       -1.536820549E-11  4.950008541E-02  5.735616278E-12  1.338384148E-13
    9       -6.733068856E-12  4.392992503E-01  3.938946302E-11  3.278113436E-12
   10        1.427629525E+00  2.669483633E-11 -4.149017171E-01 -5.788543230E-11

  STATE          9               10

    1        2.325950962E-12 -5.239797506E-01
    2        2.151967130E-12  2.203792657E-11
    3       -1.808460868E-11 -1.846393192E-11
    4       -7.061126274E-10  7.349888918E-10
    5       -6.733068856E-12  1.427629525E+00
    6        4.392992503E-01  2.669483633E-11
    7        3.938946302E-11 -4.149017171E-01
    8        3.278113436E-12 -5.788543230E-11
    9       -8.287412991E-13 -8.019570012E-10
   10       -8.019570012E-10  1.622050618E-09

 PROPERTY: MLTPL  1   COMPONENT:   2
 ORIGIN:   0.000000000E+00  0.000000000E+00  0.000000000E+00

  STATE          1                2                3                4

    1        0.000000000E+00  0.000000000E+00  0.000000000E+00  0.000000000E+00
    2        0.000000000E+00  0.000000000E+00  0.000000000E+00  0.000000000E+00
    3        0.000000000E+00  0.000000000E+00  0.000000000E+00  0.000000000E+00
    4        0.000000000E+00  0.000000000E+00  0.000000000E+00  0.000000000E+00
    5        0.000000000E+00  0.000000000E+00  0.000000000E+00  0.000000000E+00
    6        0.000000000E+00  0.000000000E+00  0.000000000E+00  0.000000000E+00
    7        0.000000000E+00  0.000000000E+00  0.000000000E+00  0.000000000E+00
    8        0.000000000E+00  0.000000000E+00  0.000000000E+00  0.000000000E+00
    9        0.000000000E+00  0.000000000E+00  0.000000000E+00  0.000000000E+00
   10        0.000000000E+00  0.000000000E+00  0.000000000E+00  0.000000000E+00

  STATE          5                6                7                8

    1        0.000000000E+00  0.000000000E+00  0.000000000E+00  0.000000000E+00
    2        0.000000000E+00  0.000000000E+00  0.000000000E+00  0.000000000E+00
    3        0.000000000E+00  0.000000000E+00  0.000000000E+00  0.000000000E+00
    4        0.000000000E+00  0.000000000E+00  0.000000000E+00  0.000000000E+00
    5        0.000000000E+00  0.000000000E+00  0.000000000E+00  0.000000000E+00
    6        0.000000000E+00  0.000000000E+00  0.000000000E+00  0.000000000E+00
    7        0.000000000E+00  0.000000000E+00  0.000000000E+00  0.000000000E+00
    8        0.000000000E+00  0.000000000E+00  0.000000000E+00  0.000000000E+00
    9        0.000000000E+00  0.000000000E+00  0.000000000E+00  0.000000000E+00
   10        0.000000000E+00  0.000000000E+00  0.000000000E+00  0.000000000E+00

  STATE          9               10

    1        0.000000000E+00  0.000000000E+00
    2        0.000000000E+00  0.000000000E+00
    3        0.000000000E+00  0.000000000E+00
    4        0.000000000E+00  0.000000000E+00
    5        0.000000000E+00  0.000000000E+00
    6        0.000000000E+00  0.000000000E+00
    7        0.000000000E+00  0.000000000E+00
    8        0.000000000E+00  0.000000000E+00
    9        0.000000000E+00  0.000000000E+00
   10        0.000000000E+00  0.000000000E+00

 PROPERTY: MLTPL  1   COMPONENT:   3
 ORIGIN:   0.000000000E+00  0.000000000E+00  0.000000000E+00

  STATE          1                2                3                4

    1       -9.016503459E-01 -7.895511030E-12  2.416011361E-12  3.165826292E-11
    2       -7.895511030E-12 -5.011291988E-01 -4.944205848E-12  1.853303629E-12
    3        2.416011361E-12 -4.944205848E-12  1.077527873E+00 -2.529641259E+00
    4        3.165826292E-11  1.853303629E-12 -2.529641259E+00 -2.288987093E-01
    5        5.231718491E-01 -2.965451800E-11  1.091923219E-10  1.335544713E-10
    6        1.266660301E-10 -2.926049189E-13  4.043392142E-12  1.414013376E-12
    7       -1.030553488E+00 -5.641328540E-11  1.055824566E-10 -2.994529377E-10
    8        6.807452306E-12  3.513606812E-01  2.196246927E-12  2.252144684E-11
    9        2.264111323E-10 -2.950598761E-01  1.337448676E-12 -4.994772771E-12
   10       -3.050156110E-10  7.551033739E-12 -4.013062834E-01  1.561922056E+00

  STATE          5                6                7                8

    1        5.231718491E-01  1.266660301E-10 -1.030553488E+00  6.807452306E-12
    2       -2.965451800E-11 -2.926049189E-13 -5.641328540E-11  3.513606812E-01
    3        1.091923219E-10  4.043392142E-12  1.055824566E-10  2.196246927E-12
    4        1.335544713E-10  1.414013376E-12 -2.994529377E-10  2.252144684E-11
    5        9.206394027E-01  7.223831709E-11  5.565103896E-01 -3.567134836E-11
    6        7.223831709E-11 -9.500272356E-01  1.226204910E-11 -6.288354290E-12
    7        5.565103896E-01  1.226204910E-11 -9.130990727E-01 -2.733108812E-11
    8       -3.567134836E-11 -6.288354290E-12 -2.733108812E-11 -9.327441310E-02
    9       -7.463117145E-10  1.542412536E-12  5.384023079E-11 -3.406582286E-02
   10        6.058277524E-10 -6.925860339E-12 -5.267776729E-10 -4.159004612E-11

  STATE          9               10

    1        2.264111323E-10 -3.050156110E-10
    2       -2.950598761E-01  7.551033739E-12
    3        1.337448676E-12 -4.013062834E-01
    4       -4.994772771E-12  1.561922056E+00
    5       -7.463117145E-10  6.058277524E-10
    6        1.542412536E-12 -6.925860339E-12
    7        5.384023079E-11 -5.267776729E-10
    8       -3.406582286E-02 -4.159004612E-11
    9       -9.087790947E-01  1.435603434E-12
   10        1.435603434E-12  6.996749505E-01

 PROPERTY: MLTPL  1   COMPONENT:   3
 ORIGIN:   0.000000000E+00  0.000000000E+00  0.000000000E+00

  STATE          1                2                3                4

    1       -8.881784197E-16  0.000000000E+00  0.000000000E+00  0.000000000E+00
    2        0.000000000E+00 -8.881784197E-16  0.000000000E+00  0.000000000E+00
    3        0.000000000E+00  0.000000000E+00 -8.881784197E-16  0.000000000E+00
    4        0.000000000E+00  0.000000000E+00  0.000000000E+00 -8.881784197E-16
    5        0.000000000E+00  0.000000000E+00  0.000000000E+00  0.000000000E+00
    6        0.000000000E+00  0.000000000E+00  0.000000000E+00  0.000000000E+00
    7        0.000000000E+00  0.000000000E+00  0.000000000E+00  0.000000000E+00
    8        0.000000000E+00  0.000000000E+00  0.000000000E+00  0.000000000E+00
    9        0.000000000E+00  0.000000000E+00  0.000000000E+00  0.000000000E+00
   10        0.000000000E+00  0.000000000E+00  0.000000000E+00  0.000000000E+00

  STATE          5                6                7                8

    1        0.000000000E+00  0.000000000E+00  0.000000000E+00  0.000000000E+00
    2        0.000000000E+00  0.000000000E+00  0.000000000E+00  0.000000000E+00
    3        0.000000000E+00  0.000000000E+00  0.000000000E+00  0.000000000E+00
    4        0.000000000E+00  0.000000000E+00  0.000000000E+00  0.000000000E+00
    5       -8.881784197E-16  0.000000000E+00  0.000000000E+00  0.000000000E+00
    6        0.000000000E+00 -8.881784197E-16  0.000000000E+00  0.000000000E+00
    7        0.000000000E+00  0.000000000E+00 -8.881784197E-16  0.000000000E+00
    8        0.000000000E+00  0.000000000E+00  0.000000000E+00 -8.881784197E-16
    9        0.000000000E+00  0.000000000E+00  0.000000000E+00  0.000000000E+00
   10        0.000000000E+00  0.000000000E+00  0.000000000E+00  0.000000000E+00

  STATE          9               10

    1        0.000000000E+00  0.000000000E+00
    2        0.000000000E+00  0.000000000E+00
    3        0.000000000E+00  0.000000000E+00
    4        0.000000000E+00  0.000000000E+00
    5        0.000000000E+00  0.000000000E+00
    6        0.000000000E+00  0.000000000E+00
    7        0.000000000E+00  0.000000000E+00
    8        0.000000000E+00  0.000000000E+00
    9       -8.881784197E-16  0.000000000E+00
   10        0.000000000E+00 -8.881784197E-16

 PROPERTY: MLTPL  2   COMPONENT:   1
 ORIGIN:  -7.354671824E-18  0.000000000E+00  1.394641827E-01

  STATE          1                2                3                4

    1       -8.953023396E+00  1.389017238E-11  4.622977030E-11  9.004265807E-12
    2        1.389017238E-11 -1.056593097E+01 -7.713932760E-12 -1.880059899E-11
    3        4.622977030E-11 -7.713932760E-12 -1.869573481E+01 -1.400107334E+00
    4        9.004265807E-12 -1.880059899E-11 -1.400107334E+00 -1.547391666E+01
    5       -1.134060646E-01 -3.078513953E-13  5.454984137E-11 -1.316377856E-10
    6       -4.026072394E-11  2.557238499E-12 -1.102551995E-11  1.170567871E-11
    7        3.618301177E-01 -5.205979275E-11 -1.442714571E-09 -6.287339968E-11
    8       -2.991463451E-11 -2.995333511E+00 -3.991055110E-11 -7.081468614E-12
    9       -6.757187152E-11 -8.146462056E-02  9.785081996E-12  9.818804118E-12
   10        1.210633115E-11  1.984965424E-11  5.441783383E+00  2.883249488E-01

  STATE          5                6                7                8

    1       -1.134060646E-01 -4.026072394E-11  3.618301177E-01 -2.991463451E-11
    2       -3.078513953E-13  2.557238499E-12 -5.205979275E-11 -2.995333511E+00
    3        5.454984137E-11 -1.102551995E-11 -1.442714571E-09 -3.991055110E-11
    4       -1.316377856E-10  1.170567871E-11 -6.287339968E-11 -7.081468614E-12
    5       -1.619805842E+01 -6.873772069E-11  9.685758739E-01  1.699030726E-10
    6       -6.873772069E-11 -1.095100265E+01  1.478729474E-10  1.656178082E-11
    7        9.685758739E-01  1.478729474E-10 -1.213027054E+01  4.542179854E-10
    8        1.699030726E-10  1.656178082E-11  4.542179854E-10 -3.164633836E+01
    9        6.236043258E-10 -3.537313227E-12  3.070730327E-10  1.895527127E+00
   10       -6.987737397E-10 -2.363622389E-13  1.472296160E-09  1.162163440E-10

  STATE          9               10

    1       -6.757187152E-11  1.210633115E-11
    2       -8.146462056E-02  1.984965424E-11
    3        9.785081996E-12  5.441783383E+00
    4        9.818804118E-12  2.883249488E-01
    5        6.236043258E-10 -6.987737397E-10
    6       -3.537313227E-12 -2.363622389E-13
    7        3.070730327E-10  1.472296160E-09
    8        1.895527127E+00  1.162163440E-10
    9       -1.166632298E+01  1.916606244E-11
   10        1.916606244E-11 -1.844268274E+01

 PROPERTY: MLTPL  2   COMPONENT:   2
 ORIGIN:  -7.354671824E-18  0.000000000E+00  1.394641827E-01

  STATE          1                2                3                4

    1       -1.851859696E-11  6.292181818E-01 -5.979027885E-12 -1.796184436E-12
    2        6.292181818E-01 -1.557987652E-11 -3.679365425E-12  6.224705375E-11
    3       -5.979027885E-12 -3.679365425E-12 -1.745395545E-11  1.974816615E-11
    4       -1.796184436E-12  6.224705375E-11  1.974816615E-11  7.038610982E-13
    5       -1.984503277E-11  1.161435730E+00 -3.060530664E-11 -1.790407649E-12
    6        1.524893700E-12  2.269278744E-11  3.894515723E-03 -4.055280761E-02
    7        1.391980723E-10  1.173761219E-02  8.892844179E-12 -5.026574559E-12
    8        1.241994019E-01  4.392454537E-11  2.605517801E-12  4.245514646E-10
    9        7.034325385E-01  7.383038735E-12 -1.063383637E-11 -3.873159117E-11
   10       -8.468897290E-13 -1.982902485E-11  7.647882417E-13  8.657859080E-12

  STATE          5                6                7                8

    1       -1.984503277E-11  1.524893700E-12  1.391980723E-10  1.241994019E-01
    2        1.161435730E+00  2.269278744E-11  1.173761219E-02  4.392454537E-11
    3       -3.060530664E-11  3.894515723E-03  8.892844179E-12  2.605517801E-12
    4       -1.790407649E-12 -4.055280761E-02 -5.026574559E-12  4.245514646E-10
    5       -1.009892118E-10 -7.095492123E-12 -1.193765963E-10  7.266960266E+00
    6       -7.095492123E-12 -4.384380799E-15 -4.684139511E-11  4.249279471E-11
    7       -1.193765963E-10 -4.684139511E-11 -7.274076677E-11 -1.370772476E+00
    8        7.266960266E+00  4.249279471E-11 -1.370772476E+00  6.730159584E-11
    9       -6.469341716E-01  9.461381104E-12  9.519840014E-02  3.736165186E-10
   10       -3.923499116E-11  4.548570222E-02  3.378035023E-12 -3.539820253E-10

  STATE          9               10

    1        7.034325385E-01 -8.468897290E-13
    2        7.383038735E-12 -1.982902485E-11
    3       -1.063383637E-11  7.647882417E-13
    4       -3.873159117E-11  8.657859080E-12
    5       -6.469341716E-01 -3.923499116E-11
    6        9.461381104E-12  4.548570222E-02
    7        9.519840014E-02  3.378035023E-12
    8        3.736165186E-10 -3.539820253E-10
    9       -9.200757103E-11  2.987754319E-11
   10        2.987754319E-11  7.023756107E-12

 PROPERTY: MLTPL  2   COMPONENT:   3
 ORIGIN:  -7.354671824E-18  0.000000000E+00  1.394641827E-01

  STATE          1                2                3                4

    1       -2.828640293E-12  5.124139513E-12  7.717347589E-12 -7.885029238E-12
    2        5.124139513E-12  4.144930662E-12 -1.738296532E+00  5.242095995E-01
    3        7.717347589E-12 -1.738296532E+00  4.305796462E-12  9.043068913E-12
    4       -7.885029238E-12  5.242095995E-01  9.043068913E-12  6.239729530E-12
    5        2.390109068E-11 -2.526393157E-11  7.973449261E-11 -3.301818424E-11
    6       -1.529967046E+00 -1.253413738E-11  1.942614152E-11  1.463973190E-12
    7       -1.645865167E-10 -8.818836801E-11  7.246148174E-11 -6.919248062E-11
    8        1.249194767E-11  3.133637918E-11 -5.121425080E+00  5.643974127E+00
    9        1.851156955E-11  1.603464227E-12  2.486835057E-01 -4.694002409E-01
   10       -1.268223106E-11  3.609408347E-01  5.507452409E-11  1.564090866E-13

  STATE          5                6                7                8

    1        2.390109068E-11 -1.529967046E+00 -1.645865167E-10  1.249194767E-11
    2       -2.526393157E-11 -1.253413738E-11 -8.818836801E-11  3.133637918E-11
    3        7.973449261E-11  1.942614152E-11  7.246148174E-11 -5.121425080E+00
    4       -3.301818424E-11  1.463973190E-12 -6.919248062E-11  5.643974127E+00
    5        4.522037465E-11  2.742289306E-02 -2.253321699E-11 -3.407258040E-10
    6        2.742289306E-02  9.574946655E-11 -3.382271005E-01 -1.859863269E-11
    7       -2.253321699E-11 -3.382271005E-01 -3.831109986E-12 -4.573361169E-10
    8       -3.407258040E-10 -1.859863269E-11 -4.573361169E-10 -7.782976348E-12
    9        2.726785548E-11  4.835095255E-11  3.824014477E-11  5.699055903E-13
   10       -3.945755700E-11 -8.652235480E-11  4.564243984E-11  1.543755725E+00

  STATE          9               10

    1        1.851156955E-11 -1.268223106E-11
    2        1.603464227E-12  3.609408347E-01
    3        2.486835057E-01  5.507452409E-11
    4       -4.694002409E-01  1.564090866E-13
    5        2.726785548E-11 -3.945755700E-11
    6        4.835095255E-11 -8.652235480E-11
    7        3.824014477E-11  4.564243984E-11
    8        5.699055903E-13  1.543755725E+00
    9        5.534827707E-12 -1.166574157E-01
   10       -1.166574157E-01 -7.528728377E-11

 PROPERTY: MLTPL  2   COMPONENT:   4
 ORIGIN:  -7.354671824E-18  0.000000000E+00  1.394641827E-01

  STATE          1                2                3                4

    1       -8.699460355E+00  3.630367428E-11  2.272955478E-11 -5.267622055E-11
    2        3.630367428E-11 -7.780125788E+00 -1.326575647E-11 -1.706506954E-11
    3        2.272955478E-11 -1.326575647E-11 -2.214583254E+01 -1.632803881E+00
    4       -5.267622055E-11 -1.706506954E-11 -1.632803881E+00 -1.449840272E+01
    5       -1.095084874E+00 -5.752371607E-11  2.938748018E-10 -1.222799696E-09
    6       -1.219805026E-10  4.003773034E-12  1.019665818E-11  8.725782164E-12
    7        2.432391786E-02  1.005163535E-10 -1.627664848E-09 -3.372551720E-12
    8       -1.502353664E-11 -7.320448647E-01 -1.253122248E-10 -1.151291580E-11
    9        1.148208972E-10  3.194294903E-01 -2.259979195E-11  3.954040056E-12
   10       -1.003958604E-10  1.416530115E-11  6.623928221E+00  4.304051070E-01

  STATE          5                6                7                8

    1       -1.095084874E+00 -1.219805026E-10  2.432391786E-02 -1.502353664E-11
    2       -5.752371607E-11  4.003773034E-12  1.005163535E-10 -7.320448647E-01
    3        2.938748018E-10  1.019665818E-11 -1.627664848E-09 -1.253122248E-10
    4       -1.222799696E-09  8.725782164E-12 -3.372551720E-12 -1.151291580E-11
    5       -3.377578733E+01 -2.659783399E-10  2.250396633E+00  1.365149765E-10
    6       -2.659783399E-10 -8.768948667E+00  7.593692730E-11  7.639883563E-12
    7        2.250396633E+00  7.593692730E-11 -1.097139014E+01  1.677098134E-10
    8        1.365149765E-10  7.639883563E-12  1.677098134E-10 -1.388236529E+01
    9        2.986824922E-09 -7.555709883E-14  1.158677159E-09  6.225790387E-01
   10       -3.187221208E-09 -6.409305003E-12  3.839128207E-09  1.693415929E-10

  STATE          9               10

    1        1.148208972E-10 -1.003958604E-10
    2        3.194294903E-01  1.416530115E-11
    3       -2.259979195E-11  6.623928221E+00
    4        3.954040056E-12  4.304051070E-01
    5        2.986824922E-09 -3.187221208E-09
    6       -7.555709883E-14 -6.409305003E-12
    7        1.158677159E-09  3.839128207E-09
    8        6.225790387E-01  1.693415929E-10
    9       -7.494587516E+00  3.891383789E-11
   10        3.891383789E-11 -2.813938584E+01

 PROPERTY: MLTPL  2   COMPONENT:   5
 ORIGIN:  -7.354671824E-18  0.000000000E+00  1.394641827E-01

  STATE          1                2                3                4

    1        2.171840239E-11 -4.167591696E-12  1.997775541E+00 -4.143320724E-01
    2       -4.167591696E-12  6.867185089E-12 -1.113740349E-10 -6.572765420E-12
    3        1.997775541E+00 -1.113740349E-10 -2.201828277E-10  5.694582914E-10
    4       -4.143320724E-01 -6.572765420E-12  5.694582914E-10 -8.251123557E-10
    5        1.352392578E-11 -1.574588288E-11  8.773039141E+00 -7.027431829E+00
    6        4.451091519E-12 -1.085492593E+00  3.348734196E-10  9.198198435E-12
    7       -2.713311966E-10 -9.805185299E-11  1.229015839E+00  1.067641673E-01
    8       -5.696068570E-12  8.071027458E-12 -7.902303753E-11  7.674483571E-12
    9       -2.242250630E-12 -1.705698772E-12 -2.822457901E-09  4.574873042E-10
   10        1.113795425E+00  1.675302448E-12  2.799559913E-09 -7.899125166E-10

  STATE          5                6                7                8

    1        1.352392578E-11  4.451091519E-12 -2.713311966E-10 -5.696068570E-12
    2       -1.574588288E-11 -1.085492593E+00 -9.805185299E-11  8.071027458E-12
    3        8.773039141E+00  3.348734196E-10  1.229015839E+00 -7.902303753E-11
    4       -7.027431829E+00  9.198198435E-12  1.067641673E-01  7.674483571E-12
    5        6.532538541E-10  2.430994105E-11  1.004943856E-09  4.730310896E-11
    6        2.430994105E-11 -2.214386864E-12 -1.655760939E-10 -1.083392577E-01
    7        1.004943856E-09 -1.655760939E-10 -2.414166619E-10 -1.660836927E-11
    8        4.730310896E-11 -1.083392577E-01 -1.660836927E-11  7.364188330E-12
    9        2.951924765E-11 -8.667129860E-01 -7.611366003E-11 -5.584493740E-12
   10       -4.267297401E+00 -2.764905320E-10  2.856241684E-01  2.581895542E-10

  STATE          9               10

    1       -2.242250630E-12  1.113795425E+00
    2       -1.705698772E-12  1.675302448E-12
    3       -2.822457901E-09  2.799559913E-09
    4        4.574873042E-10 -7.899125166E-10
    5        2.951924765E-11 -4.267297401E+00
    6       -8.667129860E-01 -2.764905320E-10
    7       -7.611366003E-11  2.856241684E-01
    8       -5.584493740E-12  2.581895542E-10
    9        3.545458486E-12  4.414770877E-09
   10        4.414770877E-09 -8.590032191E-09

 PROPERTY: MLTPL  2   COMPONENT:   6
 ORIGIN:  -7.354671824E-18  0.000000000E+00  1.394641827E-01

  STATE          1                2                3                4

    1       -8.753328327E+00  4.462520722E-11  3.265369649E-11 -8.109285814E-11
    2        4.462520722E-11 -9.073120458E+00  2.900073400E-11 -3.428753189E-11
    3        3.265369649E-11  2.900073400E-11 -2.151095436E+01  9.935534494E+00
    4       -8.109285814E-11 -3.428753189E-11  9.935534494E+00 -2.416636204E+01
    5       -1.186427885E+00  5.381136679E-11 -1.349750960E-10  2.156287954E-10
    6       -9.789693568E-11  7.016576851E-12 -1.478282246E-11  4.329616254E-11
    7       -4.166923427E-01  1.506034833E-10 -2.319035264E-09  8.183437395E-10
    8       -1.604914180E-11 -8.336929295E-01  2.765739059E-11  3.578507589E-11
    9        2.418362643E-10  7.258267348E-01 -3.373394416E-11 -8.553200656E-12
   10       -2.012156391E-10 -1.761417021E-11  1.011807993E+01 -3.180084127E+00

  STATE          5                6                7                8

    1       -1.186427885E+00 -9.789693568E-11 -4.166923427E-01 -1.604914180E-11
    2        5.381136679E-11  7.016576851E-12  1.506034833E-10 -8.336929295E-01
    3       -1.349750960E-10 -1.478282246E-11 -2.319035264E-09  2.765739059E-11
    4        2.156287954E-10  4.329616254E-11  8.183437395E-10  3.578507589E-11
    5       -2.004632529E+01 -1.989462517E-10 -1.191002092E+00  1.812401934E-10
    6       -1.989462517E-10 -7.931221780E+00  4.162795061E-10  1.208205648E-11
    7       -1.191002092E+00  4.162795061E-10 -1.275912370E+01  1.279334390E-10
    8        1.812401934E-10  1.208205648E-11  1.279334390E-10 -1.433267593E+01
    9        3.619598262E-09 -9.561663428E-12  7.478598871E-10  4.635065616E-01
   10       -3.743927748E-09  6.896245523E-12  3.136658156E-09  6.593032923E-11

  STATE          9               10

    1        2.418362643E-10 -2.012156391E-10
    2        7.258267348E-01 -1.761417021E-11
    3       -3.373394416E-11  1.011807993E+01
    4       -8.553200656E-12 -3.180084127E+00
    5        3.619598262E-09 -3.743927748E-09
    6       -9.561663428E-12  6.896245523E-12
    7        7.478598871E-10  3.136658156E-09
    8        4.635065616E-01  6.593032923E-11
    9       -9.118455906E+00  5.909171556E-11
   10        5.909171556E-11 -2.614253748E+01

 PROPERTY: VELOCITY   COMPONENT:   1
 ORIGIN:   0.000000000E+00  0.000000000E+00  0.000000000E+00

  STATE          1                2                3                4

    1       -7.277021151E-20  8.429370266E-14  1.072177986E-12 -1.057372580E-12
    2       -8.429370266E-14 -5.660915683E-20 -5.018414874E-02  2.177600214E-02
    3       -1.072177986E-12  5.018414874E-02  1.034085155E-19  9.285821876E-14
    4        1.057372580E-12 -2.177600214E-02 -9.285820928E-14 -1.468840506E-19
    5       -3.415512612E-12  3.726873222E-12 -1.035488393E-12  5.547383819E-13
    6        1.059244218E-01  5.769819153E-13 -3.324240264E-13  3.615710704E-13
    7        1.031745443E-11  4.530282999E-13 -3.879013438E-12  9.207318777E-13
    8       -7.720926636E-13 -7.143541192E-13  1.302958627E-01  3.367961667E-02
    9        3.290419828E-12 -4.078428874E-13 -1.855016786E-02  1.160386041E-03
   10        4.906033505E-12  8.565431772E-03 -6.079028570E-13  9.317969273E-13

  STATE          5                6                7                8

    1        3.415512611E-12 -1.059244218E-01 -1.031745448E-11  7.720926636E-13
    2       -3.726873222E-12 -5.769819153E-13 -4.530282999E-13  7.143541198E-13
    3        1.035488393E-12  3.324240264E-13  3.879013438E-12 -1.302958627E-01
    4       -5.547383819E-13 -3.615710704E-13 -9.207318777E-13 -3.367961667E-02
    5        1.045148324E-19 -1.296674797E-03 -2.256532711E-13  9.450193394E-13
    6        1.296674797E-03  1.147990607E-19  2.874760169E-02 -2.609115834E-13
    7        2.256532746E-13 -2.874760169E-02  8.229708691E-20  2.310345387E-11
    8       -9.450193394E-13  2.609115834E-13 -2.310345387E-11 -1.092890007E-19
    9       -4.585828208E-13  4.107021518E-12  1.764975960E-12  3.593146422E-13
   10        6.533770583E-13 -6.167238403E-12  1.607784757E-12 -9.835010783E-02

  STATE          9               10

    1       -3.290419828E-12 -4.906033505E-12
    2        4.078428491E-13 -8.565431772E-03
    3        1.855016786E-02  6.079028486E-13
    4       -1.160386041E-03 -9.317969290E-13
    5        4.585828208E-13 -6.533770583E-13
    6       -4.107021518E-12  6.167238403E-12
    7       -1.764975960E-12 -1.607784757E-12
    8       -3.593146489E-13  9.835010783E-02
    9        1.204646371E-19 -8.169367039E-03
   10        8.169367039E-03  1.709039829E-19

 PROPERTY: VELOCITY   COMPONENT:   2
 ORIGIN:   0.000000000E+00  0.000000000E+00  0.000000000E+00

  STATE          1                2                3                4

    1       -1.695430400E-18  8.891885896E-13  9.077860726E-02 -1.343170707E-01
    2       -8.891885896E-13 -9.643073112E-17 -3.463575227E-14 -2.036678176E-12
    3       -9.077860726E-02  3.463575227E-14  8.012952838E-17  5.941584605E-12
    4        1.343170707E-01  2.036678176E-12 -5.941583990E-12  6.142485663E-17
    5       -1.107435999E-11  9.201139630E-13 -1.217293572E-01  7.401316296E-03
    6        9.106402690E-16  7.046316242E-02 -1.847906304E-12  1.045042866E-11
    7        3.266628877E-11  6.390663519E-12  7.660887535E-03 -5.924659852E-03
    8       -1.719099417E-12 -6.545458070E-13  8.672441799E-13 -1.373039381E-12
    9        3.858972080E-13 -1.834130546E-13  1.926076459E-11 -3.635818916E-11
   10       -1.470550160E-01 -8.806311936E-14 -1.725977673E-11  3.824156562E-11

  STATE          5                6                7                8

    1        1.107436424E-11 -9.106402690E-16 -3.266631952E-11  1.719099417E-12
    2       -9.201139630E-13 -7.046316242E-02 -6.390663519E-12  6.545456624E-13
    3        1.217293572E-01  1.847906304E-12 -7.660887535E-03 -8.672441799E-13
    4       -7.401316296E-03 -1.045042866E-11  5.924659852E-03  1.373039381E-12
    5       -4.225053079E-17  1.959924234E-13  4.092325941E-11  1.221685847E-12
    6       -1.959924234E-13 -1.506155119E-16  4.425257560E-12  2.660254964E-03
    7       -4.092328750E-11 -4.425257560E-12  1.015678846E-16 -2.632882535E-14
    8       -1.221685847E-12 -2.660254964E-03  2.632882535E-14 -4.741081493E-17
    9        1.595637291E-13 -2.220394041E-02 -2.370256794E-12  1.271873878E-13
   10        1.661317012E-01  8.457875842E-13 -1.526998544E-02  3.725192503E-12

  STATE          9               10

    1       -3.858972080E-13  1.470550160E-01
    2        1.834167526E-13  8.806311936E-14
    3       -1.926076459E-11  1.725981432E-11
    4        3.635818916E-11 -3.824156354E-11
    5       -1.595637291E-13 -1.661317012E-01
    6        2.220394041E-02 -8.457875842E-13
    7        2.370256794E-12  1.526998544E-02
    8       -1.271854517E-13 -3.725192503E-12
    9       -1.135019011E-16 -4.499026167E-11
   10        4.499026167E-11 -2.212710194E-16

 PROPERTY: VELOCITY   COMPONENT:   3
 ORIGIN:   0.000000000E+00  0.000000000E+00  0.000000000E+00

  STATE          1                2                3                4

    1       -6.938893904E-17  3.712295147E-12 -1.102378952E-12 -7.455006342E-12
    2       -3.712295147E-12  2.204318542E-17 -5.901280435E-13  1.208012734E-13
    3        1.102378952E-12  5.901280435E-13  7.329206686E-17  6.767335207E-02
    4        7.455006342E-12 -1.208012734E-13 -6.767335207E-02  3.447762909E-17
    5        1.413704005E-01  2.499931894E-12  3.352952171E-12  4.945580477E-12
    6        4.753897034E-11  8.764910372E-13  3.011891765E-13  5.697285631E-14
    7       -3.748455716E-01 -7.858555252E-12  1.001149639E-11 -3.608785751E-11
    8        1.814166673E-12  2.891658124E-02  4.893640540E-14  1.063909092E-12
    9        7.818736114E-11 -3.922693945E-02  3.431673213E-13 -6.890021913E-13
   10       -1.100048574E-10 -8.912147510E-14 -4.503534820E-02  1.629208016E-01

  STATE          5                6                7                8

    1       -1.413704005E-01 -4.753897034E-11  3.748455716E-01 -1.814166673E-12
    2       -2.499931894E-12 -8.764910372E-13  7.858555252E-12 -2.891658124E-02
    3       -3.352952171E-12 -3.011891765E-13 -1.001149639E-11 -4.893640540E-14
    4       -4.945580477E-12 -5.697285631E-14  3.608785751E-11 -1.063909092E-12
    5        7.524363077E-17 -5.920369486E-12  3.771503196E-03  1.120157248E-12
    6        5.920369486E-12  6.656315363E-17 -1.172261635E-15 -4.021350866E-13
    7       -3.771503196E-03  1.172261635E-15 -4.163336342E-17 -2.787046236E-12
    8       -1.120157248E-12  4.021350866E-13  2.787046236E-12 -7.753400786E-17
    9       -3.877792747E-11 -4.851653873E-13  3.099997608E-12 -8.815763230E-03
   10        2.640280422E-11  2.435683128E-13 -1.795645008E-12 -4.375463526E-13

  STATE          9               10

    1       -7.818736114E-11  1.100048574E-10
    2        3.922693945E-02  8.912147510E-14
    3       -3.431673213E-13  4.503534820E-02
    4        6.890021913E-13 -1.629208016E-01
    5        3.877792747E-11 -2.640280422E-11
    6        4.851653873E-13 -2.435683128E-13
    7       -3.099997608E-12  1.795645008E-12
    8        8.815763230E-03  4.375463526E-13
    9       -1.664250335E-17 -8.564292101E-14
   10        8.564292101E-14 -3.838075691E-16

 PROPERTY: ANGMOM     COMPONENT:   1
 ORIGIN:   0.000000000E+00  0.000000000E+00  0.000000000E+00

  STATE          1                2                3                4

    1        7.033223533E-17 -3.837129789E-13 -4.543560696E-01 -6.076288738E-01
    2        3.837129789E-13  1.999839051E-16  2.477756454E-12  1.695277993E-12
    3        4.543560696E-01 -2.477756454E-12 -1.129253530E-16 -1.772544155E-11
    4        6.076288738E-01 -1.695277993E-12  1.772544849E-11 -2.926763846E-16
    5       -2.898639092E-11 -1.671384046E-13  3.228829557E-01 -8.840426306E-01
    6        5.813977637E-12 -7.903532105E-01  3.719538303E-13 -9.650506353E-12
    7       -1.680849362E-10 -7.299450466E-11 -1.282069364E-01 -8.088996297E-02
    8        4.991370166E-12  3.077736237E-12  2.814927808E-12 -7.790539027E-12
    9        1.110495948E-12  5.081307238E-12  5.999211336E-11  1.942888324E-12
   10        7.135900819E-01 -1.457392985E-11 -6.204281613E-11 -4.072557421E-12

  STATE          5                6                7                8

    1        2.898637826E-11 -5.813977637E-12  1.680850271E-10 -4.991370166E-12
    2        1.671384046E-13  7.903532105E-01  7.299450466E-11 -3.077735988E-12
    3       -3.228829557E-01 -3.719538303E-13  1.282069364E-01 -2.814927808E-12
    4        8.840426306E-01  9.650506353E-12  8.088996297E-02  7.790539027E-12
    5        1.933422944E-16 -5.025467883E-12 -2.955850426E-11 -1.029719372E-12
    6        5.025467883E-12  1.822968282E-16 -6.982921799E-11 -4.833040474E-02
    7        2.955858790E-11  6.982921799E-11 -2.349370574E-16 -8.124382326E-12
    8        1.029719372E-12  4.833040474E-02  8.124382326E-12 -8.145786657E-17
    9       -3.425100959E-13  3.582580240E-01  3.407360091E-11 -7.304794993E-13
   10       -1.386291501E-01  1.147682455E-11  3.001774349E-01 -6.220881488E-12

  STATE          9               10

    1       -1.110495948E-12 -7.135900819E-01
    2       -5.081288734E-12  1.457392985E-11
    3       -5.999211336E-11  6.204275265E-11
    4       -1.942888324E-12  4.072552875E-12
    5        3.425100959E-13  1.386291501E-01
    6       -3.582580240E-01 -1.147682455E-11
    7       -3.407360091E-11 -3.001774349E-01
    8        7.304737854E-13  6.220881488E-12
    9        1.145210114E-16  2.051328817E-10
   10       -2.051328817E-10  3.963656740E-16

 PROPERTY: ANGMOM     COMPONENT:   2
 ORIGIN:   0.000000000E+00  0.000000000E+00  0.000000000E+00

  STATE          1                2                3                4

    1       -8.521145504E-20 -3.043100695E-13  3.607059075E-12 -2.641930382E-12
    2        3.043100695E-13 -1.161376548E-19 -2.068433268E-01 -5.471529712E-01
    3       -3.607059075E-12  2.068433268E-01  2.089835765E-19 -2.414233577E-14
    4        2.641930382E-12  5.471529712E-01  2.414235643E-14 -3.367502393E-19
    5       -9.603778954E-12 -2.036140371E-11 -1.593669240E-12  5.773031774E-12
    6        1.570487786E+00  7.223773594E-12 -2.978988997E-13  1.415368201E-12
    7        1.450006381E-10 -2.362275604E-11 -6.359854473E-12  6.182393523E-12
    8        5.117141863E-13 -4.992791190E-13  3.822675736E-01 -8.016623081E-01
    9       -8.777343259E-12 -1.370088788E-12 -4.047164225E-02  4.603143315E-02
   10        3.954887470E-12  1.496867085E-01 -4.999649516E-13  2.374985203E-12

  STATE          5                6                7                8

    1        9.603778952E-12 -1.570487786E+00 -1.450006382E-10 -5.117141863E-13
    2        2.036140371E-11 -7.223773594E-12  2.362275604E-11  4.992791203E-13
    3        1.593669240E-12  2.978988997E-13  6.359854473E-12 -3.822675736E-01
    4       -5.773031774E-12 -1.415368201E-12 -6.182393523E-12  8.016623081E-01
    5        2.066602653E-19  5.069432271E-03 -5.012515347E-13 -5.167839663E-11
    6       -5.069432271E-03  2.266225924E-19  1.884102527E-01 -2.101948182E-12
    7        5.012515389E-13 -1.884102527E-01  1.778687958E-19  3.925678067E-11
    8        5.167839663E-11  2.101948182E-12 -3.925678067E-11 -2.257770501E-19
    9       -5.333427449E-12  2.694952687E-11 -1.044180220E-11  5.031319203E-13
   10       -1.946794744E-12 -4.027113550E-11 -7.532653196E-12 -1.959693887E-01

  STATE          9               10

    1        8.777343259E-12 -3.954887470E-12
    2        1.370088715E-12 -1.496867085E-01
    3        4.047164225E-02  4.999649347E-13
    4       -4.603143315E-02 -2.374985207E-12
    5        5.333427449E-12  1.946794744E-12
    6       -2.694952687E-11  4.027113550E-11
    7        1.044180220E-11  7.532653196E-12
    8       -5.031319335E-13  1.959693887E-01
    9        2.232891287E-19 -8.664199047E-03
   10        8.664199047E-03  3.447119404E-19

 PROPERTY: ANGMOM     COMPONENT:   3
 ORIGIN:   0.000000000E+00  0.000000000E+00  0.000000000E+00

  STATE          1                2                3                4

    1       -2.834647960E-18 -1.205483073E+00  2.166238142E-12  1.081436998E-12
    2        1.205483073E+00  2.540357352E-19 -1.543975777E-12  4.766592533E-12
    3       -2.166238142E-12  1.543975777E-12 -2.569147630E-18 -3.575934772E-12
    4       -1.081436998E-12 -4.766592533E-12  3.575934695E-12 -5.288906572E-19
    5       -1.445497403E-11 -1.478572504E-02  1.196525488E-11  1.504314585E-13
    6        3.396670007E-12 -4.785135034E-11 -3.046604371E-03  6.261756055E-03
    7        1.416074514E-10  5.628229586E-01 -8.312078661E-12  3.938774174E-12
    8        1.361714775E-02  4.076867330E-13  7.881841852E-12  5.177637256E-11
    9        7.451690730E-01 -6.651066069E-11 -6.257348937E-12 -8.395484645E-12
   10        2.236103869E-12  1.069578222E-10 -2.214851182E-11 -2.497650626E-12

  STATE          5                6                7                8

    1        1.445497390E-11 -3.396670007E-12 -1.416074505E-10 -1.361714775E-02
    2        1.478572504E-02  4.785135034E-11 -5.628229586E-01 -4.076867420E-13
    3       -1.196525488E-11  3.046604371E-03  8.312078661E-12 -7.881841852E-12
    4       -1.504314585E-13 -6.261756055E-03 -3.938774174E-12 -5.177637256E-11
    5       -1.439921165E-18  6.970831623E-12  3.098473963E-11 -9.232452896E-01
    6       -6.970831623E-12  2.885904953E-18  1.048594257E-12 -5.013711008E-13
    7       -3.098473876E-11 -1.048594257E-12 -5.885399445E-18  1.564554024E-01
    8        9.232452896E-01  5.013711008E-13 -1.564554024E-01  5.499818169E-19
    9       -1.083388664E-01 -6.578761129E-12  5.757175868E-02 -1.398710492E-10
   10       -2.306504954E-12 -1.919028858E-04 -3.098621616E-12  1.091598306E-10

  STATE          9               10

    1       -7.451690730E-01 -2.236103869E-12
    2        6.651066126E-11 -1.069578222E-10
    3        6.257348937E-12  2.214851176E-11
    4        8.395484645E-12  2.497650632E-12
    5        1.083388664E-01  2.306504954E-12
    6        6.578761129E-12  1.919028858E-04
    7       -5.757175868E-02  3.098621616E-12
    8        1.398710493E-10 -1.091598306E-10
    9       -2.421381680E-18  3.326948556E-11
   10       -3.326948556E-11 -2.056514292E-18

 PROPERTY: MLTPV  2   COMPONENT:   1
 ORIGIN:  -7.354671824E-18  0.000000000E+00  1.394641827E-01

  STATE          1                2                3                4

    1       -3.018418848E-16  8.933596323E-11 -1.144087012E-01 -3.611769194E-02
    2       -8.933596323E-11 -1.328147661E-16  1.299028392E-11  1.382656201E-11
    3        1.144087012E-01 -1.299028392E-11  8.326672685E-16  6.145449259E-01
    4        3.611769194E-02 -1.382656201E-11 -6.145449259E-01  2.081668171E-16
    5        6.424577583E-01 -1.444629663E-10 -1.809033094E+00 -2.313005536E-02
    6        3.512675198E-10  3.266694879E-02 -8.743432096E-11 -1.119414566E-11
    7       -8.526146576E-02 -7.893067934E-11 -9.252299331E-01 -1.249139014E-02
    8       -8.520777560E-11  5.054930913E-01  2.501215941E-10  3.313364063E-11
    9       -2.271633145E-09  8.055589934E-02  2.858504035E-09  5.004598567E-11
   10       -1.033948901E+00  4.344017795E-11 -5.573101817E+00 -2.131942815E+00

  STATE          5                6                7                8

    1       -6.424577583E-01 -3.512675198E-10  8.526146576E-02  8.520777560E-11
    2        1.444629663E-10 -3.266694879E-02  7.893067934E-11 -5.054930913E-01
    3        1.809033094E+00  8.743432096E-11  9.252299331E-01 -2.501215941E-10
    4        2.313005536E-02  1.119414566E-11  1.249139014E-02 -3.313364063E-11
    5        4.718447855E-16  2.591445514E-10  1.949212419E+00 -1.577522567E-10
    6       -2.591445514E-10  2.372995092E-16 -8.741991665E-11  1.357934755E-03
    7       -1.949212419E+00  8.741991665E-11 -3.608224830E-16  7.266621195E-11
    8        1.577522567E-10 -1.357934755E-03 -7.266621195E-11 -1.380189366E-16
    9        2.231715129E-09 -1.075386930E-01 -2.241424957E-09 -8.636906769E-02
   10       -7.362902202E+00 -4.332911634E-10 -5.736163611E+00  1.051683764E-09

  STATE          9               10

    1        2.271633145E-09  1.033948901E+00
    2       -8.055589934E-02 -4.344017795E-11
    3       -2.858504035E-09  5.573101817E+00
    4       -5.004598567E-11  2.131942815E+00
    5       -2.231715129E-09  7.362902202E+00
    6        1.075386930E-01  4.332911634E-10
    7        2.241424957E-09  5.736163611E+00
    8        8.636906769E-02 -1.051683764E-09
    9       -3.861928138E-16 -1.462849706E-08
   10        1.462849706E-08 -1.332267630E-14

 PROPERTY: MLTPV  2   COMPONENT:   2
 ORIGIN:  -7.354671824E-18  0.000000000E+00  1.394641827E-01

  STATE          1                2                3                4

    1       -1.476729439E-21  8.483377541E-02  2.113498477E-13 -8.531048412E-13
    2       -8.483377541E-02  2.761608290E-20  5.281792879E-13  7.368897581E-12
    3       -2.113498477E-13 -5.281792879E-13  2.646152701E-20 -2.270201406E-13
    4        8.531048412E-13 -7.368897581E-12  2.270201389E-13  7.108268158E-20
    5        8.617428149E-12 -1.401675658E-01 -1.526706598E-12 -1.692002281E-12
    6       -7.032915185E-13 -6.322988173E-12 -3.442691554E-04  5.418496704E-03
    7       -4.910529653E-11  1.345305716E-02  6.998296332E-13  1.043613021E-12
    8       -3.770020909E-02 -7.771265935E-13 -4.753118136E-12  4.523288233E-12
    9       -2.468566446E-01 -1.283244215E-11  1.649544105E-13 -2.012969762E-13
   10       -1.467698222E-12  1.361567555E-11 -5.175164365E-13  2.717275159E-12

  STATE          5                6                7                8

    1       -8.617428153E-12  7.032915185E-13  4.910529650E-11  3.770020909E-02
    2        1.401675658E-01  6.322988173E-12 -1.345305716E-02  7.771265936E-13
    3        1.526706598E-12  3.442691554E-04 -6.998296332E-13  4.753118136E-12
    4        1.692002281E-12 -5.418496704E-03 -1.043613021E-12 -4.523288233E-12
    5        2.014808772E-19 -4.861811523E-13 -3.096272188E-12 -4.677455118E-02
    6        4.861811523E-13  5.975244027E-20  2.708299943E-12 -7.873182904E-12
    7        3.096272211E-12 -2.708299943E-12  7.667314732E-20  5.341812491E-02
    8        4.677455118E-02  7.873182904E-12 -5.341812491E-02  3.565691116E-20
    9        9.552781575E-03  8.561574972E-13 -1.699356534E-03  1.098815199E-10
   10       -2.389300215E-12 -2.366844554E-04  9.715930688E-13 -1.075302316E-10

  STATE          9               10

    1        2.468566446E-01  1.467698222E-12
    2        1.283244214E-11 -1.361567555E-11
    3       -1.649544105E-13  5.175164432E-13
    4        2.012969762E-13 -2.717275159E-12
    5       -9.552781575E-03  2.389300215E-12
    6       -8.561574972E-13  2.366844554E-04
    7        1.699356534E-03 -9.715930688E-13
    8       -1.098815199E-10  1.075302316E-10
    9        7.246665683E-20 -1.204189760E-11
   10        1.204189760E-11 -2.708035120E-20

 PROPERTY: MLTPV  2   COMPONENT:   3
 ORIGIN:  -7.354671824E-18  0.000000000E+00  1.394641827E-01

  STATE          1                2                3                4

    1       -2.017618787E-19  7.177415853E-13  3.757105318E-12 -3.937985827E-12
    2       -7.177415853E-13  9.669784027E-20 -1.735005574E-01  1.024030536E-01
    3       -3.757105318E-12  1.735005574E-01  6.693420652E-20  6.481808770E-13
    4        3.937985827E-12 -1.024030536E-01 -6.481808731E-13 -3.518290839E-20
    5       -8.481688899E-12  3.683817156E-12 -4.292091998E-12 -1.396885294E-12
    6        5.512628580E-01  1.796019107E-12 -1.716991860E-12  2.896751336E-13
    7        5.539974150E-11  1.543666413E-11 -1.042990151E-11  2.945631843E-12
    8       -3.857064776E-13 -1.733202133E-12  1.910074961E-01 -1.962492007E-02
    9       -2.884898589E-12 -4.509044758E-13 -3.489600645E-02  2.598216740E-02
   10        6.627644360E-12 -6.859764510E-02 -4.339614192E-12 -3.936666162E-13

  STATE          5                6                7                8

    1        8.481688900E-12 -5.512628580E-01 -5.539974147E-11  3.857064776E-13
    2       -3.683817156E-12 -1.796019107E-12 -1.543666413E-11  1.733202132E-12
    3        4.292091998E-12  1.716991860E-12  1.042990151E-11 -1.910074961E-01
    4        1.396885294E-12 -2.896751336E-13 -2.945631843E-12  1.962492007E-02
    5       -3.103298560E-19 -4.855633216E-03 -2.875848567E-12 -1.025485538E-11
    6        4.855633216E-03 -5.009288207E-19  1.199582008E-01  1.472581356E-12
    7        2.875848567E-12 -1.199582008E-01 -3.061468213E-19  5.693904265E-11
    8        1.025485538E-11 -1.472581356E-12 -5.693904265E-11  2.808610177E-19
    9       -3.352187879E-12  2.159961911E-11 -1.441215524E-12  1.400606907E-12
   10        4.448262541E-12 -2.611314320E-11  5.817945987E-12 -2.374055768E-01

  STATE          9               10

    1        2.884898589E-12 -6.627644360E-12
    2        4.509045114E-13  6.859764510E-02
    3        3.489600645E-02  4.339614167E-12
    4       -2.598216740E-02  3.936666142E-13
    5        3.352187879E-12 -4.448262541E-12
    6       -2.159961911E-11  2.611314320E-11
    7        1.441215524E-12 -5.817945987E-12
    8       -1.400606897E-12  2.374055768E-01
    9       -6.766293699E-20 -3.453073334E-03
   10        3.453073334E-03  2.664718155E-19

 PROPERTY: MLTPV  2   COMPONENT:   4
 ORIGIN:  -7.354671824E-18  0.000000000E+00  1.394641827E-01

  STATE          1                2                3                4

    1       -4.926614672E-16  9.928150560E-11 -1.144087012E-01 -3.611769196E-02
    2       -9.928150560E-11 -1.229078688E-16  1.322182373E-11  1.326109349E-11
    3        1.144087012E-01 -1.322182373E-11  7.771561172E-16  6.018362628E-01
    4        3.611769196E-02 -1.326109349E-11 -6.018362628E-01  1.734723476E-16
    5        9.380068526E-01 -1.396510277E-10 -1.809033094E+00 -2.313005537E-02
    6        3.907426602E-10  3.266694879E-02 -8.815851044E-11 -1.077084933E-11
    7       -2.933087068E-02 -9.142753646E-11 -9.252299330E-01 -1.249139011E-02
    8       -9.519805329E-11  3.923311399E-02  2.552186459E-10  3.162322247E-11
    9       -2.349763758E-09 -1.306106939E-02  2.860296629E-09  5.023578012E-11
   10       -1.033948901E+00  4.525401305E-11 -6.099936646E+00 -2.250152429E+00

  STATE          5                6                7                8

    1       -9.380068526E-01 -3.907426602E-10  2.933087068E-02  9.519805329E-11
    2        1.396510277E-10 -3.266694879E-02  9.142753646E-11 -3.923311399E-02
    3        1.809033094E+00  8.815851044E-11  9.252299330E-01 -2.552186459E-10
    4        2.313005537E-02  1.077084933E-11  1.249139011E-02 -3.162322247E-11
    5        7.494005416E-16  2.457702569E-10  1.992065309E+00 -1.317119183E-10
    6       -2.457702569E-10  4.786956942E-16 -8.122766001E-11  1.357934757E-03
    7       -1.992065309E+00  8.122766001E-11 -2.498001805E-16  7.754780819E-11
    8        1.317119183E-10 -1.357934757E-03 -7.754780819E-11 -2.179246367E-16
    9        1.897617174E-09 -1.075386930E-01 -2.189471822E-09 -6.203020752E-02
   10       -7.362902202E+00 -4.332263481E-10 -5.736163611E+00  1.053918119E-09

  STATE          9               10

    1        2.349763758E-09  1.033948901E+00
    2        1.306106939E-02 -4.525401305E-11
    3       -2.860296629E-09  6.099936646E+00
    4       -5.023578012E-11  2.250152429E+00
    5       -1.897617174E-09  7.362902202E+00
    6        1.075386930E-01  4.332263481E-10
    7        2.189471822E-09  5.736163611E+00
    8        6.203020752E-02 -1.053918119E-09
    9       -3.197312207E-16 -1.462717371E-08
   10        1.462717371E-08 -1.670885652E-14

 PROPERTY: MLTPV  2   COMPONENT:   5
 ORIGIN:  -7.354671824E-18  0.000000000E+00  1.394641827E-01

  STATE          1                2                3                4

    1        1.065290906E-16  1.090878935E-12  4.739166233E-01 -9.861331189E-02
    2       -1.090878935E-12 -4.763625322E-17  8.159016941E-12  7.031125229E-12
    3       -4.739166233E-01 -8.159016941E-12  1.444307309E-16  1.518426210E-11
    4        9.861331189E-02 -7.031125229E-12 -1.518425970E-11  7.849274201E-17
    5       -4.639194981E-12 -1.984716726E-12 -3.329611825E-01  1.692008447E-01
    6       -1.132307999E-12  2.680506626E-01 -3.249316702E-11 -5.158419137E-12
    7        8.045539201E-11  2.548854232E-11 -6.966053780E-03  1.585850868E-02
    8       -5.370861049E-13 -2.550544148E-12  1.273476082E-11 -9.094386994E-12
    9       -1.383391080E-13 -8.215535820E-13  2.747302717E-10 -1.423925643E-10
   10       -3.358379720E-01 -1.257441168E-11 -2.543895726E-10  1.719399542E-10

  STATE          5                6                7                8

    1        4.639196824E-12  1.132307999E-12 -8.045538137E-11  5.370861049E-13
    2        1.984716726E-12 -2.680506626E-01 -2.548854232E-11  2.550543591E-12
    3        3.329611825E-01  3.249316702E-11  6.966053780E-03 -1.273476082E-11
    4       -1.692008447E-01  5.158419137E-12 -1.585850868E-02  9.094386994E-12
    5        1.673383597E-17  3.064577713E-12  1.027825704E-10  3.004792947E-12
    6       -3.064577713E-12 -3.159528344E-16  2.015989685E-11  1.533040536E-02
    7       -1.027825806E-10 -2.015989685E-11  7.092914851E-17  1.272750315E-12
    8       -3.004792947E-12 -1.533040536E-02 -1.272750315E-12 -1.789658761E-16
    9       -5.536024637E-13 -9.986887232E-02 -1.002581019E-11  6.711424647E-13
   10        4.174226146E-01  3.685996248E-11  5.871911511E-02  8.400317743E-12

  STATE          9               10

    1        1.383391080E-13  3.358379720E-01
    2        8.216082700E-13  1.257441168E-11
    3       -2.747302717E-10  2.543896097E-10
    4        1.423925643E-10 -1.719399523E-10
    5        5.536024637E-13 -4.174226146E-01
    6        9.986887232E-02 -3.685996248E-11
    7        1.002581019E-11 -5.871911511E-02
    8       -6.711388698E-13 -8.400317743E-12
[...]
    3  (  0.006966,  0.000000)   (  0.000000,  0.000000)
    4  ( -0.015859,  0.000000)   (  0.000000,  0.000000)
    5  (  0.000000,  0.000000)   (  0.000000,  0.000000)
    6  ( -0.000000,  0.000000)   ( -0.015330,  0.000000)
    7  ( -0.000000,  0.000000)   ( -0.099869,  0.000000)
    8  (  0.058719,  0.000000)   (  0.000000,  0.000000)
    9  (  0.000000,  0.000000)   ( -0.000000,  0.000000)
   10  (  0.000000,  0.000000)   ( -0.000000,  0.000000)

 PROPERTY: MLTPV  2   COMPONENT:   6

  STATE                1                                     2
    1  ( -0.000000,  0.000000)   (  0.000000,  0.000000)
    2  ( -0.000000,  0.000000)   (  0.000000,  0.000000)
    3  (  0.114409,  0.000000)   ( -0.000000,  0.000000)
    4  (  0.036118,  0.000000)   ( -0.000000,  0.000000)
    5  (  0.904038,  0.000000)   ( -0.000000,  0.000000)
    6  ( -0.000000,  0.000000)   (  0.092694,  0.000000)
    7  ( -0.000000,  0.000000)   ( -0.039862,  0.000000)
    8  ( -1.033949,  0.000000)   (  0.000000,  0.000000)
    9  (  0.254328,  0.000000)   ( -0.000000,  0.000000)
   10  (  0.000000,  0.000000)   (  0.032667,  0.000000)

  STATE                3                                     4
    1  ( -0.114409,  0.000000)   ( -0.036118,  0.000000)
    2  (  0.000000,  0.000000)   (  0.000000,  0.000000)
    3  (  0.000000,  0.000000)   (  0.762458,  0.000000)
    4  ( -0.762458,  0.000000)   ( -0.000000,  0.000000)
    5  ( -1.809033,  0.000000)   ( -0.023130,  0.000000)
    6  (  0.000000,  0.000000)   (  0.000000,  0.000000)
    7  (  0.000000,  0.000000)   (  0.000000,  0.000000)
    8  ( -5.922130,  0.000000)   ( -1.506947,  0.000000)
    9  ( -0.925230,  0.000000)   ( -0.012491,  0.000000)
   10  ( -0.000000,  0.000000)   ( -0.000000,  0.000000)

  STATE                5                                     6
    1  ( -0.904038,  0.000000)   (  0.000000,  0.000000)
    2  (  0.000000,  0.000000)   ( -0.092694,  0.000000)
    3  (  1.809033,  0.000000)   ( -0.000000,  0.000000)
    4  (  0.023130,  0.000000)   ( -0.000000,  0.000000)
    5  (  0.000000,  0.000000)   ( -0.000000,  0.000000)
    6  (  0.000000,  0.000000)   ( -0.000000,  0.000000)
    7  (  0.000000,  0.000000)   ( -0.072313,  0.000000)
    8  ( -7.362902,  0.000000)   (  0.000000,  0.000000)
    9  ( -1.927655,  0.000000)   (  0.000000,  0.000000)
   10  ( -0.000000,  0.000000)   (  0.001358,  0.000000)

  STATE                7                                     8
    1  (  0.000000,  0.000000)   (  1.033949,  0.000000)
    2  (  0.039862,  0.000000)   ( -0.000000,  0.000000)
    3  ( -0.000000,  0.000000)   (  5.922130,  0.000000)
    4  ( -0.000000,  0.000000)   (  1.506947,  0.000000)
    5  ( -0.000000,  0.000000)   (  7.362902,  0.000000)
    6  (  0.072313,  0.000000)   ( -0.000000,  0.000000)
    7  ( -0.000000,  0.000000)   ( -0.000000,  0.000000)
    8  (  0.000000,  0.000000)   ( -0.000000,  0.000000)
    9  (  0.000000,  0.000000)   (  5.736164,  0.000000)
   10  (  0.107539,  0.000000)   (  0.000000,  0.000000)

  STATE                9                                    10
    1  ( -0.254328,  0.000000)   ( -0.000000,  0.000000)
    2  (  0.000000,  0.000000)   ( -0.032667,  0.000000)
    3  (  0.925230,  0.000000)   (  0.000000,  0.000000)
    4  (  0.012491,  0.000000)   (  0.000000,  0.000000)
    5  (  1.927655,  0.000000)   (  0.000000,  0.000000)
    6  ( -0.000000,  0.000000)   ( -0.001358,  0.000000)
    7  ( -0.000000,  0.000000)   ( -0.107539,  0.000000)
    8  ( -5.736164,  0.000000)   ( -0.000000,  0.000000)
    9  ( -0.000000,  0.000000)   (  0.000000,  0.000000)
   10  ( -0.000000,  0.000000)   (  0.000000,  0.000000)

 PROPERTY: AMFI       COMPONENT:   1

  STATE                1                                     2
    1  (  0.000000,  0.000000)   (  0.000000,  0.000000)
    2  (  0.000000,  0.000000)   (  0.000000,  0.000000)
    3  (  0.000000,  0.000000)   (  0.000000,  0.000000)
    4  (  0.000000,  0.000000)   (  0.000000,  0.000000)
    5  (  0.000000,  0.000000)   (  0.000000,  0.000000)
    6  (  0.000000,  0.000000)   (  0.000000,  0.000000)
    7  (  0.000000,  0.000000)   (  0.000000,  0.000000)
    8  (  0.000000,  0.000000)   (  0.000000,  0.000000)
    9  (  0.000000,  0.000000)   (  0.000000,  0.000000)
   10  (  0.000000,  0.000000)   (  0.000000,  0.000000)

  STATE                3                                     4
    1  (  0.000000,  0.000000)   (  0.000000,  0.000000)
    2  (  0.000000,  0.000000)   (  0.000000,  0.000000)
    3  (  0.000000,  0.000000)   (  0.000000,  0.000000)
    4  (  0.000000,  0.000000)   (  0.000000,  0.000000)
    5  (  0.000000,  0.000000)   (  0.000000,  0.000000)
    6  (  0.000000,  0.000000)   (  0.000000,  0.000000)
    7  (  0.000000,  0.000000)   (  0.000000,  0.000000)
    8  (  0.000000,  0.000000)   (  0.000000,  0.000000)
    9  (  0.000000,  0.000000)   (  0.000000,  0.000000)
   10  (  0.000000,  0.000000)   (  0.000000,  0.000000)

  STATE                5                                     6
    1  (  0.000000,  0.000000)   (  0.000000,  0.000000)
    2  (  0.000000,  0.000000)   (  0.000000,  0.000000)
    3  (  0.000000,  0.000000)   (  0.000000,  0.000000)
    4  (  0.000000,  0.000000)   (  0.000000,  0.000000)
    5  (  0.000000,  0.000000)   (  0.000000,  0.000000)
    6  (  0.000000,  0.000000)   (  0.000000,  0.000000)
    7  (  0.000000,  0.000000)   (  0.000000,  0.000000)
    8  (  0.000000,  0.000000)   (  0.000000,  0.000000)
    9  (  0.000000,  0.000000)   (  0.000000,  0.000000)
   10  (  0.000000,  0.000000)   (  0.000000,  0.000000)

  STATE                7                                     8
    1  (  0.000000,  0.000000)   (  0.000000,  0.000000)
    2  (  0.000000,  0.000000)   (  0.000000,  0.000000)
    3  (  0.000000,  0.000000)   (  0.000000,  0.000000)
    4  (  0.000000,  0.000000)   (  0.000000,  0.000000)
    5  (  0.000000,  0.000000)   (  0.000000,  0.000000)
    6  (  0.000000,  0.000000)   (  0.000000,  0.000000)
    7  (  0.000000,  0.000000)   (  0.000000,  0.000000)
    8  (  0.000000,  0.000000)   (  0.000000,  0.000000)
    9  (  0.000000,  0.000000)   (  0.000000,  0.000000)
   10  (  0.000000,  0.000000)   (  0.000000,  0.000000)

  STATE                9                                    10
    1  (  0.000000,  0.000000)   (  0.000000,  0.000000)
    2  (  0.000000,  0.000000)   (  0.000000,  0.000000)
    3  (  0.000000,  0.000000)   (  0.000000,  0.000000)
    4  (  0.000000,  0.000000)   (  0.000000,  0.000000)
    5  (  0.000000,  0.000000)   (  0.000000,  0.000000)
    6  (  0.000000,  0.000000)   (  0.000000,  0.000000)
    7  (  0.000000,  0.000000)   (  0.000000,  0.000000)
    8  (  0.000000,  0.000000)   (  0.000000,  0.000000)
    9  (  0.000000,  0.000000)   (  0.000000,  0.000000)
   10  (  0.000000,  0.000000)   (  0.000000,  0.000000)

 PROPERTY: AMFI       COMPONENT:   2

  STATE                1                                     2
    1  (  0.000000,  0.000000)   (  0.000000,  0.000000)
    2  (  0.000000,  0.000000)   (  0.000000,  0.000000)
    3  (  0.000000,  0.000000)   (  0.000000,  0.000000)
    4  (  0.000000,  0.000000)   (  0.000000,  0.000000)
    5  (  0.000000,  0.000000)   (  0.000000,  0.000000)
    6  (  0.000000,  0.000000)   (  0.000000,  0.000000)
    7  (  0.000000,  0.000000)   (  0.000000,  0.000000)
    8  (  0.000000,  0.000000)   (  0.000000,  0.000000)
    9  (  0.000000,  0.000000)   (  0.000000,  0.000000)
   10  (  0.000000,  0.000000)   (  0.000000,  0.000000)

  STATE                3                                     4
    1  (  0.000000,  0.000000)   (  0.000000,  0.000000)
    2  (  0.000000,  0.000000)   (  0.000000,  0.000000)
    3  (  0.000000,  0.000000)   (  0.000000,  0.000000)
    4  (  0.000000,  0.000000)   (  0.000000,  0.000000)
    5  (  0.000000,  0.000000)   (  0.000000,  0.000000)
    6  (  0.000000,  0.000000)   (  0.000000,  0.000000)
    7  (  0.000000,  0.000000)   (  0.000000,  0.000000)
    8  (  0.000000,  0.000000)   (  0.000000,  0.000000)
    9  (  0.000000,  0.000000)   (  0.000000,  0.000000)
   10  (  0.000000,  0.000000)   (  0.000000,  0.000000)

  STATE                5                                     6
    1  (  0.000000,  0.000000)   (  0.000000,  0.000000)
    2  (  0.000000,  0.000000)   (  0.000000,  0.000000)
    3  (  0.000000,  0.000000)   (  0.000000,  0.000000)
    4  (  0.000000,  0.000000)   (  0.000000,  0.000000)
    5  (  0.000000,  0.000000)   (  0.000000,  0.000000)
    6  (  0.000000,  0.000000)   (  0.000000,  0.000000)
    7  (  0.000000,  0.000000)   (  0.000000,  0.000000)
    8  (  0.000000,  0.000000)   (  0.000000,  0.000000)
    9  (  0.000000,  0.000000)   (  0.000000,  0.000000)
   10  (  0.000000,  0.000000)   (  0.000000,  0.000000)

  STATE                7                                     8
    1  (  0.000000,  0.000000)   (  0.000000,  0.000000)
    2  (  0.000000,  0.000000)   (  0.000000,  0.000000)
    3  (  0.000000,  0.000000)   (  0.000000,  0.000000)
    4  (  0.000000,  0.000000)   (  0.000000,  0.000000)
    5  (  0.000000,  0.000000)   (  0.000000,  0.000000)
    6  (  0.000000,  0.000000)   (  0.000000,  0.000000)
    7  (  0.000000,  0.000000)   (  0.000000,  0.000000)
    8  (  0.000000,  0.000000)   (  0.000000,  0.000000)
    9  (  0.000000,  0.000000)   (  0.000000,  0.000000)
   10  (  0.000000,  0.000000)   (  0.000000,  0.000000)

  STATE                9                                    10
    1  (  0.000000,  0.000000)   (  0.000000,  0.000000)
    2  (  0.000000,  0.000000)   (  0.000000,  0.000000)
    3  (  0.000000,  0.000000)   (  0.000000,  0.000000)
    4  (  0.000000,  0.000000)   (  0.000000,  0.000000)
    5  (  0.000000,  0.000000)   (  0.000000,  0.000000)
    6  (  0.000000,  0.000000)   (  0.000000,  0.000000)
    7  (  0.000000,  0.000000)   (  0.000000,  0.000000)
    8  (  0.000000,  0.000000)   (  0.000000,  0.000000)
    9  (  0.000000,  0.000000)   (  0.000000,  0.000000)
   10  (  0.000000,  0.000000)   (  0.000000,  0.000000)

 PROPERTY: AMFI       COMPONENT:   3

  STATE                1                                     2
    1  (  0.000000,  0.000000)   (  0.000000,  0.000000)
    2  (  0.000000,  0.000000)   (  0.000000,  0.000000)
    3  (  0.000000,  0.000000)   (  0.000000,  0.000000)
    4  (  0.000000,  0.000000)   (  0.000000,  0.000000)
    5  (  0.000000,  0.000000)   (  0.000000,  0.000000)
    6  (  0.000000,  0.000000)   (  0.000000,  0.000000)
    7  (  0.000000,  0.000000)   (  0.000000,  0.000000)
    8  (  0.000000,  0.000000)   (  0.000000,  0.000000)
    9  (  0.000000,  0.000000)   (  0.000000,  0.000000)
   10  (  0.000000,  0.000000)   (  0.000000,  0.000000)

  STATE                3                                     4
    1  (  0.000000,  0.000000)   (  0.000000,  0.000000)
    2  (  0.000000,  0.000000)   (  0.000000,  0.000000)
    3  (  0.000000,  0.000000)   (  0.000000,  0.000000)
    4  (  0.000000,  0.000000)   (  0.000000,  0.000000)
    5  (  0.000000,  0.000000)   (  0.000000,  0.000000)
    6  (  0.000000,  0.000000)   (  0.000000,  0.000000)
    7  (  0.000000,  0.000000)   (  0.000000,  0.000000)
    8  (  0.000000,  0.000000)   (  0.000000,  0.000000)
    9  (  0.000000,  0.000000)   (  0.000000,  0.000000)
   10  (  0.000000,  0.000000)   (  0.000000,  0.000000)

  STATE                5                                     6
    1  (  0.000000,  0.000000)   (  0.000000,  0.000000)
    2  (  0.000000,  0.000000)   (  0.000000,  0.000000)
    3  (  0.000000,  0.000000)   (  0.000000,  0.000000)
    4  (  0.000000,  0.000000)   (  0.000000,  0.000000)
    5  (  0.000000,  0.000000)   (  0.000000,  0.000000)
    6  (  0.000000,  0.000000)   (  0.000000,  0.000000)
    7  (  0.000000,  0.000000)   (  0.000000,  0.000000)
    8  (  0.000000,  0.000000)   (  0.000000,  0.000000)
    9  (  0.000000,  0.000000)   (  0.000000,  0.000000)
   10  (  0.000000,  0.000000)   (  0.000000,  0.000000)

  STATE                7                                     8
    1  (  0.000000,  0.000000)   (  0.000000,  0.000000)
    2  (  0.000000,  0.000000)   (  0.000000,  0.000000)
    3  (  0.000000,  0.000000)   (  0.000000,  0.000000)
    4  (  0.000000,  0.000000)   (  0.000000,  0.000000)
    5  (  0.000000,  0.000000)   (  0.000000,  0.000000)
    6  (  0.000000,  0.000000)   (  0.000000,  0.000000)
    7  (  0.000000,  0.000000)   (  0.000000,  0.000000)
    8  (  0.000000,  0.000000)   (  0.000000,  0.000000)
    9  (  0.000000,  0.000000)   (  0.000000,  0.000000)
   10  (  0.000000,  0.000000)   (  0.000000,  0.000000)

  STATE                9                                    10
    1  (  0.000000,  0.000000)   (  0.000000,  0.000000)
    2  (  0.000000,  0.000000)   (  0.000000,  0.000000)
    3  (  0.000000,  0.000000)   (  0.000000,  0.000000)
    4  (  0.000000,  0.000000)   (  0.000000,  0.000000)
    5  (  0.000000,  0.000000)   (  0.000000,  0.000000)
    6  (  0.000000,  0.000000)   (  0.000000,  0.000000)
    7  (  0.000000,  0.000000)   (  0.000000,  0.000000)
    8  (  0.000000,  0.000000)   (  0.000000,  0.000000)
    9  (  0.000000,  0.000000)   (  0.000000,  0.000000)
   10  (  0.000000,  0.000000)   (  0.000000,  0.000000)
--



      ****************************************************************************************************
      *                                                                                                  *
      *                                    Special properties section                                    *
      *                                                                                                  *
      ****************************************************************************************************


++ Dipole transition strengths (SO states):
   ----------------------------------------
        for osc. strength at least   1.00000000E-05

      From   To        Osc. strength     Einstein coefficients Ax, Ay, Az (sec-1)    Total A (sec-1)
     -----------------------------------------------------------------------------------------------
         1    3       2.52610794E-02  2.23576423E-15  5.73962334E+07  2.35124820E-15  5.73962334E+07
         1    4       4.20180934E-02  2.22980878E-15  1.22695670E+08  5.88188870E-13  1.22695670E+08
         1    5       5.52260309E-02  5.85328047E-14  5.34137813E-13  1.62535199E+08  1.62535199E+08
         1    8       7.19520822E-02  2.35190052E-13  3.57244447E+08  1.21054410E-10  3.57244447E+08
         1    9       2.87363837E-01  5.97457468E-13  1.96196577E-11  1.52092429E+09  1.52092429E+09
         1   10       9.10244300E-03  5.39629904E+07  8.17000348E-15  2.72383426E-11  5.39629904E+07
     -----------------------------------------------------------------------------------------------
--

++ Velocity transition strengths (SO states):
   ------------------------------------------
        for osc. strength at least   1.00000000E-05

      From   To        Osc. strength     Einstein coefficients Ax, Ay, Az (sec-1)    Total A (sec-1)
     -----------------------------------------------------------------------------------------------
         1    3       2.06592937E-02  6.54807582E-15  4.69404186E+07  6.92216190E-15  4.69404186E+07
         1    4       3.98960739E-02  7.21965953E-15  1.16499230E+08  3.58886121E-13  1.16499230E+08
         1    5       4.40229723E-02  7.56271558E-14  7.95066133E-13  1.29563585E+08  1.29563585E+08
         1    8       3.66743824E-02  2.02668504E-13  1.82089511E+08  1.01894084E-10  1.82089511E+08
         1    9       2.30797559E-01  9.25437390E-13  9.27687100E-12  1.22153719E+09  1.22153719E+09
         1   10       1.74135520E-02  1.03234630E+08  7.63004159E-21  2.07937465E-11  1.03234630E+08
     -----------------------------------------------------------------------------------------------
--

++ Length and velocity gauge comparison (SO states):

 --------------------------------------------------
 A comparison between the dipole oscillator strengths in 
 length and velocity gauge will be performed

     All dipole oscillator differences above the tolerance of   1.00000000E-01  will be printed 

 Due to basis set deficiency these oscillator may be problematic 

 The tolerance is defined as ABS(1-O_l/O_v) 
 O_l : dipole oscillator strength in length gauge
 O_p : dipole oscillator strength in velocity gauge
 --------------------------------------------------

  Problematic transitions have been found

      From   To       Difference (%) Osc. st. (len.) Osc. st. (vel.)
     ---------------------------------------------------------------
         1    3            22.274652  2.52610794E-02  2.06592937E-02
         1    5            25.448211  5.52260309E-02  4.40229723E-02
         1    8            96.191667  7.19520822E-02  3.66743824E-02
         1    9            24.509045  2.87363837E-01  2.30797559E-01
         1   10            47.727821  9.10244300E-03  1.74135520E-02
     ---------------------------------------------------------------

 Number of problematic transitions =                    30

--

 Electric-dipole - electric-octupole not included
++ Total transition strengths for the second-order expansion of the wave vector (SO states):
   -----------------------------------------------------------------------------------------
        for osc. strength at least   1.00000000E-05

      From   To        Osc. strength
     -------------------------------
         1   10       1.03908577E-05
     -------------------------------
--

++ I/O STATISTICS
 
  I. General I/O information
  - - - - - - - - - - - - - - - - - - - - - - - - - - - - - - - - - - - - - - - - - - -
  Unit  Name          Flsize      Write/Read            MBytes           Write/Read
                      (MBytes)       Calls              In/Out           Time, sec.
  - - - - - - - - - - - - - - - - - - - - - - - - - - - - - - - - - - - - - - - - - - -
   1  SCRATCH           0.07 .      10/      55 .      0.1/      0.4 .       0/       0
   2  ANNI              0.00 .       0/       0 .      0.0/      0.0 .       0/       0
   3  RUNFILE           0.27 .     588/    7179 .      4.1/     52.2 .       0/       0
   4  ONEINT            1.55 .       0/    8053 .      0.0/   3386.9 .       0/       0
   5  JOB001          106.36 .       0/      70 .      0.0/      0.3 .       0/       0
   6  CHRED             0.03 .       0/       6 .      0.0/      0.0 .       0/       0
   7  CHVEC1            4.94 .       0/      13 .      0.0/      4.9 .       0/       0
   8  CHORST            0.01 .       0/      12 .      0.0/      0.0 .       0/       0
   9  CHOMAP            0.00 .       0/       0 .      0.0/      0.0 .       0/       0
  10  CHODIAG           0.02 .       0/       1 .      0.0/      0.0 .       0/       0
  - - - - - - - - - - - - - - - - - - - - - - - - - - - - - - - - - - - - - - - - - - -
   *  TOTAL           113.25 .     598/   15389 .      4.2/   3444.8 .       0/       0
  - - - - - - - - - - - - - - - - - - - - - - - - - - - - - - - - - - - - - - - - - - -
 
  II. I/O Access Patterns
  - - - - - - - - - - - - - - - - - - - -
  Unit  Name               % of random
                         Write/Read calls
  - - - - - - - - - - - - - - - - - - - -
   1  SCRATCH             90.0/ 100.0
   2  ANNI                 0.0/   0.0
   3  RUNFILE             28.6/  10.4
   4  ONEINT               0.0/  58.7
   5  JOB001               0.0/  67.1
   6  CHRED                0.0/  16.7
   7  CHVEC1               0.0/   0.0
   8  CHORST               0.0/   0.0
   9  CHOMAP               0.0/   0.0
  10  CHODIAG              0.0/   0.0
  - - - - - - - - - - - - - - - - - - - -
--
--- Stop Module: rassi at Sat Dec 31 15:36:17 2022 /rc=_RC_ALL_IS_WELL_ ---
--- Module rassi spent 50 seconds ---

.##################.
.# Happy landing! #.
.##################.

    Timing: Wall=50.29 User=48.30 System=0.51
