   This run of MOLCAS is using the pymolcas driver

 OpenMolcas is free software; you can redistribute it and/or modify it
 under the terms of the GNU Lesser General Public License version 2.1.
 OpenMolcas is distributed in the hope that it will be useful, but it
 is provided "as is" and without any express or implied warranties.
 For more details see the full text of the license in the file
 LICENSE or in <http://www.gnu.org/licenses/>.

                 Copyright (C) The OpenMolcas Authors
           For the author list and the recommended citation,
                   consult the file CONTRIBUTORS.md

           *************************************************
           * pymolcas version py1.10                       *
           *   build 594768dd6c4097ed801c8ebaccf808b5      *
           *   (after the EMIL interpreter by V. Veryazov) *
           *************************************************

configuration info
------------------
C Compiler ID: GNU
C flags: -std=gnu99
Fortran Compiler ID: GNU
Fortran flags: -cpp -fno-aggressive-loop-optimizations -fdefault-integer-8
Definitions: _MOLCAS_;_I8_;_LINUX_;_MKL_;_DMRG_;_GEN1INT_
Parallel: OFF (GA=OFF)


   -----------------------------------------------------------------------------------------------------------------
  |
  |           Project: standard__001
  |    Submitted from: /path
  |      Scratch area: /path
  |   Save outputs to: /path
  |            Molcas: /path
  |
  | Scratch area is NOT empty
  |
  |      MOLCAS_CPUS = 1
  |    MOLCAS_DRIVER = /path
  |    MOLCAS_MOLDEN = OFF
  |    MOLCAS_NPROCS = 1
  |     MOLCAS_PRINT = 6
  |    MOLCAS_SOURCE = /path
  | MOLCAS_STRUCTURE = 0
  |      MOLCAS_TRAP = OFF
  |
   -----------------------------------------------------------------------------------------------------------------

++ ---------   Input file   ---------

>>> COPY C2H6.xyz .

&GATEWAY
coord
C2H6.xyz
basis
ANO-S-VDZ
group
NOSYM

&SEWARD
BSSHOW

&SCF

-- ----------------------------------

>>> COPY C2H6.xyz .

*** symbolic link created: INPORB -> standard__001.ScfOrb
--- Start Module: gateway at Wed Apr 11 13:25:55 2018 ---

()()()()()()()()()()()()()()()()()()()()()()()()()()()()()()()()()()()()()()()()()()()()()()()()()()

                                              &GATEWAY

                                   only a single process is used
                       available to each process: 1.0 GB of memory, 1 thread
()()()()()()()()()()()()()()()()()()()()()()()()()()()()()()()()()()()()()()()()()()()()()()()()()()


++    Symmetry information:
      ---------------------

                    Character Table for C1 

                             E  
                    a        1  x, y, xy, Rz, z, xz, Ry, yz, Rx, I
--


++    Basis set information:
      ----------------------


      Basis set label: C.ANO-S...3S2P.

      Electronic valence basis set:
      ------------------
      Associated Effective Charge  6.000000 au
      Associated Actual Charge     6.000000 au
      Nuclear Model: Point charge

      Shell  nPrim  nBasis  Cartesian Spherical Contaminant
         s      10       3        X                  
         p       6       2        X                  


      Basis set label: H.ANO-S...2S.

      Electronic valence basis set:
      ------------------
      Associated Effective Charge  1.000000 au
      Associated Actual Charge     1.000000 au
      Nuclear Model: Point charge

      Shell  nPrim  nBasis  Cartesian Spherical Contaminant
         s       7       2        X                  
--


++    Molecular structure info:
      -------------------------

                    ************************************************ 
                    **** Cartesian Coordinates / Bohr, Angstrom **** 
                    ************************************************ 

     Center  Label                x              y              z                     x              y              z
        1      C1              -0.200326       0.000000      -1.426930             -0.106008       0.000000      -0.755099
        2      C2               0.200326       0.000000       1.426930              0.106008       0.000000       0.755099
        3      H3              -2.210455       0.000000      -1.900837             -1.169722       0.000000      -1.005880
        4      H4               2.210455       0.000000       1.900837              1.169722       0.000000       1.005880
        5      H5               0.648586      -1.666816      -2.302136              0.343217      -0.882041      -1.218238
        6      H6               0.648586       1.666816      -2.302136              0.343217       0.882041      -1.218238
        7      H7              -0.648586      -1.666816       2.302136             -0.343217      -0.882041       1.218238
        8      H8              -0.648586       1.666816       2.302136             -0.343217       0.882041       1.218238

                    *************************************** 
                    *    InterNuclear Distances / Bohr    * 
                    *************************************** 

               1 C1            2 C2            3 H3            4 H4            5 H5            6 H6    
    1 C1       0.000000
    2 C2       2.881846        0.000000
    3 H3       2.065238        4.109245        0.000000
    4 H4       4.109245        2.065238        5.830710        0.000000
    5 H5       2.065166        4.109153        3.333681        4.783586        0.000000
    6 H6       2.065166        4.109153        3.333681        4.783586        3.333631        0.000000
    7 H7       4.109153        2.065166        4.783586        3.333681        4.783510        5.830529
    8 H8       4.109153        2.065166        4.783586        3.333681        5.830529        4.783510

               7 H7            8 H8    
    7 H7       0.000000
    8 H8       3.333631        0.000000

                    ******************************************* 
                    *    InterNuclear Distances / Angstrom    * 
                    ******************************************* 

               1 C1            2 C2            3 H3            4 H4            5 H5            6 H6    
    1 C1       0.000000
    2 C2       1.525007        0.000000
    3 H3       1.092877        2.174519        0.000000
    4 H4       2.174519        1.092877        3.085479        0.000000
    5 H5       1.092839        2.174470        1.764108        2.531365        0.000000
    6 H6       1.092839        2.174470        1.764108        2.531365        1.764082        0.000000
    7 H7       2.174470        1.092839        2.531365        1.764108        2.531325        3.085383
    8 H8       2.174470        1.092839        2.531365        1.764108        3.085383        2.531325

               7 H7            8 H8    
    7 H7       0.000000
    8 H8       1.764082        0.000000

                    ************************************** 
                    *    Valence Bond Angles / Degree    * 
                    ************************************** 
                          Atom centers                 Phi
                      2 C2       1 C1       3 H3       111.26
                      2 C2       1 C1       5 H5       111.26
                      2 C2       1 C1       6 H6       111.26
                      3 H3       1 C1       5 H5       107.63
                      3 H3       1 C1       6 H6       107.63
                      5 H5       1 C1       6 H6       107.63
                      1 C1       2 C2       4 H4       111.26
                      1 C1       2 C2       7 H7       111.26
                      1 C1       2 C2       8 H8       111.26
                      4 H4       2 C2       7 H7       107.63
                      4 H4       2 C2       8 H8       107.63
                      7 H7       2 C2       8 H8       107.63

           ***************************************************************
           *              Valence Dihedral Angles / Degree               *
           ***************************************************************
                    Atom centers                       Phi1     Phi2     Theta 
           3 H3       1 C1       2 C2       4 H4        111.26   111.26  -180.00
           3 H3       1 C1       2 C2       7 H7        111.26   111.26    60.00
           3 H3       1 C1       2 C2       8 H8        111.26   111.26   -60.00
           5 H5       1 C1       2 C2       7 H7        111.26   111.26   -60.00
           5 H5       1 C1       2 C2       8 H8        111.26   111.26  -180.00
           6 H6       1 C1       2 C2       7 H7        111.26   111.26  -180.00
           6 H6       1 C1       2 C2       8 H8        111.26   111.26    60.00
           4 H4       2 C2       1 C1       5 H5        111.26   111.26    60.00
           4 H4       2 C2       1 C1       6 H6        111.26   111.26   -60.00
--


            Nuclear Potential Energy             42.25331278 au

--- Stop Module: gateway at Wed Apr 11 13:25:56 2018 /rc=_RC_ALL_IS_WELL_ ---

*** symbolic link created: INPORB -> standard__001.ScfOrb
--- Start Module: seward at Wed Apr 11 13:25:56 2018 ---

()()()()()()()()()()()()()()()()()()()()()()()()()()()()()()()()()()()()()()()()()()()()()()()()()()

                                              &SEWARD

                                   only a single process is used
                       available to each process: 1.0 GB of memory, 1 thread
()()()()()()()()()()()()()()()()()()()()()()()()()()()()()()()()()()()()()()()()()()()()()()()()()()

               SEWARD will generate:
                  Multipole Moment integrals up to order  2
                  Kinetic Energy integrals
                  Nuclear Attraction integrals (point charge)
                  One-Electron Hamiltonian integrals
                  Velocity integrals
                  Two-Electron Repulsion integrals

                   Integrals are discarded if absolute value <: 0.10E-13
                   Integral cutoff threshold is set to       <: 0.10E-15

++    SO/AO info:
      -----------

                    **************************************************
                    ********** Petite list Basis Functions ***********
                    **************************************************


           Basis functions generated by E  

 Basis Label        Type   Center
   1   C1           1s        1
   2   C1           2s        1
   3   C1           3s        1
   4   C1           2px       1
   5   C1           3px       1
   6   C1           2py       1
   7   C1           3py       1
   8   C1           2pz       1
   9   C1           3pz       1
  10   C2           1s        2
  11   C2           2s        2
  12   C2           3s        2
  13   C2           2px       2
  14   C2           3px       2
  15   C2           2py       2
  16   C2           3py       2
  17   C2           2pz       2
  18   C2           3pz       2
  19   H3           1s        3
  20   H3           2s        3
  21   H4           1s        4
  22   H4           2s        4
  23   H5           1s        5
  24   H5           2s        5
  25   H6           1s        6
  26   H6           2s        6
  27   H7           1s        7
  28   H7           2s        7
  29   H8           1s        8
  30   H8           2s        8

      Basis set specifications :
      Symmetry species        a  
      Basis functions          30
--


            Nuclear Potential Energy             42.25331278 au


      Basis set specifications :
      Symmetry species         a  
      Basis functions           30


  Molden files will not be produced

--- Stop Module: seward at Wed Apr 11 13:25:58 2018 /rc=_RC_ALL_IS_WELL_ ---
--- Module seward spent 1 second ---


