 argument  1 = ch3nh2.nw
 


============================== echo of input deck ==============================
echo
start ch3nh2
title ch3nh2

geometry  units angstrom  noautoz nocenter
symmetry c1
C       0.745914       0.011106       0.000000
N      -0.721743      -0.071848       0.000000
H       1.042059       1.060105       0.000000
H       1.129298      -0.483355       0.892539
H       1.129298      -0.483355      -0.892539
H      -1.076988       0.386322      -0.827032
H      -1.076988       0.386322       0.827032
end

basis SPHERICAL
 * library 6-31G
end

charge 0

scf
 singlet
 maxiter 30
 print "final vectors" "final vectors analysis"
end

task scf
================================================================================


                                         
                                         
 
 
              Northwest Computational Chemistry Package (NWChem) 6.6
              ------------------------------------------------------
 
 
                    Environmental Molecular Sciences Laboratory
                       Pacific Northwest National Laboratory
                                Richland, WA 99352
 
                              Copyright (c) 1994-2015
                       Pacific Northwest National Laboratory
                            Battelle Memorial Institute
 
             NWChem is an open-source computational chemistry package
                        distributed under the terms of the
                      Educational Community License (ECL) 2.0
             A copy of the license is included with this distribution
                              in the LICENSE.TXT file
 
                                  ACKNOWLEDGMENT
                                  --------------

            This software and its documentation were developed at the
            EMSL at Pacific Northwest National Laboratory, a multiprogram
            national laboratory, operated for the U.S. Department of Energy
            by Battelle under Contract Number DE-AC05-76RL01830. Support
            for this work was provided by the Department of Energy Office
            of Biological and Environmental Research, Office of Basic
            Energy Sciences, and the Office of Advanced Scientific Computing.


           Job information
           ---------------

    hostname        = hostname 
    program         = program
    date            = Fri Jan 20 22:12:21 2017

    compiled        = Wed_Sep_14_13:31:52_2016
    source          = source
    nwchem branch   = Development
    nwchem revision = 28323
    ga revision     = 10664
    input           = ch3nh2.nw
    prefix          = ch3nh2.
    data base       = ./ch3nh2.db
    status          = startup
    nproc           =        1
    time left       =     -1s



           Memory information
           ------------------

    heap     =   13107194 doubles =    100.0 Mbytes
    stack    =   13107199 doubles =    100.0 Mbytes
    global   =   26214400 doubles =    200.0 Mbytes (distinct from heap & stack)
    total    =   52428793 doubles =    400.0 Mbytes
    verify   = yes
    hardfail = no 


           Directory information
           ---------------------
 
  0 permanent = .
  0 scratch   = /scratch/6216985
 
 
 
 
                                NWChem Input Module
                                -------------------
 
 
                                      ch3nh2
                                      ------

 Scaling coordinates for geometry "geometry" by  1.889725989
 (inverse scale =  0.529177249)

 Turning off AUTOSYM since
 SYMMETRY directive was detected!
 
 
 
                             Geometry "geometry" -> ""
                             -------------------------
 
 Output coordinates in angstroms (scale by  1.889725989 to convert to a.u.)
 
  No.       Tag          Charge          X              Y              Z
 ---- ---------------- ---------- -------------- -------------- --------------
    1 C                    6.0000     0.74591400     0.01110600     0.00000000
    2 N                    7.0000    -0.72174300    -0.07184800     0.00000000
    3 H                    1.0000     1.04205900     1.06010500     0.00000000
    4 H                    1.0000     1.12929800    -0.48335500     0.89253900
    5 H                    1.0000     1.12929800    -0.48335500    -0.89253900
    6 H                    1.0000    -1.07698800     0.38632200    -0.82703200
    7 H                    1.0000    -1.07698800     0.38632200     0.82703200
 
      Atomic Mass 
      ----------- 
 
      C                 12.000000
      N                 14.003070
      H                  1.007825
 

 Effective nuclear repulsion energy (a.u.)      42.0763801412

            Nuclear Dipole moment (a.u.) 
            ----------------------------
        X                 Y               Z
 ---------------- ---------------- ----------------
     1.0770720039     0.8120889566     0.0000000000
 
 
            XYZ format geometry
            -------------------
     7
 geometry
 C                     0.74591400     0.01110600     0.00000000
 N                    -0.72174300    -0.07184800     0.00000000
 H                     1.04205900     1.06010500     0.00000000
 H                     1.12929800    -0.48335500     0.89253900
 H                     1.12929800    -0.48335500    -0.89253900
 H                    -1.07698800     0.38632200    -0.82703200
 H                    -1.07698800     0.38632200     0.82703200
 
 ==============================================================================
                                internuclear distances
 ------------------------------------------------------------------------------
       center one      |      center two      | atomic units |  angstroms
 ------------------------------------------------------------------------------
    2 N                |   1 C                |     2.77790  |     1.47000
    3 H                |   1 C                |     2.05980  |     1.09000
    4 H                |   1 C                |     2.05980  |     1.09000
    5 H                |   1 C                |     2.05980  |     1.09000
    6 H                |   2 N                |     1.90862  |     1.01000
    7 H                |   2 N                |     1.90862  |     1.01000
 ------------------------------------------------------------------------------
                         number of included internuclear distances:          6
 ==============================================================================



 ==============================================================================
                                 internuclear angles
 ------------------------------------------------------------------------------
        center 1       |       center 2       |       center 3       |  degrees
 ------------------------------------------------------------------------------
    2 N                |   1 C                |   3 H                |   109.00
    2 N                |   1 C                |   4 H                |   109.00
    2 N                |   1 C                |   5 H                |   109.00
    3 H                |   1 C                |   4 H                |   109.94
    3 H                |   1 C                |   5 H                |   109.94
    4 H                |   1 C                |   5 H                |   109.94
    1 C                |   2 N                |   6 H                |   109.00
    1 C                |   2 N                |   7 H                |   109.00
    6 H                |   2 N                |   7 H                |   109.94
 ------------------------------------------------------------------------------
                            number of included internuclear angles:          9
 ==============================================================================



  library name resolved from: environment
  library file name is: <
 libfilename
  


 Summary of "ao basis" -> "" (spherical)
 ------------------------------------------------------------------------------
       Tag                 Description            Shells   Functions and Types
 ---------------- ------------------------------  ------  ---------------------
 *                           6-31G                    on all atoms 


                      Basis "ao basis" -> "ao basis" (spherical)
                      -----
  C (Carbon)
  ----------
            Exponent  Coefficients 
       -------------- ---------------------------------------------------------
  1 S  3.04752490E+03  0.001835
  1 S  4.57369510E+02  0.014037
  1 S  1.03948690E+02  0.068843
  1 S  2.92101550E+01  0.232184
  1 S  9.28666300E+00  0.467941
  1 S  3.16392700E+00  0.362312
 
  2 S  7.86827240E+00 -0.119332
  2 S  1.88128850E+00 -0.160854
  2 S  5.44249300E-01  1.143456
 
  3 P  7.86827240E+00  0.068999
  3 P  1.88128850E+00  0.316424
  3 P  5.44249300E-01  0.744308
 
  4 S  1.68714400E-01  1.000000
 
  5 P  1.68714400E-01  1.000000
 
  N (Nitrogen)
  ------------
            Exponent  Coefficients 
       -------------- ---------------------------------------------------------
  1 S  4.17351100E+03  0.001835
  1 S  6.27457900E+02  0.013995
  1 S  1.42902100E+02  0.068587
  1 S  4.02343300E+01  0.232241
  1 S  1.28202100E+01  0.469070
  1 S  4.39043700E+00  0.360455
 
  2 S  1.16263580E+01 -0.114961
  2 S  2.71628000E+00 -0.169118
  2 S  7.72218000E-01  1.145852
 
  3 P  1.16263580E+01  0.067580
  3 P  2.71628000E+00  0.323907
  3 P  7.72218000E-01  0.740895
 
  4 S  2.12031300E-01  1.000000
 
  5 P  2.12031300E-01  1.000000
 
  H (Hydrogen)
  ------------
            Exponent  Coefficients 
       -------------- ---------------------------------------------------------
  1 S  1.87311370E+01  0.033495
  1 S  2.82539370E+00  0.234727
  1 S  6.40121700E-01  0.813757
 
  2 S  1.61277800E-01  1.000000
 


 Summary of "ao basis" -> "ao basis" (spherical)
 ------------------------------------------------------------------------------
       Tag                 Description            Shells   Functions and Types
 ---------------- ------------------------------  ------  ---------------------
 C                           6-31G                   5        9   3s2p
 N                           6-31G                   5        9   3s2p
 H                           6-31G                   2        2   2s


                                 NWChem SCF Module
                                 -----------------
 
 
                                      ch3nh2
 
 

  ao basis        = "ao basis"
  functions       =    28
  atoms           =     7
  closed shells   =     9
  open shells     =     0
  charge          =   0.00
  wavefunction    = RHF 
  input vectors   = atomic
  output vectors  = ./ch3nh2.movecs
  use symmetry    = F
  symmetry adapt  = F


 Summary of "ao basis" -> "ao basis" (spherical)
 ------------------------------------------------------------------------------
       Tag                 Description            Shells   Functions and Types
 ---------------- ------------------------------  ------  ---------------------
 C                           6-31G                   5        9   3s2p
 N                           6-31G                   5        9   3s2p
 H                           6-31G                   2        2   2s



 Forming initial guess at       0.8s

 
      Superposition of Atomic Density Guess
      -------------------------------------
 
 Sum of atomic energies:         -94.44515509
 
      Non-variational initial energy
      ------------------------------

 Total energy =     -95.615622
 1-e energy   =    -209.328571
 2-e energy   =      71.636568
 HOMO         =      -0.301052
 LUMO         =       0.126011
 

 Starting SCF solution at       0.9s



 ----------------------------------------------
         Quadratically convergent ROHF

 Convergence threshold     :          1.000E-04
 Maximum no. of iterations :           30
 Final Fock-matrix accuracy:          1.000E-07
 ----------------------------------------------


 Integral file          = /scratch/6216985/ch3nh2.aoints.0
 Record size in doubles =    65536    No. of integs per rec  =    43688
 Max. records in memory =        4    Max. records in file   =  1602537
 No. of bits per label  =        8    No. of bits per value  =       64


 #quartets = 2.212D+04 #integrals = 7.556D+04 #direct =  0.0% #cached =100.0%


              iter       energy          gnorm     gmax       time
             ----- ------------------- --------- --------- --------
                 1      -95.1407268093  6.04D-01  1.93D-01      0.2
                 2      -95.1630582116  2.40D-01  1.10D-01      0.2
                 3      -95.1657814788  1.18D-01  4.32D-02      0.3
                 4      -95.1666285936  3.34D-03  1.92D-03      0.3
                 5      -95.1666311973  6.67D-06  2.77D-06      0.3


       Final RHF  results 
       ------------------ 

         Total SCF energy =    -95.166631197263
      One-electron energy =   -211.353496887370
      Two-electron energy =     74.110485548920
 Nuclear repulsion energy =     42.076380141186

        Time for solution =      0.1s


             Final eigenvalues
             -----------------

              1      
    1  -15.5352
    2  -11.2438
    3   -1.1743
    4   -0.8977
    5   -0.6672
    6   -0.5970
    7   -0.5528
    8   -0.5221
    9   -0.3761
   10    0.2214
   11    0.2860
   12    0.3038
   13    0.3232
   14    0.3320
   15    0.4050
   16    0.7883
   17    0.7988
   18    0.8051
   19    1.0144
 
                       ROHF Final Molecular Orbital Analysis
                       -------------------------------------
 
 Vector    1  Occ=2.000000D+00  E=-1.553524D+01
              MO Center= -7.2D-01, -7.2D-02, -3.6D-17, r^2= 2.0D-02
   Bfn.  Coefficient  Atom+Function         Bfn.  Coefficient  Atom+Function  
  ----- ------------  ---------------      ----- ------------  ---------------
    10      0.996057  2 N  s          
 
 Vector    2  Occ=2.000000D+00  E=-1.124378D+01
              MO Center=  7.5D-01,  1.1D-02, -1.8D-18, r^2= 2.7D-02
   Bfn.  Coefficient  Atom+Function         Bfn.  Coefficient  Atom+Function  
  ----- ------------  ---------------      ----- ------------  ---------------
     1      0.996208  1 C  s          
 
 Vector    3  Occ=2.000000D+00  E=-1.174305D+00
              MO Center= -4.3D-01,  8.7D-02, -2.0D-14, r^2= 9.1D-01
   Bfn.  Coefficient  Atom+Function         Bfn.  Coefficient  Atom+Function  
  ----- ------------  ---------------      ----- ------------  ---------------
    15      0.424537  2 N  s                 11      0.374004  2 N  s          
     2      0.189780  1 C  s                 10     -0.183518  2 N  s          
 
 Vector    4  Occ=2.000000D+00  E=-8.977384D-01
              MO Center=  4.6D-01,  5.0D-02, -1.9D-14, r^2= 1.7D+00
   Bfn.  Coefficient  Atom+Function         Bfn.  Coefficient  Atom+Function  
  ----- ------------  ---------------      ----- ------------  ---------------
     6      0.384178  1 C  s                  2      0.327636  1 C  s          
    15     -0.257487  2 N  s                  1     -0.169790  1 C  s          
    11     -0.161926  2 N  s                 12      0.150372  2 N  px         
 
 Vector    5  Occ=2.000000D+00  E=-6.672430D-01
              MO Center= -4.0D-01,  3.7D-02,  1.3D-14, r^2= 1.6D+00
   Bfn.  Coefficient  Atom+Function         Bfn.  Coefficient  Atom+Function  
  ----- ------------  ---------------      ----- ------------  ---------------
    14      0.402375  2 N  pz                 5      0.229994  1 C  pz         
    25     -0.211970  6 H  s                 27      0.211970  7 H  s          
    18      0.204460  2 N  pz         
 
 Vector    6  Occ=2.000000D+00  E=-5.969760D-01
              MO Center=  4.7D-01,  2.5D-01, -6.9D-15, r^2= 1.5D+00
   Bfn.  Coefficient  Atom+Function         Bfn.  Coefficient  Atom+Function  
  ----- ------------  ---------------      ----- ------------  ---------------
     4      0.372737  1 C  py                19      0.256959  3 H  s          
    13      0.226936  2 N  py                20      0.208634  3 H  s          
     8      0.159889  1 C  py         
 
 Vector    7  Occ=2.000000D+00  E=-5.527579D-01
              MO Center=  1.4D-01, -7.7D-02,  5.0D-14, r^2= 1.7D+00
   Bfn.  Coefficient  Atom+Function         Bfn.  Coefficient  Atom+Function  
  ----- ------------  ---------------      ----- ------------  ---------------
    12     -0.390171  2 N  px                 3      0.358828  1 C  px         
    16     -0.246242  2 N  px                 4     -0.177101  1 C  py         
 
 Vector    8  Occ=2.000000D+00  E=-5.221298D-01
              MO Center=  4.6D-01, -1.3D-01, -6.5D-15, r^2= 1.9D+00
   Bfn.  Coefficient  Atom+Function         Bfn.  Coefficient  Atom+Function  
  ----- ------------  ---------------      ----- ------------  ---------------
     5      0.385410  1 C  pz                14     -0.245967  2 N  pz         
    21      0.223580  4 H  s                 23     -0.223580  5 H  s          
     9      0.204739  1 C  pz                22      0.186740  4 H  s          
    24     -0.186740  5 H  s                 18     -0.157736  2 N  pz         
    25      0.152418  6 H  s                 27     -0.152418  7 H  s          
 
 Vector    9  Occ=2.000000D+00  E=-3.760883D-01
              MO Center= -4.9D-01, -1.3D-01, -7.7D-16, r^2= 1.4D+00
   Bfn.  Coefficient  Atom+Function         Bfn.  Coefficient  Atom+Function  
  ----- ------------  ---------------      ----- ------------  ---------------
    13      0.510526  2 N  py                17      0.478898  2 N  py         
    20     -0.192432  3 H  s                 15     -0.170377  2 N  s          
     4     -0.167304  1 C  py                19     -0.161448  3 H  s          
    16      0.159925  2 N  px         
 
 Vector   10  Occ=0.000000D+00  E= 2.213619D-01
              MO Center= -4.1D-01,  4.0D-01,  2.2D-13, r^2= 4.0D+00
   Bfn.  Coefficient  Atom+Function         Bfn.  Coefficient  Atom+Function  
  ----- ------------  ---------------      ----- ------------  ---------------
    15      1.447397  2 N  s                  6      1.102893  1 C  s          
    26     -0.950274  6 H  s                 28     -0.950274  7 H  s          
    20     -0.650575  3 H  s                 22     -0.564293  4 H  s          
    24     -0.564293  5 H  s                  7      0.545916  1 C  px         
    17      0.398707  2 N  py                16     -0.209899  2 N  px         
 
 Vector   11  Occ=0.000000D+00  E= 2.860097D-01
              MO Center=  6.3D-01,  8.2D-02,  2.8D-13, r^2= 4.7D+00
   Bfn.  Coefficient  Atom+Function         Bfn.  Coefficient  Atom+Function  
  ----- ------------  ---------------      ----- ------------  ---------------
     6      2.555532  1 C  s                 15     -1.310897  2 N  s          
    22     -1.093379  4 H  s                 24     -1.093379  5 H  s          
    20     -1.013328  3 H  s                 26      0.632358  6 H  s          
    28      0.632358  7 H  s                 17     -0.264481  2 N  py         
    16     -0.223695  2 N  px         
 
 Vector   12  Occ=0.000000D+00  E= 3.038307D-01
              MO Center= -1.5D-01,  1.6D-02, -7.1D-14, r^2= 4.6D+00
   Bfn.  Coefficient  Atom+Function         Bfn.  Coefficient  Atom+Function  
  ----- ------------  ---------------      ----- ------------  ---------------
    26     -1.142829  6 H  s                 28      1.142829  7 H  s          
    22      1.078630  4 H  s                 24     -1.078630  5 H  s          
     9     -0.886200  1 C  pz                18     -0.722206  2 N  pz         
     5     -0.245852  1 C  pz                14     -0.235463  2 N  pz         
 
 Vector   13  Occ=0.000000D+00  E= 3.232025D-01
              MO Center=  1.1D+00,  5.7D-01, -3.1D-13, r^2= 3.0D+00
   Bfn.  Coefficient  Atom+Function         Bfn.  Coefficient  Atom+Function  
  ----- ------------  ---------------      ----- ------------  ---------------
    20      1.941440  3 H  s                  8     -1.547096  1 C  py         
    22     -0.964740  4 H  s                 24     -0.964740  5 H  s          
     4     -0.346756  1 C  py                17      0.299713  2 N  py         
     7      0.214535  1 C  px                15      0.167865  2 N  s          
 
 Vector   14  Occ=0.000000D+00  E= 3.319713D-01
              MO Center=  1.7D-01,  1.3D-02, -2.5D-14, r^2= 4.4D+00
   Bfn.  Coefficient  Atom+Function         Bfn.  Coefficient  Atom+Function  
  ----- ------------  ---------------      ----- ------------  ---------------
     9      1.334192  1 C  pz                22     -1.301762  4 H  s          
    24      1.301762  5 H  s                 26     -1.023287  6 H  s          
    28      1.023287  7 H  s                 18     -0.973802  2 N  pz         
    14     -0.230796  2 N  pz                 5      0.214512  1 C  pz         
 
 Vector   15  Occ=0.000000D+00  E= 4.049654D-01
              MO Center=  4.2D-01,  4.0D-02, -5.5D-14, r^2= 3.0D+00
   Bfn.  Coefficient  Atom+Function         Bfn.  Coefficient  Atom+Function  
  ----- ------------  ---------------      ----- ------------  ---------------
     7      1.811425  1 C  px                16      1.430103  2 N  px         
     6     -1.129624  1 C  s                 15      0.889995  2 N  s          
    26      0.654341  6 H  s                 28      0.654341  7 H  s          
    12      0.341976  2 N  px                20     -0.336431  3 H  s          
     8      0.261608  1 C  py                17     -0.237256  2 N  py         
 
 Vector   16  Occ=0.000000D+00  E= 7.882995D-01
              MO Center=  6.0D-01,  2.2D-01,  4.8D-14, r^2= 2.2D+00
   Bfn.  Coefficient  Atom+Function         Bfn.  Coefficient  Atom+Function  
  ----- ------------  ---------------      ----- ------------  ---------------
     9      1.656994  1 C  pz                 5     -0.753243  1 C  pz         
    21     -0.461257  4 H  s                 23      0.461257  5 H  s          
    22     -0.298521  4 H  s                 24      0.298521  5 H  s          
    25      0.205341  6 H  s                 27     -0.205341  7 H  s          
 
 Vector   17  Occ=0.000000D+00  E= 7.988065D-01
              MO Center=  5.5D-01,  3.4D-03, -3.5D-14, r^2= 2.3D+00
   Bfn.  Coefficient  Atom+Function         Bfn.  Coefficient  Atom+Function  
  ----- ------------  ---------------      ----- ------------  ---------------
     7      1.122860  1 C  px                 3     -0.936849  1 C  px         
     8     -0.916249  1 C  py                15      0.495341  2 N  s          
     4      0.354051  1 C  py                16     -0.338559  2 N  px         
     2      0.284009  1 C  s                 17      0.225768  2 N  py         
    21     -0.225597  4 H  s                 23     -0.225597  5 H  s          
 
 Vector   18  Occ=0.000000D+00  E= 8.051311D-01
              MO Center=  6.3D-01, -2.6D-01, -6.1D-15, r^2= 2.1D+00
   Bfn.  Coefficient  Atom+Function         Bfn.  Coefficient  Atom+Function  
  ----- ------------  ---------------      ----- ------------  ---------------
     8      1.539916  1 C  py                 4     -0.676485  1 C  py         
    19     -0.517799  3 H  s                  7      0.480975  1 C  px         
     3     -0.467231  1 C  px                20     -0.417833  3 H  s          
    15      0.318995  2 N  s                 21      0.174369  4 H  s          
    23      0.174369  5 H  s                 13     -0.172706  2 N  py         
 
 Vector   19  Occ=0.000000D+00  E= 1.014405D+00
              MO Center= -8.8D-01, -2.8D-01, -6.5D-14, r^2= 1.5D+00
   Bfn.  Coefficient  Atom+Function         Bfn.  Coefficient  Atom+Function  
  ----- ------------  ---------------      ----- ------------  ---------------
    17      1.010880  2 N  py                13     -0.874003  2 N  py         
    16      0.785559  2 N  px                 6     -0.753303  1 C  s          
     8     -0.660752  1 C  py                12     -0.474752  2 N  px         
    15      0.335884  2 N  s                 20      0.315828  3 H  s          
     7      0.300970  1 C  px                 4      0.216111  1 C  py         
 
 Vector   20  Occ=0.000000D+00  E= 1.026900D+00
              MO Center= -3.0D-01, -2.3D-01,  7.5D-14, r^2= 2.5D+00
   Bfn.  Coefficient  Atom+Function         Bfn.  Coefficient  Atom+Function  
  ----- ------------  ---------------      ----- ------------  ---------------
    18      1.576266  2 N  pz                 9     -1.410286  1 C  pz         
    22      0.787417  4 H  s                 24     -0.787417  5 H  s          
    25      0.644570  6 H  s                 27     -0.644570  7 H  s          
     5      0.545442  1 C  pz                14     -0.448110  2 N  pz         
    21     -0.239359  4 H  s                 23      0.239359  5 H  s          
 
 Vector   21  Occ=0.000000D+00  E= 1.060972D+00
              MO Center= -5.5D-01,  3.7D-02,  6.6D-15, r^2= 2.1D+00
   Bfn.  Coefficient  Atom+Function         Bfn.  Coefficient  Atom+Function  
  ----- ------------  ---------------      ----- ------------  ---------------
    16      1.260788  2 N  px                17     -0.894261  2 N  py         
     8      0.810592  1 C  py                12     -0.651712  2 N  px         
     7      0.609785  1 C  px                20     -0.606601  3 H  s          
    25      0.492772  6 H  s                 27      0.492772  7 H  s          
     6     -0.466708  1 C  s                 13      0.362932  2 N  py         
 
 Vector   22  Occ=0.000000D+00  E= 1.179856D+00
              MO Center=  4.8D-01,  5.9D-01,  1.0D-14, r^2= 2.0D+00
   Bfn.  Coefficient  Atom+Function         Bfn.  Coefficient  Atom+Function  
  ----- ------------  ---------------      ----- ------------  ---------------
    20      1.142538  3 H  s                 19     -0.970411  3 H  s          
     6     -0.681607  1 C  s                  8     -0.639255  1 C  py         
     4      0.494941  1 C  py                16      0.458039  2 N  px         
    12     -0.412206  2 N  px                25     -0.400463  6 H  s          
    27     -0.400463  7 H  s                  2      0.359302  1 C  s          
 
 Vector   23  Occ=0.000000D+00  E= 1.240097D+00
              MO Center=  9.2D-01, -3.5D-01, -2.2D-12, r^2= 2.2D+00
   Bfn.  Coefficient  Atom+Function         Bfn.  Coefficient  Atom+Function  
  ----- ------------  ---------------      ----- ------------  ---------------
     6      1.676330  1 C  s                 22     -1.176880  4 H  s          
    24     -1.176880  5 H  s                  2     -0.964830  1 C  s          
    21      0.705765  4 H  s                 23      0.705765  5 H  s          
     4      0.584717  1 C  py                 8     -0.498111  1 C  py         
     7      0.495411  1 C  px                19     -0.396578  3 H  s          
 
 Vector   24  Occ=0.000000D+00  E= 1.244170D+00
              MO Center= -4.0D-01, -2.2D-02,  2.2D-12, r^2= 2.4D+00
   Bfn.  Coefficient  Atom+Function         Bfn.  Coefficient  Atom+Function  
  ----- ------------  ---------------      ----- ------------  ---------------
    18      1.393723  2 N  pz                26      1.059133  6 H  s          
    28     -1.059133  7 H  s                 14     -0.948896  2 N  pz         
    22     -0.660525  4 H  s                 24      0.660525  5 H  s          
     5     -0.499591  1 C  pz                 9      0.463511  1 C  pz         
    21      0.395365  4 H  s                 23     -0.395365  5 H  s          
 
 Vector   25  Occ=0.000000D+00  E= 1.271508D+00
              MO Center=  2.0D-01, -1.2D-01,  3.4D-12, r^2= 2.9D+00
   Bfn.  Coefficient  Atom+Function         Bfn.  Coefficient  Atom+Function  
  ----- ------------  ---------------      ----- ------------  ---------------
    22      0.821737  4 H  s                 24     -0.821737  5 H  s          
    21     -0.716741  4 H  s                 23      0.716741  5 H  s          
    25     -0.646618  6 H  s                 27      0.646618  7 H  s          
     5      0.554338  1 C  pz                26      0.514961  6 H  s          
    28     -0.514961  7 H  s                 14     -0.355368  2 N  pz         
 
 Vector   26  Occ=0.000000D+00  E= 1.277887D+00
              MO Center= -2.3D-01,  4.2D-01, -3.4D-12, r^2= 2.7D+00
   Bfn.  Coefficient  Atom+Function         Bfn.  Coefficient  Atom+Function  
  ----- ------------  ---------------      ----- ------------  ---------------
     6      2.197397  1 C  s                  2     -1.137883  1 C  s          
    20     -1.081971  3 H  s                 15     -0.955942  2 N  s          
    26      0.690067  6 H  s                 28      0.690067  7 H  s          
    25     -0.592067  6 H  s                 27     -0.592067  7 H  s          
    11      0.588084  2 N  s                 22     -0.561111  4 H  s          
 
 Vector   27  Occ=0.000000D+00  E= 1.338639D+00
              MO Center=  1.0D-01,  1.9D-01, -1.1D-13, r^2= 2.7D+00
   Bfn.  Coefficient  Atom+Function         Bfn.  Coefficient  Atom+Function  
  ----- ------------  ---------------      ----- ------------  ---------------
     6      4.072214  1 C  s                  2     -1.699277  1 C  s          
    16     -0.941350  2 N  px                11     -0.935904  2 N  s          
    15      0.863212  2 N  s                 20     -0.822113  3 H  s          
    26     -0.789671  6 H  s                 28     -0.789671  7 H  s          
    17      0.543418  2 N  py                22     -0.544197  4 H  s          
 
 Vector   28  Occ=0.000000D+00  E= 1.796421D+00
              MO Center= -1.5D-01,  1.1D-01, -9.3D-16, r^2= 2.1D+00
   Bfn.  Coefficient  Atom+Function         Bfn.  Coefficient  Atom+Function  
  ----- ------------  ---------------      ----- ------------  ---------------
    15     -4.484369  2 N  s                  6      4.248954  1 C  s          
    11      1.742594  2 N  s                 16     -1.493868  2 N  px         
     7     -1.210127  1 C  px                 2     -0.906212  1 C  s          
    25      0.526535  6 H  s                 27      0.526535  7 H  s          
    17     -0.507062  2 N  py                19     -0.505371  3 H  s          
 
 
                                 Final MO vectors
                                 ----------------
 

 global array: scf_init: MOs[1:28,1:28],  handle: -1000 

            1           2           3           4           5           6  
       ----------- ----------- ----------- ----------- ----------- -----------
   1       0.00002     0.99621    -0.09763    -0.16979     0.00000    -0.00316
   2      -0.00050     0.02536     0.18978     0.32764     0.00000    -0.00098
   3      -0.00011    -0.00026    -0.09190     0.08130    -0.00000     0.13754
   4       0.00004     0.00010     0.00316    -0.00224     0.00000     0.37274
   5      -0.00000    -0.00000    -0.00000     0.00000     0.22999     0.00000
   6       0.00467    -0.01674     0.10070     0.38418    -0.00000     0.01408
   7      -0.00221     0.00033     0.01196     0.01142    -0.00000     0.04340
   8       0.00015    -0.00001     0.00498     0.01532     0.00000     0.15989
   9      -0.00000     0.00000    -0.00000    -0.00000     0.12237     0.00000
  10       0.99606    -0.00010    -0.18352     0.08022    -0.00000     0.03056
  11       0.02365    -0.00012     0.37400    -0.16193    -0.00000    -0.07264
  12       0.00068    -0.00012     0.04718     0.15037     0.00000    -0.14800
  13       0.00197     0.00005     0.08000    -0.06675    -0.00000     0.22694
  14      -0.00000     0.00000     0.00000    -0.00000     0.40237     0.00000
  15      -0.01290     0.00224     0.42454    -0.25749     0.00000    -0.10205
  16      -0.00187     0.00147     0.03203     0.03650    -0.00000    -0.07723
  17      -0.00210    -0.00022     0.04855    -0.03797    -0.00000     0.14799
  18       0.00000    -0.00000    -0.00000     0.00000     0.20446    -0.00000
  19      -0.00029    -0.00003     0.04538     0.13194    -0.00000     0.25696
  20      -0.00021     0.00325     0.00125     0.02922     0.00000     0.20863
  21      -0.00020     0.00001     0.04239     0.13710     0.10629    -0.07181
  22      -0.00022     0.00319     0.00449     0.04068     0.05315    -0.05423
  23      -0.00020     0.00001     0.04239     0.13710    -0.10629    -0.07181
  24      -0.00022     0.00319     0.00449     0.04068    -0.05315    -0.05423
  25       0.00013     0.00000     0.11897    -0.10350    -0.21197     0.06576
  26       0.00224     0.00051    -0.00098    -0.02832    -0.11050     0.03852
  27       0.00013     0.00000     0.11897    -0.10350     0.21197     0.06576
  28       0.00224     0.00051    -0.00098    -0.02832     0.11050     0.03852

            7           8           9          10          11          12  
       ----------- ----------- ----------- ----------- ----------- -----------
   1       0.00187    -0.00000    -0.00793    -0.05895    -0.13910     0.00000
   2      -0.01062    -0.00000     0.02436     0.03169     0.09576    -0.00000
   3       0.35883    -0.00000    -0.06209     0.14043     0.04929    -0.00000
   4      -0.17710    -0.00000    -0.16730     0.03916    -0.00930    -0.00000
   5       0.00000     0.38541    -0.00000    -0.00000    -0.00000    -0.24585
   6       0.03158     0.00000    -0.04739     1.10289     2.55553    -0.00000
   7       0.14318     0.00000    -0.00086     0.54592     0.02879     0.00000
   8      -0.10907    -0.00000    -0.07500     0.01555    -0.01760    -0.00000
   9       0.00000     0.20474    -0.00000    -0.00000    -0.00000    -0.88620
  10       0.00492    -0.00000     0.05161    -0.09185     0.07302    -0.00000
  11      -0.00361     0.00000    -0.13126     0.09502    -0.05220     0.00000
  12      -0.39017     0.00000     0.14911    -0.06211    -0.01851     0.00000
  13       0.01750     0.00000     0.51053     0.12297    -0.08728     0.00000
  14       0.00000    -0.24597    -0.00000     0.00000    -0.00000    -0.23546
  15      -0.04873    -0.00000    -0.17038     1.44740    -1.31090     0.00000
  16      -0.24624     0.00000     0.15992    -0.20990    -0.22370     0.00000
  17       0.00819     0.00000     0.47890     0.39871    -0.26448     0.00000
  18      -0.00000    -0.15774     0.00000     0.00000    -0.00000    -0.72221
  19      -0.04808     0.00000    -0.16145    -0.00021     0.00351     0.00000
  20      -0.02865    -0.00000    -0.19243    -0.65057    -1.01333     0.00000
  21       0.13984     0.22358     0.06753    -0.00533    -0.00081     0.03457
  22       0.10835     0.18674     0.07586    -0.56429    -1.09338     1.07863
  23       0.13984    -0.22358     0.06753    -0.00533    -0.00081    -0.03457
  24       0.10835    -0.18674     0.07586    -0.56429    -1.09338    -1.07863
  25       0.10723     0.15242     0.05416    -0.03020     0.03025    -0.04009
  26       0.07993     0.11068     0.03615    -0.95027     0.63236    -1.14283
  27       0.10723    -0.15242     0.05416    -0.03020     0.03025     0.04009
  28       0.07993    -0.11068     0.03615    -0.95027     0.63236     1.14283

           13          14          15          16          17          18  
       ----------- ----------- ----------- ----------- ----------- -----------
   1       0.00481     0.00000     0.05919     0.00000    -0.02878    -0.01788
   2       0.01482    -0.00000    -0.03756    -0.00000     0.28401     0.13896
   3       0.02619     0.00000     0.21401     0.00000    -0.93685    -0.46723
   4      -0.34676    -0.00000     0.01508    -0.00000     0.35405    -0.67648
   5      -0.00000     0.21451     0.00000    -0.75324    -0.00000     0.00000
   6      -0.13520    -0.00000    -1.12962     0.00000     0.03749     0.04876
   7       0.21453     0.00000     1.81143    -0.00000     1.12286     0.48098
   8      -1.54710    -0.00000     0.26161     0.00000    -0.91625     1.53992
   9      -0.00000     1.33419     0.00000     1.65699     0.00000    -0.00000
  10      -0.00504    -0.00000    -0.04429    -0.00000     0.03336    -0.00130
  11      -0.00996     0.00000     0.03708     0.00000    -0.19471    -0.00374
  12       0.03496     0.00000     0.34198    -0.00000     0.02808    -0.09449
  13       0.03987     0.00000    -0.07678     0.00000     0.03884    -0.17271
  14       0.00000    -0.23080     0.00000     0.02624     0.00000    -0.00000
  15       0.16786     0.00000     0.88999    -0.00000     0.49534     0.31900
  16       0.06626     0.00000     1.43010     0.00000    -0.33856    -0.14927
  17       0.29971     0.00000    -0.23726    -0.00000     0.22577    -0.08226
  18       0.00000    -0.97380     0.00000    -0.03137     0.00000     0.00000
  19       0.04385     0.00000    -0.07389    -0.00000     0.12294    -0.51780
  20       1.94144     0.00000    -0.33643    -0.00000     0.20071    -0.41783
  21      -0.02348    -0.04904    -0.07341    -0.46126    -0.22560     0.17437
  22      -0.96474    -1.30176    -0.13604    -0.29852    -0.21434     0.13651
  23      -0.02348     0.04904    -0.07341     0.46126    -0.22560     0.17437
  24      -0.96474     1.30176    -0.13604     0.29852    -0.21434     0.13651
  25       0.00227    -0.00414     0.02330     0.20534    -0.11249    -0.14563
  26      -0.03083    -1.02329     0.65434     0.11790     0.08815    -0.00825
  27       0.00227     0.00414     0.02330    -0.20534    -0.11249    -0.14563
  28      -0.03083     1.02329     0.65434    -0.11790     0.08815    -0.00825

           19          20          21          22          23          24  
       ----------- ----------- ----------- ----------- ----------- -----------
   1      -0.01193     0.00000    -0.04587    -0.06555     0.02965     0.00000
   2       0.14516     0.00000     0.08332     0.35930    -0.96483    -0.00000
   3      -0.08400     0.00000    -0.21588     0.28011    -0.33797    -0.00000
   4       0.21611     0.00000    -0.34857     0.49494     0.58472     0.00000
   5       0.00000     0.54544     0.00000    -0.00000     0.00000    -0.49959
   6      -0.75330    -0.00000    -0.46671    -0.68161     1.67633     0.00000
   7       0.30097    -0.00000     0.60979     0.04577     0.49541     0.00000
   8      -0.66075    -0.00000     0.81059    -0.63926    -0.49811    -0.00000
   9      -0.00000    -1.41029    -0.00000     0.00000    -0.00000     0.46351
  10      -0.00562    -0.00000     0.05350    -0.02238     0.02000     0.00000
  11       0.01347     0.00000    -0.25313    -0.03686    -0.11480    -0.00000
  12      -0.47475     0.00000    -0.65171    -0.41221    -0.11883    -0.00000
  13      -0.87400     0.00000     0.36293     0.20675     0.14388     0.00000
  14      -0.00000    -0.44811    -0.00000     0.00000     0.00000    -0.94890
  15       0.33588    -0.00000     0.11852     0.20020    -0.13488     0.00000
  16       0.78556    -0.00000     1.26079     0.45804     0.32959     0.00000
  17       1.01088    -0.00000    -0.89426    -0.02226    -0.38726    -0.00000
  18       0.00000     1.57627     0.00000    -0.00000    -0.00000     1.39372
  19       0.04241    -0.00000     0.10815    -0.97041    -0.39658    -0.00000
  20       0.31583     0.00000    -0.60660     1.14254     0.34020     0.00000
  21       0.01521    -0.23936    -0.23628    -0.24595     0.70577     0.39537
  22      -0.07425     0.78742     0.22586    -0.07246    -1.17688    -0.66052
  23       0.01521     0.23936    -0.23628    -0.24595     0.70577    -0.39537
  24      -0.07425    -0.78742     0.22586    -0.07246    -1.17688     0.66052
  25       0.15486     0.64457     0.49277    -0.40046     0.22606    -0.33630
  26      -0.09194     0.05872     0.16367     0.27412     0.08300     1.05913
  27       0.15486    -0.64457     0.49277    -0.40046     0.22606     0.33630
  28      -0.09194    -0.05872     0.16367     0.27412     0.08300    -1.05913

           25          26          27          28  
       ----------- ----------- ----------- -----------
   1      -0.00000     0.00605    -0.07040    -0.09619
   2       0.00000    -1.13788    -1.69928    -0.90621
   3       0.00000    -0.16492     0.12671    -0.17825
   4       0.00000    -0.20277    -0.13094     0.04732
   5       0.55434     0.00000     0.00000     0.00000
   6      -0.00000     2.19740     4.07221     4.24895
   7      -0.00000     0.44791    -0.23781    -1.21013
   8       0.00000     0.03354     0.05954     0.01556
   9      -0.27083    -0.00000    -0.00000    -0.00000
  10       0.00000    -0.05639     0.03686     0.03920
  11      -0.00000     0.58808    -0.93590     1.74259
  12       0.00000    -0.49162     0.16747     0.24823
  13      -0.00000     0.17878    -0.24326    -0.01083
  14      -0.35537    -0.00000     0.00000    -0.00000
  15       0.00000    -0.95594     0.86321    -4.48437
  16      -0.00000     0.46732    -0.94135    -1.49387
  17       0.00000    -0.00304     0.54342    -0.50706
  18      -0.14590     0.00000    -0.00000     0.00000
  19      -0.00000     0.51586    -0.24147    -0.50537
  20       0.00000    -1.08197    -0.82211    -0.27093
  21      -0.71674    -0.02145    -0.42868    -0.38308
  22       0.82174    -0.56111    -0.54420    -0.35667
  23       0.71674    -0.02145    -0.42868    -0.38308
  24      -0.82174    -0.56111    -0.54420    -0.35667
  25      -0.64662    -0.59207     0.04463     0.52654
  26       0.51496     0.69007    -0.78967     0.20295
  27       0.64662    -0.59207     0.04463     0.52654
  28      -0.51496     0.69007    -0.78967     0.20295

 center of mass
 --------------
 x =   0.00000012 y =  -0.00000029 z =   0.00000000

 moments of inertia (a.u.)
 ------------------
          17.721460187221           0.000000277137           0.000000000000
           0.000000277137          81.985742510454           0.000000000000
           0.000000000000           0.000000000000          78.392326144106
 
  Mulliken analysis of the total density
  --------------------------------------

    Atom       Charge   Shell Charges
 -----------   ------   -------------------------------------------------------
    1 C    6     6.27   2.00  0.66  2.05  0.66  0.90
    2 N    7     7.80   2.00  0.76  2.46  0.94  1.65
    3 H    1     0.87   0.55  0.32
    4 H    1     0.83   0.54  0.29
    5 H    1     0.83   0.54  0.29
    6 H    1     0.70   0.53  0.16
    7 H    1     0.70   0.53  0.16
 
       Multipole analysis of the density wrt the origin
       ------------------------------------------------
 
     L   x y z        total         open         nuclear
     -   - - -        -----         ----         -------
     0   0 0 0     -0.000000      0.000000     18.000000
 
     1   1 0 0      0.227892      0.000000      1.077072
     1   0 1 0      0.705779      0.000000      0.812089
     1   0 0 1     -0.000000      0.000000      0.000000
 
     2   2 0 0    -10.646210      0.000000     46.213279
     2   1 1 0     -1.830655      0.000000     -1.451440
     2   1 0 1      0.000000      0.000000      0.000000
     2   0 2 0    -11.340904      0.000000      6.879481
     2   0 1 1      0.000000      0.000000      0.000000
     2   0 0 2     -9.226820      0.000000     10.574691
 

 Parallel integral file used       2 records with       0 large values


 Task  times  cpu:        0.3s     wall:        0.5s
 
 
                                NWChem Input Module
                                -------------------
 
 
 Summary of allocated global arrays
-----------------------------------
  No active global arrays



                         GA Statistics for process    0
                         ------------------------------

       create   destroy   get      put      acc     scatter   gather  read&inc
calls:  257      257     2441     1642     1566        0        0       67     
number of processes/call 1.00e+00 1.00e+00 1.00e+00 0.00e+00 0.00e+00
bytes total:             1.94e+06 1.29e+06 3.00e+05 0.00e+00 0.00e+00 5.36e+02
bytes remote:            0.00e+00 0.00e+00 0.00e+00 0.00e+00 0.00e+00 0.00e+00
Max memory consumed for GA by this process: 89280 bytes
 
MA_summarize_allocated_blocks: starting scan ...
MA_summarize_allocated_blocks: scan completed: 0 heap blocks, 0 stack blocks
MA usage statistics:

	allocation statistics:
					      heap	     stack
					      ----	     -----
	current number of blocks	         0	         0
	maximum number of blocks	        17	        14
	current total bytes		         0	         0
	maximum total bytes		   2111192	  22509784
	maximum total K-bytes		      2112	     22510
	maximum total M-bytes		         3	        23
 
 
                                     CITATION
                                     --------
                Please cite the following reference when publishing
                           results obtained with NWChem:
 
                 M. Valiev, E.J. Bylaska, N. Govind, K. Kowalski,
              T.P. Straatsma, H.J.J. van Dam, D. Wang, J. Nieplocha,
                        E. Apra, T.L. Windus, W.A. de Jong
                 "NWChem: a comprehensive and scalable open-source
                  solution for large scale molecular simulations"
                      Comput. Phys. Commun. 181, 1477 (2010)
                           doi:10.1016/j.cpc.2010.04.018
 
                                      AUTHORS
                                      -------
          E. Apra, E. J. Bylaska, W. A. de Jong, N. Govind, K. Kowalski,
       T. P. Straatsma, M. Valiev, H. J. J. van Dam, D. Wang, T. L. Windus,
        J. Hammond, J. Autschbach, K. Bhaskaran-Nair, J. Brabec, K. Lopata,
       S. A. Fischer, S. Krishnamoorthy, W. Ma, M. Klemm, O. Villa, Y. Chen,
    V. Anisimov, F. Aquino, S. Hirata, M. T. Hackler, T. Risthaus, M. Malagoli,
       A. Marenich, A. Otero-de-la-Roza, J. Mullin, P. Nichols, R. Peverati,
     J. Pittner, Y. Zhao, P.-D. Fan, A. Fonari, M. Williamson, R. J. Harrison,
       J. R. Rehr, M. Dupuis, D. Silverstein, D. M. A. Smith, J. Nieplocha,
        V. Tipparaju, M. Krishnan, B. E. Van Kuiken, A. Vazquez-Mayagoitia,
        L. Jensen, M. Swart, Q. Wu, T. Van Voorhis, A. A. Auer, M. Nooijen,
      L. D. Crosby, E. Brown, G. Cisneros, G. I. Fann, H. Fruchtl, J. Garza,
        K. Hirao, R. A. Kendall, J. A. Nichols, K. Tsemekhman, K. Wolinski,
     J. Anchell, D. E. Bernholdt, P. Borowski, T. Clark, D. Clerc, H. Dachsel,
   M. J. O. Deegan, K. Dyall, D. Elwood, E. Glendening, M. Gutowski, A. C. Hess,
         J. Jaffe, B. G. Johnson, J. Ju, R. Kobayashi, R. Kutteh, Z. Lin,
   R. Littlefield, X. Long, B. Meng, T. Nakajima, S. Niu, L. Pollack, M. Rosing,
   K. Glaesemann, G. Sandrone, M. Stave, H. Taylor, G. Thomas, J. H. van Lenthe,
                               A. T. Wong, Z. Zhang.

 Total times  cpu:        0.3s     wall:        1.2s
