 argument  1 = ch3nh2.nw
 


============================== echo of input deck ==============================
echo
start ch3nh2
title ch3nh2

geometry  units angstrom  noautoz nocenter
symmetry c1
C       0.745914       0.011106       0.000000
N      -0.721743      -0.071848       0.000000
H       1.042059       1.060105       0.000000
H       1.129298      -0.483355       0.892539
H       1.129298      -0.483355      -0.892539
H      -1.076988       0.386322      -0.827032
H      -1.076988       0.386322       0.827032
end

basis SPHERICAL
 * library aug-cc-pVDZ
end

charge 0

scf
 singlet
 maxiter 30
 print "final vectors" "final vectors analysis"
end

task scf
================================================================================


                                         
                                         
 
 
              Northwest Computational Chemistry Package (NWChem) 6.6
              ------------------------------------------------------
 
 
                    Environmental Molecular Sciences Laboratory
                       Pacific Northwest National Laboratory
                                Richland, WA 99352
 
                              Copyright (c) 1994-2015
                       Pacific Northwest National Laboratory
                            Battelle Memorial Institute
 
             NWChem is an open-source computational chemistry package
                        distributed under the terms of the
                      Educational Community License (ECL) 2.0
             A copy of the license is included with this distribution
                              in the LICENSE.TXT file
 
                                  ACKNOWLEDGMENT
                                  --------------

            This software and its documentation were developed at the
            EMSL at Pacific Northwest National Laboratory, a multiprogram
            national laboratory, operated for the U.S. Department of Energy
            by Battelle under Contract Number DE-AC05-76RL01830. Support
            for this work was provided by the Department of Energy Office
            of Biological and Environmental Research, Office of Basic
            Energy Sciences, and the Office of Advanced Scientific Computing.


           Job information
           ---------------

    hostname        = hostname 
    program         = program
    date            = Fri Jan 20 22:17:16 2017

    compiled        = Wed_Sep_14_13:31:52_2016
    source          = source
    nwchem branch   = Development
    nwchem revision = 28323
    ga revision     = 10664
    input           = ch3nh2.nw
    prefix          = ch3nh2.
    data base       = ./ch3nh2.db
    status          = startup
    nproc           =        1
    time left       =     -1s



           Memory information
           ------------------

    heap     =   13107194 doubles =    100.0 Mbytes
    stack    =   13107199 doubles =    100.0 Mbytes
    global   =   26214400 doubles =    200.0 Mbytes (distinct from heap & stack)
    total    =   52428793 doubles =    400.0 Mbytes
    verify   = yes
    hardfail = no 


           Directory information
           ---------------------
 
  0 permanent = .
  0 scratch   = /scratch/6216987
 
 
 
 
                                NWChem Input Module
                                -------------------
 
 
                                      ch3nh2
                                      ------

 Scaling coordinates for geometry "geometry" by  1.889725989
 (inverse scale =  0.529177249)

 Turning off AUTOSYM since
 SYMMETRY directive was detected!
 
 
 
                             Geometry "geometry" -> ""
                             -------------------------
 
 Output coordinates in angstroms (scale by  1.889725989 to convert to a.u.)
 
  No.       Tag          Charge          X              Y              Z
 ---- ---------------- ---------- -------------- -------------- --------------
    1 C                    6.0000     0.74591400     0.01110600     0.00000000
    2 N                    7.0000    -0.72174300    -0.07184800     0.00000000
    3 H                    1.0000     1.04205900     1.06010500     0.00000000
    4 H                    1.0000     1.12929800    -0.48335500     0.89253900
    5 H                    1.0000     1.12929800    -0.48335500    -0.89253900
    6 H                    1.0000    -1.07698800     0.38632200    -0.82703200
    7 H                    1.0000    -1.07698800     0.38632200     0.82703200
 
      Atomic Mass 
      ----------- 
 
      C                 12.000000
      N                 14.003070
      H                  1.007825
 

 Effective nuclear repulsion energy (a.u.)      42.0763801412

            Nuclear Dipole moment (a.u.) 
            ----------------------------
        X                 Y               Z
 ---------------- ---------------- ----------------
     1.0770720039     0.8120889566     0.0000000000
 
 
            XYZ format geometry
            -------------------
     7
 geometry
 C                     0.74591400     0.01110600     0.00000000
 N                    -0.72174300    -0.07184800     0.00000000
 H                     1.04205900     1.06010500     0.00000000
 H                     1.12929800    -0.48335500     0.89253900
 H                     1.12929800    -0.48335500    -0.89253900
 H                    -1.07698800     0.38632200    -0.82703200
 H                    -1.07698800     0.38632200     0.82703200
 
 ==============================================================================
                                internuclear distances
 ------------------------------------------------------------------------------
       center one      |      center two      | atomic units |  angstroms
 ------------------------------------------------------------------------------
    2 N                |   1 C                |     2.77790  |     1.47000
    3 H                |   1 C                |     2.05980  |     1.09000
    4 H                |   1 C                |     2.05980  |     1.09000
    5 H                |   1 C                |     2.05980  |     1.09000
    6 H                |   2 N                |     1.90862  |     1.01000
    7 H                |   2 N                |     1.90862  |     1.01000
 ------------------------------------------------------------------------------
                         number of included internuclear distances:          6
 ==============================================================================



 ==============================================================================
                                 internuclear angles
 ------------------------------------------------------------------------------
        center 1       |       center 2       |       center 3       |  degrees
 ------------------------------------------------------------------------------
    2 N                |   1 C                |   3 H                |   109.00
    2 N                |   1 C                |   4 H                |   109.00
    2 N                |   1 C                |   5 H                |   109.00
    3 H                |   1 C                |   4 H                |   109.94
    3 H                |   1 C                |   5 H                |   109.94
    4 H                |   1 C                |   5 H                |   109.94
    1 C                |   2 N                |   6 H                |   109.00
    1 C                |   2 N                |   7 H                |   109.00
    6 H                |   2 N                |   7 H                |   109.94
 ------------------------------------------------------------------------------
                            number of included internuclear angles:          9
 ==============================================================================



  library name resolved from: environment
  library file name is: <
 libfilename
  


 Summary of "ao basis" -> "" (spherical)
 ------------------------------------------------------------------------------
       Tag                 Description            Shells   Functions and Types
 ---------------- ------------------------------  ------  ---------------------
 *                        aug-cc-pVDZ                 on all atoms 


                      Basis "ao basis" -> "ao basis" (spherical)
                      -----
  C (Carbon)
  ----------
            Exponent  Coefficients 
       -------------- ---------------------------------------------------------
  1 S  6.66500000E+03  0.000692
  1 S  1.00000000E+03  0.005329
  1 S  2.28000000E+02  0.027077
  1 S  6.47100000E+01  0.101718
  1 S  2.10600000E+01  0.274740
  1 S  7.49500000E+00  0.448564
  1 S  2.79700000E+00  0.285074
  1 S  5.21500000E-01  0.015204
 
  2 S  6.66500000E+03 -0.000146
  2 S  1.00000000E+03 -0.001154
  2 S  2.28000000E+02 -0.005725
  2 S  6.47100000E+01 -0.023312
  2 S  2.10600000E+01 -0.063955
  2 S  7.49500000E+00 -0.149981
  2 S  2.79700000E+00 -0.127262
  2 S  5.21500000E-01  0.544529
 
  3 S  1.59600000E-01  1.000000
 
  4 S  4.69000000E-02  1.000000
 
  5 P  9.43900000E+00  0.038109
  5 P  2.00200000E+00  0.209480
  5 P  5.45600000E-01  0.508557
 
  6 P  1.51700000E-01  1.000000
 
  7 P  4.04100000E-02  1.000000
 
  8 D  5.50000000E-01  1.000000
 
  9 D  1.51000000E-01  1.000000
 
  N (Nitrogen)
  ------------
            Exponent  Coefficients 
       -------------- ---------------------------------------------------------
  1 S  9.04600000E+03  0.000700
  1 S  1.35700000E+03  0.005389
  1 S  3.09300000E+02  0.027406
  1 S  8.77300000E+01  0.103207
  1 S  2.85600000E+01  0.278723
  1 S  1.02100000E+01  0.448540
  1 S  3.83800000E+00  0.278238
  1 S  7.46600000E-01  0.015440
 
  2 S  9.04600000E+03 -0.000153
  2 S  1.35700000E+03 -0.001208
  2 S  3.09300000E+02 -0.005992
  2 S  8.77300000E+01 -0.024544
  2 S  2.85600000E+01 -0.067459
  2 S  1.02100000E+01 -0.158078
  2 S  3.83800000E+00 -0.121831
  2 S  7.46600000E-01  0.549003
 
  3 S  2.24800000E-01  1.000000
 
  4 S  6.12400000E-02  1.000000
 
  5 P  1.35500000E+01  0.039919
  5 P  2.91700000E+00  0.217169
  5 P  7.97300000E-01  0.510319
 
  6 P  2.18500000E-01  1.000000
 
  7 P  5.61100000E-02  1.000000
 
  8 D  8.17000000E-01  1.000000
 
  9 D  2.30000000E-01  1.000000
 
  H (Hydrogen)
  ------------
            Exponent  Coefficients 
       -------------- ---------------------------------------------------------
  1 S  1.30100000E+01  0.019685
  1 S  1.96200000E+00  0.137977
  1 S  4.44600000E-01  0.478148
 
  2 S  1.22000000E-01  1.000000
 
  3 S  2.97400000E-02  1.000000
 
  4 P  7.27000000E-01  1.000000
 
  5 P  1.41000000E-01  1.000000
 


 Summary of "ao basis" -> "ao basis" (spherical)
 ------------------------------------------------------------------------------
       Tag                 Description            Shells   Functions and Types
 ---------------- ------------------------------  ------  ---------------------
 C                        aug-cc-pVDZ                9       23   4s3p2d
 N                        aug-cc-pVDZ                9       23   4s3p2d
 H                        aug-cc-pVDZ                5        9   3s2p


                                 NWChem SCF Module
                                 -----------------
 
 
                                      ch3nh2
 
 

  ao basis        = "ao basis"
  functions       =    91
  atoms           =     7
  closed shells   =     9
  open shells     =     0
  charge          =   0.00
  wavefunction    = RHF 
  input vectors   = atomic
  output vectors  = ./ch3nh2.movecs
  use symmetry    = F
  symmetry adapt  = F


 Summary of "ao basis" -> "ao basis" (spherical)
 ------------------------------------------------------------------------------
       Tag                 Description            Shells   Functions and Types
 ---------------- ------------------------------  ------  ---------------------
 C                        aug-cc-pVDZ                9       23   4s3p2d
 N                        aug-cc-pVDZ                9       23   4s3p2d
 H                        aug-cc-pVDZ                5        9   3s2p



 Forming initial guess at       0.1s

 
      Superposition of Atomic Density Guess
      -------------------------------------
 
 Sum of atomic energies:         -94.46640660
 
      Non-variational initial energy
      ------------------------------

 Total energy =     -95.652386
 1-e energy   =    -209.060691
 2-e energy   =      71.331924
 HOMO         =      -0.318255
 LUMO         =       0.017418
 

 Starting SCF solution at       0.8s



 ----------------------------------------------
         Quadratically convergent ROHF

 Convergence threshold     :          1.000E-04
 Maximum no. of iterations :           30
 Final Fock-matrix accuracy:          1.000E-07
 ----------------------------------------------


 Integral file          = /scratch/6216987/ch3nh2.aoints.0
 Record size in doubles =    65536    No. of integs per rec  =    43688
 Max. records in memory =      275    Max. records in file   =  1602537
 No. of bits per label  =        8    No. of bits per value  =       64


 #quartets = 4.479D+05 #integrals = 8.441D+06 #direct =  0.0% #cached =100.0%


              iter       energy          gnorm     gmax       time
             ----- ------------------- --------- --------- --------
                 1      -95.1982980920  6.70D-01  1.37D-01      2.4
                 2      -95.2243957941  2.78D-01  6.99D-02      2.6
                 3      -95.2292382364  9.00D-03  1.76D-03      3.1
                 4      -95.2292517340  7.87D-05  2.02D-05      3.9


       Final RHF  results 
       ------------------ 

         Total SCF energy =    -95.229251733997
      One-electron energy =   -211.437121789366
      Two-electron energy =     74.131489914184
 Nuclear repulsion energy =     42.076380141186

        Time for solution =      3.2s


             Final eigenvalues
             -----------------

              1      
    1  -15.5447
    2  -11.2483
    3   -1.1703
    4   -0.8936
    5   -0.6684
    6   -0.5978
    7   -0.5555
    8   -0.5229
    9   -0.3856
   10    0.0359
   11    0.0519
   12    0.0532
   13    0.0614
   14    0.0827
   15    0.1156
   16    0.1523
   17    0.1525
   18    0.1713
   19    0.1756
 
                       ROHF Final Molecular Orbital Analysis
                       -------------------------------------
 
 Vector    1  Occ=2.000000D+00  E=-1.554467D+01
              MO Center= -7.2D-01, -7.2D-02, -3.7D-15, r^2= 2.0D-02
   Bfn.  Coefficient  Atom+Function         Bfn.  Coefficient  Atom+Function  
  ----- ------------  ---------------      ----- ------------  ---------------
    24      1.002483  2 N  s          
 
 Vector    2  Occ=2.000000D+00  E=-1.124832D+01
              MO Center=  7.5D-01,  1.1D-02,  1.3D-15, r^2= 2.7D-02
   Bfn.  Coefficient  Atom+Function         Bfn.  Coefficient  Atom+Function  
  ----- ------------  ---------------      ----- ------------  ---------------
     1      1.003368  1 C  s          
 
 Vector    3  Occ=2.000000D+00  E=-1.170266D+00
              MO Center= -4.5D-01,  6.9D-02,  1.2D-13, r^2= 9.1D-01
   Bfn.  Coefficient  Atom+Function         Bfn.  Coefficient  Atom+Function  
  ----- ------------  ---------------      ----- ------------  ---------------
    25      0.367525  2 N  s                 26      0.325817  2 N  s          
     2      0.181327  1 C  s                 74      0.177727  6 H  s          
    83      0.177727  7 H  s          
 
 Vector    4  Occ=2.000000D+00  E=-8.936241D-01
              MO Center=  4.6D-01,  4.0D-02,  1.2D-13, r^2= 1.7D+00
   Bfn.  Coefficient  Atom+Function         Bfn.  Coefficient  Atom+Function  
  ----- ------------  ---------------      ----- ------------  ---------------
     2      0.336586  1 C  s                 56      0.189807  4 H  s          
    65      0.189807  5 H  s                 47      0.182700  3 H  s          
    25     -0.170269  2 N  s                 28      0.150431  2 N  px         
 
 Vector    5  Occ=2.000000D+00  E=-6.684443D-01
              MO Center= -4.3D-01,  4.9D-02, -3.8D-13, r^2= 1.5D+00
   Bfn.  Coefficient  Atom+Function         Bfn.  Coefficient  Atom+Function  
  ----- ------------  ---------------      ----- ------------  ---------------
    30      0.393528  2 N  pz                74     -0.285372  6 H  s          
    83      0.285372  7 H  s                  7      0.217128  1 C  pz         
    33      0.160891  2 N  pz         
 
 Vector    6  Occ=2.000000D+00  E=-5.977879D-01
              MO Center=  4.0D-01,  2.7D-01,  1.1D-13, r^2= 1.5D+00
   Bfn.  Coefficient  Atom+Function         Bfn.  Coefficient  Atom+Function  
  ----- ------------  ---------------      ----- ------------  ---------------
     6      0.347331  1 C  py                47      0.332938  3 H  s          
    48      0.240790  3 H  s                 29      0.230691  2 N  py         
    28     -0.164596  2 N  px                32      0.158179  2 N  py         
     5      0.153629  1 C  px         
 
 Vector    7  Occ=2.000000D+00  E=-5.554918D-01
              MO Center=  1.8D-01, -7.4D-02,  9.2D-13, r^2= 1.7D+00
   Bfn.  Coefficient  Atom+Function         Bfn.  Coefficient  Atom+Function  
  ----- ------------  ---------------      ----- ------------  ---------------
    28     -0.370207  2 N  px                 5      0.340781  1 C  px         
    31     -0.210943  2 N  px                 6     -0.198527  1 C  py         
    56      0.191219  4 H  s                 65      0.191219  5 H  s          
     8      0.168276  1 C  px         
 
 Vector    8  Occ=2.000000D+00  E=-5.228722D-01
              MO Center=  5.1D-01, -1.4D-01, -1.8D-12, r^2= 1.9D+00
   Bfn.  Coefficient  Atom+Function         Bfn.  Coefficient  Atom+Function  
  ----- ------------  ---------------      ----- ------------  ---------------
     7      0.379696  1 C  pz                56      0.298698  4 H  s          
    65     -0.298698  5 H  s                 57      0.296334  4 H  s          
    66     -0.296334  5 H  s                 30     -0.230509  2 N  pz         
    74      0.195362  6 H  s                 83     -0.195362  7 H  s          
 
 Vector    9  Occ=2.000000D+00  E=-3.855922D-01
              MO Center= -4.5D-01, -8.0D-02, -1.6D-13, r^2= 1.6D+00
   Bfn.  Coefficient  Atom+Function         Bfn.  Coefficient  Atom+Function  
  ----- ------------  ---------------      ----- ------------  ---------------
    29      0.495313  2 N  py                32      0.370616  2 N  py         
    26     -0.238168  2 N  s                 48     -0.212116  3 H  s          
    47     -0.210641  3 H  s                  6     -0.169569  1 C  py         
    27     -0.164677  2 N  s          
 
 Vector   10  Occ=0.000000D+00  E= 3.588849D-02
              MO Center=  2.3D-01,  1.0D+00,  5.5D-11, r^2= 1.7D+01
   Bfn.  Coefficient  Atom+Function         Bfn.  Coefficient  Atom+Function  
  ----- ------------  ---------------      ----- ------------  ---------------
     4      4.540809  1 C  s                 49     -1.276991  3 H  s          
    27     -0.867877  2 N  s                 76     -0.832749  6 H  s          
    85     -0.832749  7 H  s                 34     -0.824918  2 N  px         
     3      0.774654  1 C  s                 48     -0.609291  3 H  s          
    11     -0.531926  1 C  px                58     -0.467332  4 H  s          
 
 Vector   11  Occ=0.000000D+00  E= 5.186020D-02
              MO Center=  9.8D-02, -8.0D-02, -3.0D-11, r^2= 2.1D+01
   Bfn.  Coefficient  Atom+Function         Bfn.  Coefficient  Atom+Function  
  ----- ------------  ---------------      ----- ------------  ---------------
     4      2.334374  1 C  s                 58     -1.990101  4 H  s          
    67     -1.990101  5 H  s                 27     -1.562663  2 N  s          
    76      1.567594  6 H  s                 85      1.567594  7 H  s          
    11      0.645448  1 C  px                57     -0.645835  4 H  s          
    66     -0.645835  5 H  s                 12     -0.590220  1 C  py         
 
 Vector   12  Occ=0.000000D+00  E= 5.315754D-02
              MO Center= -1.8D-01, -1.8D-01, -2.0D-10, r^2= 2.1D+01
   Bfn.  Coefficient  Atom+Function         Bfn.  Coefficient  Atom+Function  
  ----- ------------  ---------------      ----- ------------  ---------------
    58      2.581066  4 H  s                 67     -2.581066  5 H  s          
    76     -2.261040  6 H  s                 85      2.261040  7 H  s          
    13     -1.330017  1 C  pz                36     -0.749162  2 N  pz         
    57      0.528740  4 H  s                 66     -0.528740  5 H  s          
    75     -0.466713  6 H  s                 84      0.466713  7 H  s          
 
 Vector   13  Occ=0.000000D+00  E= 6.142203D-02
              MO Center=  1.1D+00,  1.3D+00,  2.0D-10, r^2= 1.9D+01
   Bfn.  Coefficient  Atom+Function         Bfn.  Coefficient  Atom+Function  
  ----- ------------  ---------------      ----- ------------  ---------------
    49      5.508124  3 H  s                 58     -2.237431  4 H  s          
    67     -2.237431  5 H  s                 12     -2.021456  1 C  py         
    76     -0.746439  6 H  s                 85     -0.746439  7 H  s          
    27      0.667221  2 N  s                 35      0.442159  2 N  py         
    34     -0.312049  2 N  px                48      0.261314  3 H  s          
 
 Vector   14  Occ=0.000000D+00  E= 8.269855D-02
              MO Center=  3.4D-01, -1.9D-01, -3.3D-11, r^2= 2.2D+01
   Bfn.  Coefficient  Atom+Function         Bfn.  Coefficient  Atom+Function  
  ----- ------------  ---------------      ----- ------------  ---------------
    58      4.658909  4 H  s                 67     -4.658909  5 H  s          
    76      3.379097  6 H  s                 85     -3.379097  7 H  s          
    13     -1.827389  1 C  pz                36      1.221948  2 N  pz         
    75      0.518602  6 H  s                 84     -0.518602  7 H  s          
    57     -0.187532  4 H  s                 66      0.187532  5 H  s          
 
 Vector   15  Occ=0.000000D+00  E= 1.156136D-01
              MO Center=  9.4D-01,  1.2D-02,  5.9D-12, r^2= 1.5D+01
   Bfn.  Coefficient  Atom+Function         Bfn.  Coefficient  Atom+Function  
  ----- ------------  ---------------      ----- ------------  ---------------
    27      7.086021  2 N  s                  4     -6.059735  1 C  s          
    11      4.543519  1 C  px                34      1.967933  2 N  px         
    76      1.829924  6 H  s                 85      1.829924  7 H  s          
    49     -1.409600  3 H  s                 58     -0.668912  4 H  s          
    67     -0.668912  5 H  s                  8      0.661770  1 C  px         
 
 Vector   16  Occ=0.000000D+00  E= 1.523460D-01
              MO Center=  8.4D-01, -1.2D-01,  1.5D-08, r^2= 1.4D+01
   Bfn.  Coefficient  Atom+Function         Bfn.  Coefficient  Atom+Function  
  ----- ------------  ---------------      ----- ------------  ---------------
    49      6.281197  3 H  s                 12     -4.669339  1 C  py         
    48      3.461094  3 H  s                 58     -2.552180  4 H  s          
    67     -2.552180  5 H  s                 27     -1.580444  2 N  s          
     9     -1.356318  1 C  py                34     -1.002813  2 N  px         
    57     -0.818812  4 H  s                 66     -0.818812  5 H  s          
 
 Vector   17  Occ=0.000000D+00  E= 1.524564D-01
              MO Center=  8.2D-01,  5.2D-01, -1.5D-08, r^2= 1.4D+01
   Bfn.  Coefficient  Atom+Function         Bfn.  Coefficient  Atom+Function  
  ----- ------------  ---------------      ----- ------------  ---------------
    13      5.267705  1 C  pz                58     -4.759580  4 H  s          
    67      4.759580  5 H  s                 57     -2.479534  4 H  s          
    66      2.479534  5 H  s                 36     -1.572937  2 N  pz         
    10      1.278617  1 C  pz                76      0.793035  6 H  s          
    85     -0.793035  7 H  s                 75     -0.688442  6 H  s          
 
 Vector   18  Occ=0.000000D+00  E= 1.712927D-01
              MO Center= -4.1D-01, -1.6D-02,  1.1D-11, r^2= 1.3D+01
   Bfn.  Coefficient  Atom+Function         Bfn.  Coefficient  Atom+Function  
  ----- ------------  ---------------      ----- ------------  ---------------
    27      5.032289  2 N  s                 35      2.757563  2 N  py         
    12     -2.410111  1 C  py                 4      1.967024  1 C  s          
    75     -1.884891  6 H  s                 84     -1.884891  7 H  s          
     3      1.614513  1 C  s                 57     -1.513611  4 H  s          
    66     -1.513611  5 H  s                 58     -1.359767  4 H  s          
 
 Vector   19  Occ=0.000000D+00  E= 1.755608D-01
              MO Center=  8.7D-01, -1.9D-01,  6.3D-11, r^2= 1.4D+01
   Bfn.  Coefficient  Atom+Function         Bfn.  Coefficient  Atom+Function  
  ----- ------------  ---------------      ----- ------------  ---------------
     4     12.139972  1 C  s                 27     -6.815349  2 N  s          
    34     -2.590104  2 N  px                58     -1.633319  4 H  s          
    67     -1.633319  5 H  s                 35     -1.417185  2 N  py         
    57     -1.421126  4 H  s                 66     -1.421126  5 H  s          
     3      1.365482  1 C  s                 48     -1.243062  3 H  s          
 
 Vector   20  Occ=0.000000D+00  E= 1.973321D-01
              MO Center= -1.6D+00,  1.5D-02,  1.5D-11, r^2= 1.1D+01
   Bfn.  Coefficient  Atom+Function         Bfn.  Coefficient  Atom+Function  
  ----- ------------  ---------------      ----- ------------  ---------------
    34      3.099795  2 N  px                76      2.031429  6 H  s          
    85      2.031429  7 H  s                 57     -1.676333  4 H  s          
    66     -1.676333  5 H  s                 58     -1.468859  4 H  s          
    67     -1.468859  5 H  s                 27     -1.303509  2 N  s          
    11      1.190271  1 C  px                75      1.151237  6 H  s          
 
 Vector   21  Occ=0.000000D+00  E= 2.098648D-01
              MO Center= -9.5D-01, -3.1D-01, -7.4D-11, r^2= 1.2D+01
   Bfn.  Coefficient  Atom+Function         Bfn.  Coefficient  Atom+Function  
  ----- ------------  ---------------      ----- ------------  ---------------
    36      3.847349  2 N  pz                76      3.090238  6 H  s          
    85     -3.090238  7 H  s                 75      2.490162  6 H  s          
    84     -2.490162  7 H  s                 57     -1.149143  4 H  s          
    66      1.149143  5 H  s                 10      0.678549  1 C  pz         
    33      0.432262  2 N  pz                82      0.420675  6 H  pz         
 
 Vector   22  Occ=0.000000D+00  E= 2.712955D-01
              MO Center=  2.7D-01,  5.4D-01,  2.6D-11, r^2= 7.9D+00
   Bfn.  Coefficient  Atom+Function         Bfn.  Coefficient  Atom+Function  
  ----- ------------  ---------------      ----- ------------  ---------------
    27      6.335319  2 N  s                  4     -5.588292  1 C  s          
    49      2.293736  3 H  s                 11      2.157537  1 C  px         
    34      2.017129  2 N  px                12     -1.311629  1 C  py         
    58     -1.253920  4 H  s                 67     -1.253920  5 H  s          
     8      0.685414  1 C  px                48     -0.663048  3 H  s          
 
 Vector   23  Occ=0.000000D+00  E= 2.932670D-01
              MO Center=  2.5D-01, -1.5D-01, -2.2D-11, r^2= 9.1D+00
   Bfn.  Coefficient  Atom+Function         Bfn.  Coefficient  Atom+Function  
  ----- ------------  ---------------      ----- ------------  ---------------
    27     11.138012  2 N  s                  4     -8.979328  1 C  s          
    34      4.111087  2 N  px                11      3.629024  1 C  px         
    48      2.024883  3 H  s                 49     -1.948599  3 H  s          
    57     -1.753537  4 H  s                 66     -1.753537  5 H  s          
    76      1.313033  6 H  s                 85      1.313033  7 H  s          
 
 Vector   24  Occ=0.000000D+00  E= 2.971043D-01
              MO Center=  6.2D-01, -1.4D-01,  2.8D-11, r^2= 7.7D+00
   Bfn.  Coefficient  Atom+Function         Bfn.  Coefficient  Atom+Function  
  ----- ------------  ---------------      ----- ------------  ---------------
    58      2.953507  4 H  s                 67     -2.953507  5 H  s          
    13     -1.921806  1 C  pz                76      1.642124  6 H  s          
    85     -1.642124  7 H  s                 36      1.536719  2 N  pz         
    57     -1.528881  4 H  s                 66      1.528881  5 H  s          
    75      0.916851  6 H  s                 84     -0.916851  7 H  s          
 
 Vector   25  Occ=0.000000D+00  E= 3.200551D-01
              MO Center= -3.1D-01,  4.2D-02, -3.1D-13, r^2= 6.3D+00
   Bfn.  Coefficient  Atom+Function         Bfn.  Coefficient  Atom+Function  
  ----- ------------  ---------------      ----- ------------  ---------------
    57      2.066467  4 H  s                 66     -2.066467  5 H  s          
    13     -0.933293  1 C  pz                10     -0.764365  1 C  pz         
    58      0.759889  4 H  s                 67     -0.759889  5 H  s          
    36     -0.749798  2 N  pz                22      0.580161  1 C  d  1       
    80      0.528720  6 H  px                89     -0.528720  7 H  px         
 
 Vector   26  Occ=0.000000D+00  E= 3.466135D-01
              MO Center=  3.8D-01,  6.4D-02, -3.8D-12, r^2= 6.6D+00
   Bfn.  Coefficient  Atom+Function         Bfn.  Coefficient  Atom+Function  
  ----- ------------  ---------------      ----- ------------  ---------------
    27      5.785793  2 N  s                  4     -4.920128  1 C  s          
    11      2.084676  1 C  px                 8      1.366498  1 C  px         
    48     -1.308007  3 H  s                 34      1.164709  2 N  px         
    49     -1.035501  3 H  s                 12      0.933490  1 C  py         
    76      0.652365  6 H  s                 85      0.652365  7 H  s          
 
 Vector   27  Occ=0.000000D+00  E= 3.691132D-01
              MO Center=  1.7D-01,  1.9D-01,  2.4D-12, r^2= 6.4D+00
   Bfn.  Coefficient  Atom+Function         Bfn.  Coefficient  Atom+Function  
  ----- ------------  ---------------      ----- ------------  ---------------
    27      6.325307  2 N  s                 75     -2.029569  6 H  s          
    84     -2.029569  7 H  s                 48     -1.772741  3 H  s          
     4     -1.453143  1 C  s                 34      1.281877  2 N  px         
    12      1.086246  1 C  py                49     -0.763647  3 H  s          
    62      0.702369  4 H  px                71      0.702369  5 H  px         
 
 Vector   28  Occ=0.000000D+00  E= 4.023706D-01
              MO Center=  2.3D-01,  1.6D-01,  1.3D-11, r^2= 6.9D+00
   Bfn.  Coefficient  Atom+Function         Bfn.  Coefficient  Atom+Function  
  ----- ------------  ---------------      ----- ------------  ---------------
    57      1.538658  4 H  s                 66     -1.538658  5 H  s          
    10     -1.388254  1 C  pz                36      1.239012  2 N  pz         
    55      1.085755  3 H  pz                13     -1.000215  1 C  pz         
    63      0.985569  4 H  py                72     -0.985569  5 H  py         
    22      0.824424  1 C  d  1              62      0.771676  4 H  px         
 
 Vector   29  Occ=0.000000D+00  E= 4.042653D-01
              MO Center=  4.4D-01,  2.0D-01, -5.6D-12, r^2= 6.9D+00
   Bfn.  Coefficient  Atom+Function         Bfn.  Coefficient  Atom+Function  
  ----- ------------  ---------------      ----- ------------  ---------------
    27      5.155474  2 N  s                  4     -2.714898  1 C  s          
    34      1.960630  2 N  px                75     -1.754281  6 H  s          
    84     -1.754281  7 H  s                 48      1.675099  3 H  s          
    53      1.374377  3 H  px                 9     -1.350826  1 C  py         
    57     -1.222610  4 H  s                 66     -1.222610  5 H  s          
 
 Vector   30  Occ=0.000000D+00  E= 4.377748D-01
              MO Center=  9.0D-01,  3.3D-01,  6.4D-11, r^2= 7.2D+00
   Bfn.  Coefficient  Atom+Function         Bfn.  Coefficient  Atom+Function  
  ----- ------------  ---------------      ----- ------------  ---------------
     4      9.966134  1 C  s                 27     -6.001441  2 N  s          
    48     -5.556345  3 H  s                 49     -2.790663  3 H  s          
     3      1.985313  1 C  s                 12      1.923024  1 C  py         
     9      1.886707  1 C  py                75      1.272021  6 H  s          
    84      1.272021  7 H  s                  8      1.256140  1 C  px         
 
 Vector   31  Occ=0.000000D+00  E= 4.493400D-01
              MO Center=  3.7D-01,  4.5D-01,  6.1D-10, r^2= 8.0D+00
   Bfn.  Coefficient  Atom+Function         Bfn.  Coefficient  Atom+Function  
  ----- ------------  ---------------      ----- ------------  ---------------
    57      5.010965  4 H  s                 66     -5.010965  5 H  s          
    13     -3.994325  1 C  pz                10     -3.379965  1 C  pz         
    58      2.636518  4 H  s                 67     -2.636518  5 H  s          
    36      1.219254  2 N  pz                75      1.043171  6 H  s          
    84     -1.043171  7 H  s                 55      0.885171  3 H  pz         
 
 Vector   32  Occ=0.000000D+00  E= 4.503028D-01
              MO Center=  7.8D-01, -6.1D-01, -6.6D-10, r^2= 7.3D+00
   Bfn.  Coefficient  Atom+Function         Bfn.  Coefficient  Atom+Function  
  ----- ------------  ---------------      ----- ------------  ---------------
     4      7.924207  1 C  s                 27     -6.046796  2 N  s          
    57     -3.774033  4 H  s                 66     -3.774033  5 H  s          
    48      3.247320  3 H  s                 12     -3.049147  1 C  py         
     9     -3.016733  1 C  py                49      2.205866  3 H  s          
     8      2.119293  1 C  px                34     -2.059275  2 N  px         
 
 Vector   33  Occ=0.000000D+00  E= 4.806326D-01
              MO Center= -7.6D-01,  3.7D-01, -3.2D-12, r^2= 7.1D+00
   Bfn.  Coefficient  Atom+Function         Bfn.  Coefficient  Atom+Function  
  ----- ------------  ---------------      ----- ------------  ---------------
    27      9.075582  2 N  s                 75     -3.379690  6 H  s          
    84     -3.379690  7 H  s                 35      2.756649  2 N  py         
    48     -2.601569  3 H  s                  3      1.644090  1 C  s          
    57     -1.161203  4 H  s                 66     -1.161203  5 H  s          
    53      1.152972  3 H  px                 4     -1.059183  1 C  s          
 
 Vector   34  Occ=0.000000D+00  E= 4.918414D-01
              MO Center=  2.1D-01,  1.4D-01, -9.3D-12, r^2= 6.4D+00
   Bfn.  Coefficient  Atom+Function         Bfn.  Coefficient  Atom+Function  
  ----- ------------  ---------------      ----- ------------  ---------------
    57      2.256098  4 H  s                 66     -2.256098  5 H  s          
    36     -1.588593  2 N  pz                10     -1.240439  1 C  pz         
    82      1.185572  6 H  pz                91      1.185572  7 H  pz         
    63      1.102798  4 H  py                72     -1.102798  5 H  py         
    76     -0.894093  6 H  s                 85      0.894093  7 H  s          
 
 Vector   35  Occ=0.000000D+00  E= 5.318693D-01
              MO Center= -5.1D-01, -1.9D-01, -5.3D-12, r^2= 6.9D+00
   Bfn.  Coefficient  Atom+Function         Bfn.  Coefficient  Atom+Function  
  ----- ------------  ---------------      ----- ------------  ---------------
    27      7.956557  2 N  s                  4     -6.625614  1 C  s          
    34      4.263533  2 N  px                48      3.566829  3 H  s          
    57     -2.733281  4 H  s                 66     -2.733281  5 H  s          
     9     -2.351283  1 C  py                 3      1.570220  1 C  s          
    62      1.414807  4 H  px                71      1.414807  5 H  px         
 
 Vector   36  Occ=0.000000D+00  E= 5.419024D-01
              MO Center=  1.0D-02, -7.8D-02, -1.3D-11, r^2= 7.8D+00
   Bfn.  Coefficient  Atom+Function         Bfn.  Coefficient  Atom+Function  
  ----- ------------  ---------------      ----- ------------  ---------------
    75      4.655433  6 H  s                 84     -4.655433  7 H  s          
    36      3.062955  2 N  pz                10      2.583660  1 C  pz         
    57     -2.266244  4 H  s                 66      2.266244  5 H  s          
    62      1.693485  4 H  px                71     -1.693485  5 H  px         
    76      1.620563  6 H  s                 85     -1.620563  7 H  s          
 
 Vector   37  Occ=0.000000D+00  E= 5.777798D-01
              MO Center=  3.2D-02, -6.9D-02,  3.2D-10, r^2= 7.0D+00
   Bfn.  Coefficient  Atom+Function         Bfn.  Coefficient  Atom+Function  
  ----- ------------  ---------------      ----- ------------  ---------------
    57      3.122536  4 H  s                 66     -3.122536  5 H  s          
    64     -1.783347  4 H  pz                73     -1.783347  5 H  pz         
    82      1.568945  6 H  pz                91      1.568945  7 H  pz         
    36     -1.399362  2 N  pz                10     -1.283918  1 C  pz         
    75      0.886721  6 H  s                 84     -0.886721  7 H  s          
 
 Vector   38  Occ=0.000000D+00  E= 5.783342D-01
              MO Center=  1.1D+00, -2.3D-02, -3.1D-10, r^2= 5.9D+00
   Bfn.  Coefficient  Atom+Function         Bfn.  Coefficient  Atom+Function  
  ----- ------------  ---------------      ----- ------------  ---------------
     3      9.494961  1 C  s                  4      5.273607  1 C  s          
    57     -3.985064  4 H  s                 66     -3.985064  5 H  s          
    48     -3.392130  3 H  s                  8      2.595548  1 C  px         
    27     -2.076628  2 N  s                 54      1.861356  3 H  py         
    64      1.802118  4 H  pz                73     -1.802118  5 H  pz         
 
 Vector   39  Occ=0.000000D+00  E= 6.201531D-01
              MO Center=  2.3D-01,  2.4D-01, -2.5D-11, r^2= 6.2D+00
   Bfn.  Coefficient  Atom+Function         Bfn.  Coefficient  Atom+Function  
  ----- ------------  ---------------      ----- ------------  ---------------
    27      7.093314  2 N  s                 48      5.603409  3 H  s          
     3      4.748358  1 C  s                 57     -4.610064  4 H  s          
    66     -4.610064  5 H  s                 75     -3.210910  6 H  s          
    84     -3.210910  7 H  s                  4     -2.950443  1 C  s          
     9     -2.225010  1 C  py                54     -2.021473  3 H  py         
 
 Vector   40  Occ=0.000000D+00  E= 6.298087D-01
              MO Center=  5.8D-01, -1.4D-01, -1.9D-11, r^2= 5.6D+00
   Bfn.  Coefficient  Atom+Function         Bfn.  Coefficient  Atom+Function  
  ----- ------------  ---------------      ----- ------------  ---------------
    57      6.958093  4 H  s                 66     -6.958094  5 H  s          
    20      2.847461  1 C  d -1              10     -2.125844  1 C  pz         
    75      2.123275  6 H  s                 84     -2.123275  7 H  s          
    64     -2.036547  4 H  pz                73     -2.036547  5 H  pz         
    55     -1.721124  3 H  pz                58     -1.473311  4 H  s          
 
 Vector   41  Occ=0.000000D+00  E= 6.337214D-01
              MO Center=  1.8D-01,  1.2D-01, -1.0D-12, r^2= 6.3D+00
   Bfn.  Coefficient  Atom+Function         Bfn.  Coefficient  Atom+Function  
  ----- ------------  ---------------      ----- ------------  ---------------
    48     -3.684496  3 H  s                 27      3.359613  2 N  s          
    75     -2.562205  6 H  s                 84     -2.562205  7 H  s          
    26      2.448732  2 N  s                 57      1.715499  4 H  s          
    66      1.715499  5 H  s                 49      1.694365  3 H  s          
     8     -1.573998  1 C  px                63      1.575640  4 H  py         
 
 Vector   42  Occ=0.000000D+00  E= 6.631429D-01
              MO Center=  5.4D-01, -2.7D-01, -8.0D-10, r^2= 6.5D+00
   Bfn.  Coefficient  Atom+Function         Bfn.  Coefficient  Atom+Function  
  ----- ------------  ---------------      ----- ------------  ---------------
    57     13.913441  4 H  s                 66    -13.913441  5 H  s          
    10     -7.970108  1 C  pz                64     -4.801289  4 H  pz         
    73     -4.801289  5 H  pz                75      2.719010  6 H  s          
    84     -2.719010  7 H  s                 63      2.560687  4 H  py         
    72     -2.560687  5 H  py                62     -2.138079  4 H  px         
 
 Vector   43  Occ=0.000000D+00  E= 6.701141D-01
              MO Center=  7.6D-01,  5.6D-01,  8.6D-10, r^2= 5.9D+00
   Bfn.  Coefficient  Atom+Function         Bfn.  Coefficient  Atom+Function  
  ----- ------------  ---------------      ----- ------------  ---------------
    48     14.092007  3 H  s                  9     -7.305670  1 C  py         
    57     -6.974103  4 H  s                 66     -6.974103  5 H  s          
    54     -6.144937  3 H  py                64      2.502869  4 H  pz         
    73     -2.502869  5 H  pz                63     -1.702454  4 H  py         
    72     -1.702454  5 H  py                27     -1.499787  2 N  s          
 
 Vector   44  Occ=0.000000D+00  E= 6.820420D-01
              MO Center= -4.2D-01,  3.0D-01, -1.2D-11, r^2= 6.3D+00
   Bfn.  Coefficient  Atom+Function         Bfn.  Coefficient  Atom+Function  
  ----- ------------  ---------------      ----- ------------  ---------------
    75      8.391820  6 H  s                 84     -8.391820  7 H  s          
    82      3.694075  6 H  pz                91      3.694075  7 H  pz         
    33      2.736268  2 N  pz                57     -2.192058  4 H  s          
    66      2.192058  5 H  s                 80      1.330487  6 H  px         
    89     -1.330487  7 H  px                36      1.319740  2 N  pz         
 
 Vector   45  Occ=0.000000D+00  E= 6.853487D-01
              MO Center=  3.1D-02,  5.2D-01, -4.9D-11, r^2= 6.2D+00
   Bfn.  Coefficient  Atom+Function         Bfn.  Coefficient  Atom+Function  
  ----- ------------  ---------------      ----- ------------  ---------------
    48     11.025485  3 H  s                  3     -5.229191  1 C  s          
     9     -3.673785  1 C  py                54     -3.612268  3 H  py         
    53     -3.032736  3 H  px                26      2.894364  2 N  s          
    75     -2.589994  6 H  s                 84     -2.589994  7 H  s          
    80     -1.945085  6 H  px                89     -1.945085  7 H  px         
 
 Vector   46  Occ=0.000000D+00  E= 7.116963D-01
              MO Center=  1.1D-01,  2.3D-02,  8.5D-12, r^2= 5.3D+00
   Bfn.  Coefficient  Atom+Function         Bfn.  Coefficient  Atom+Function  
  ----- ------------  ---------------      ----- ------------  ---------------
    57      4.908203  4 H  s                 66     -4.908203  5 H  s          
    10     -2.466134  1 C  pz                20      2.197311  1 C  d -1       
    22     -2.048506  1 C  d  1              55     -2.040221  3 H  pz         
    64     -2.040976  4 H  pz                73     -2.040976  5 H  pz         
    62     -1.890224  4 H  px                71      1.890224  5 H  px         
 
 Vector   47  Occ=0.000000D+00  E= 7.331496D-01
              MO Center=  6.3D-01,  4.0D-02,  1.7D-11, r^2= 5.0D+00
   Bfn.  Coefficient  Atom+Function         Bfn.  Coefficient  Atom+Function  
  ----- ------------  ---------------      ----- ------------  ---------------
    57      4.006092  4 H  s                 66      4.006092  5 H  s          
     3     -3.374993  1 C  s                 21     -2.427871  1 C  d  0       
     4     -2.338841  1 C  s                 19     -2.302862  1 C  d -2       
    62     -2.118546  4 H  px                71     -2.118546  5 H  px         
     9      1.632273  1 C  py                63      1.406567  4 H  py         
 
 Vector   48  Occ=0.000000D+00  E= 7.411211D-01
              MO Center=  6.3D-01, -7.0D-02, -2.1D-13, r^2= 4.6D+00
   Bfn.  Coefficient  Atom+Function         Bfn.  Coefficient  Atom+Function  
  ----- ------------  ---------------      ----- ------------  ---------------
     8      4.710623  1 C  px                48     -3.518437  3 H  s          
    31      2.965406  2 N  px                23     -2.912097  1 C  d  2       
    26      2.658607  2 N  s                 57     -2.398022  4 H  s          
    66     -2.398022  5 H  s                 75      2.188977  6 H  s          
    84      2.188977  7 H  s                 19     -1.997074  1 C  d -2       
 
 Vector   49  Occ=0.000000D+00  E= 8.559141D-01
              MO Center= -4.8D-02,  1.4D-01,  2.1D-12, r^2= 4.9D+00
   Bfn.  Coefficient  Atom+Function         Bfn.  Coefficient  Atom+Function  
  ----- ------------  ---------------      ----- ------------  ---------------
     8      6.076326  1 C  px                27      3.942033  2 N  s          
     3     -3.398087  1 C  s                  4     -3.094603  1 C  s          
    26      2.715594  2 N  s                 48     -2.569881  3 H  s          
    31      2.490252  2 N  px                 9      1.954634  1 C  py         
    11      1.602996  1 C  px                75      1.495741  6 H  s          
 
 Vector   50  Occ=0.000000D+00  E= 8.750968D-01
              MO Center=  1.3D-02,  8.3D-02, -6.2D-12, r^2= 4.7D+00
   Bfn.  Coefficient  Atom+Function         Bfn.  Coefficient  Atom+Function  
  ----- ------------  ---------------      ----- ------------  ---------------
    75      4.236288  6 H  s                 84     -4.236288  7 H  s          
    57      4.205212  4 H  s                 66     -4.205212  5 H  s          
    22      3.530734  1 C  d  1              10     -2.132533  1 C  pz         
    63      1.681405  4 H  py                72     -1.681405  5 H  py         
    20     -1.641761  1 C  d -1              36      1.560316  2 N  pz         
 
 Vector   51  Occ=0.000000D+00  E= 9.025193D-01
              MO Center= -4.0D-01, -1.1D-02,  8.8D-13, r^2= 4.4D+00
   Bfn.  Coefficient  Atom+Function         Bfn.  Coefficient  Atom+Function  
  ----- ------------  ---------------      ----- ------------  ---------------
    27      9.977515  2 N  s                 75     -4.892396  6 H  s          
    84     -4.892396  7 H  s                  4     -4.164789  1 C  s          
    48      3.478577  3 H  s                 19     -2.608253  1 C  d -2       
     8     -2.247748  1 C  px                34      2.145793  2 N  px         
    54     -2.015494  3 H  py                57     -1.653157  4 H  s          
 
 Vector   52  Occ=0.000000D+00  E= 1.013315D+00
              MO Center= -2.8D-01, -2.0D-01, -3.7D-12, r^2= 4.3D+00
   Bfn.  Coefficient  Atom+Function         Bfn.  Coefficient  Atom+Function  
  ----- ------------  ---------------      ----- ------------  ---------------
    27      5.282492  2 N  s                  8     -3.737295  1 C  px         
    48      3.344925  3 H  s                 75     -3.090273  6 H  s          
    84     -3.090273  7 H  s                  3      2.294673  1 C  s          
    19     -2.281059  1 C  d -2               4     -1.965540  1 C  s          
    42     -1.819232  2 N  d -2              54     -1.652178  3 H  py         
 
 Vector   53  Occ=0.000000D+00  E= 1.033525D+00
              MO Center=  4.0D-01,  1.8D-01,  9.3D-12, r^2= 3.8D+00
   Bfn.  Coefficient  Atom+Function         Bfn.  Coefficient  Atom+Function  
  ----- ------------  ---------------      ----- ------------  ---------------
    75      5.154096  6 H  s                 84     -5.154096  7 H  s          
    10      3.388848  1 C  pz                22      3.255279  1 C  d  1       
    45      1.834377  2 N  d  1              57      1.482581  4 H  s          
    66     -1.482581  5 H  s                 82      1.440368  6 H  pz         
    91      1.440368  7 H  pz                64     -1.207924  4 H  pz         
 
 Vector   54  Occ=0.000000D+00  E= 1.095641D+00
              MO Center=  9.6D-01, -1.7D-01, -7.6D-11, r^2= 3.6D+00
   Bfn.  Coefficient  Atom+Function         Bfn.  Coefficient  Atom+Function  
  ----- ------------  ---------------      ----- ------------  ---------------
     4      7.571082  1 C  s                 27     -4.308750  2 N  s          
     8      3.677768  1 C  px                57     -3.601106  4 H  s          
    66     -3.601106  5 H  s                  3      2.274627  1 C  s          
    48     -1.553701  3 H  s                 75      1.427741  6 H  s          
    84      1.427741  7 H  s                  9     -1.370993  1 C  py         
 
 Vector   55  Occ=0.000000D+00  E= 1.103180D+00
              MO Center= -2.0D-01,  2.1D-02,  8.8D-11, r^2= 4.2D+00
   Bfn.  Coefficient  Atom+Function         Bfn.  Coefficient  Atom+Function  
  ----- ------------  ---------------      ----- ------------  ---------------
    75      5.702279  6 H  s                 84     -5.702279  7 H  s          
    57      4.595101  4 H  s                 66     -4.595101  5 H  s          
    22      2.809302  1 C  d  1              10     -2.440987  1 C  pz         
    13     -2.017544  1 C  pz                45      1.698189  2 N  d  1       
    82      1.704657  6 H  pz                91      1.704657  7 H  pz         
 
 Vector   56  Occ=0.000000D+00  E= 1.116385D+00
              MO Center=  2.7D-01,  2.4D-01, -1.2D-11, r^2= 4.1D+00
   Bfn.  Coefficient  Atom+Function         Bfn.  Coefficient  Atom+Function  
  ----- ------------  ---------------      ----- ------------  ---------------
    48      5.831689  3 H  s                 27      5.428022  2 N  s          
     4     -4.307673  1 C  s                  9     -4.193401  1 C  py         
    57     -2.863686  4 H  s                 66     -2.863686  5 H  s          
    12     -1.740566  1 C  py                 8      1.621427  1 C  px         
    54     -1.581326  3 H  py                49      1.523519  3 H  s          
 
 Vector   57  Occ=0.000000D+00  E= 1.263952D+00
              MO Center= -2.6D-01,  2.4D-03,  2.5D-12, r^2= 3.6D+00
   Bfn.  Coefficient  Atom+Function         Bfn.  Coefficient  Atom+Function  
  ----- ------------  ---------------      ----- ------------  ---------------
    48      4.367867  3 H  s                  9     -3.324732  1 C  py         
    26     -3.313183  2 N  s                  8     -2.851303  1 C  px         
    27     -1.880422  2 N  s                 57     -1.816044  4 H  s          
    66     -1.816044  5 H  s                 75      1.641725  6 H  s          
    84      1.641725  7 H  s                 54     -1.351384  3 H  py         
 
 Vector   58  Occ=0.000000D+00  E= 1.313831D+00
              MO Center= -5.3D-01,  9.6D-02,  3.8D-12, r^2= 3.4D+00
   Bfn.  Coefficient  Atom+Function         Bfn.  Coefficient  Atom+Function  
  ----- ------------  ---------------      ----- ------------  ---------------
     8      6.971467  1 C  px                27     -4.280137  2 N  s          
    75      4.171852  6 H  s                 84      4.171852  7 H  s          
    31      3.839663  2 N  px                48     -3.785605  3 H  s          
     4      2.622583  1 C  s                 23     -2.022735  1 C  d  2       
    26      1.573921  2 N  s                 57     -1.560951  4 H  s          
 
 Vector   59  Occ=0.000000D+00  E= 1.368851D+00
              MO Center= -1.7D-01, -2.6D-02, -5.9D-12, r^2= 3.6D+00
   Bfn.  Coefficient  Atom+Function         Bfn.  Coefficient  Atom+Function  
  ----- ------------  ---------------      ----- ------------  ---------------
    57      7.922410  4 H  s                 66     -7.922410  5 H  s          
    10     -6.486634  1 C  pz                75     -4.490331  6 H  s          
    84      4.490331  7 H  s                 33     -2.361410  2 N  pz         
    64     -1.809957  4 H  pz                73     -1.809957  5 H  pz         
    36     -1.531582  2 N  pz                13     -1.225766  1 C  pz         
 
 Vector   60  Occ=0.000000D+00  E= 1.413903D+00
              MO Center=  2.4D-01, -1.9D-01, -1.6D-12, r^2= 3.5D+00
   Bfn.  Coefficient  Atom+Function         Bfn.  Coefficient  Atom+Function  
  ----- ------------  ---------------      ----- ------------  ---------------
    48      8.455164  3 H  s                  9     -5.407532  1 C  py         
    57     -4.391305  4 H  s                 66     -4.391305  5 H  s          
    27     -2.804751  2 N  s                 54     -2.054030  3 H  py         
    21      1.943276  1 C  d  0               4      1.569334  1 C  s          
     8      1.564555  1 C  px                32     -1.355635  2 N  py         
 
 Vector   61  Occ=0.000000D+00  E= 1.577138D+00
              MO Center=  3.2D-01, -1.5D-01, -5.2D-12, r^2= 3.4D+00
   Bfn.  Coefficient  Atom+Function         Bfn.  Coefficient  Atom+Function  
  ----- ------------  ---------------      ----- ------------  ---------------
    57      5.715809  4 H  s                 66     -5.715809  5 H  s          
    10     -4.800712  1 C  pz                20      3.431418  1 C  d -1       
    33      1.997507  2 N  pz                75      1.622844  6 H  s          
    84     -1.622844  7 H  s                 45     -1.202196  2 N  d  1       
    55     -1.029950  3 H  pz                62     -1.000417  4 H  px         
 
 Vector   62  Occ=0.000000D+00  E= 1.609560D+00
              MO Center= -8.3D-02,  4.5D-02,  6.9D-13, r^2= 3.0D+00
   Bfn.  Coefficient  Atom+Function         Bfn.  Coefficient  Atom+Function  
  ----- ------------  ---------------      ----- ------------  ---------------
    27      4.342891  2 N  s                  9     -3.559689  1 C  py         
    48      3.532135  3 H  s                  4     -3.487923  1 C  s          
    32      2.513318  2 N  py                 3     -2.436275  1 C  s          
    34      1.894538  2 N  px                21      1.679246  1 C  d  0       
    57     -1.300016  4 H  s                 66     -1.300016  5 H  s          
 
 Vector   63  Occ=0.000000D+00  E= 1.731354D+00
              MO Center=  6.4D-01, -3.7D-02,  5.4D-13, r^2= 2.4D+00
   Bfn.  Coefficient  Atom+Function         Bfn.  Coefficient  Atom+Function  
  ----- ------------  ---------------      ----- ------------  ---------------
    19      2.467821  1 C  d -2               3      2.318280  1 C  s          
    21      1.728890  1 C  d  0               4      1.460396  1 C  s          
    31     -1.324669  2 N  px                32      1.289988  2 N  py         
    27     -0.932216  2 N  s                 53     -0.907461  3 H  px         
     8     -0.899557  1 C  px                48     -0.897489  3 H  s          
 
 Vector   64  Occ=0.000000D+00  E= 1.754430D+00
              MO Center=  5.7D-01, -1.3D-02,  1.4D-12, r^2= 2.5D+00
   Bfn.  Coefficient  Atom+Function         Bfn.  Coefficient  Atom+Function  
  ----- ------------  ---------------      ----- ------------  ---------------
    22      2.552695  1 C  d  1              57      1.714002  4 H  s          
    66     -1.714002  5 H  s                 10     -1.436621  1 C  pz         
    20     -1.281977  1 C  d -1              33     -1.212190  2 N  pz         
    55      1.044886  3 H  pz                63      0.874965  4 H  py         
    72     -0.874965  5 H  py                17     -0.827248  1 C  d  1       
 
 Vector   65  Occ=0.000000D+00  E= 1.886660D+00
              MO Center=  1.1D+00,  2.5D-03,  5.2D-13, r^2= 2.0D+00
   Bfn.  Coefficient  Atom+Function         Bfn.  Coefficient  Atom+Function  
  ----- ------------  ---------------      ----- ------------  ---------------
    52      0.656013  3 H  pz                60     -0.572868  4 H  py         
    63      0.570726  4 H  py                69      0.572868  5 H  py         
    72     -0.570726  5 H  py                55     -0.523279  3 H  pz         
    61     -0.348024  4 H  pz                70     -0.348024  5 H  pz         
    64      0.277149  4 H  pz                73      0.277149  5 H  pz         
 
 Vector   66  Occ=0.000000D+00  E= 1.905779D+00
              MO Center=  4.6D-01,  2.1D-01, -3.9D-12, r^2= 3.5D+00
   Bfn.  Coefficient  Atom+Function         Bfn.  Coefficient  Atom+Function  
  ----- ------------  ---------------      ----- ------------  ---------------
     3     14.921636  1 C  s                 31     -4.400170  2 N  px         
    57     -4.145943  4 H  s                 66     -4.145943  5 H  s          
    75     -4.141782  6 H  s                 84     -4.141782  7 H  s          
     8     -4.078652  1 C  px                 4      3.108823  1 C  s          
    27      2.933774  2 N  s                  2     -1.868124  1 C  s          
 
 Vector   67  Occ=0.000000D+00  E= 1.927710D+00
              MO Center= -2.7D-01, -2.0D-03,  2.2D-12, r^2= 3.1D+00
   Bfn.  Coefficient  Atom+Function         Bfn.  Coefficient  Atom+Function  
  ----- ------------  ---------------      ----- ------------  ---------------
    75      3.009350  6 H  s                 84     -3.009350  7 H  s          
    33      1.574983  2 N  pz                20     -1.472012  1 C  d -1       
    57      1.289715  4 H  s                 66     -1.289715  5 H  s          
    36      1.268376  2 N  pz                43      1.219107  2 N  d -1       
    55      1.034192  3 H  pz                45      1.000429  2 N  d  1       
 
 Vector   68  Occ=0.000000D+00  E= 1.954014D+00
              MO Center= -1.8D-01, -4.5D-02, -2.6D-13, r^2= 3.3D+00
   Bfn.  Coefficient  Atom+Function         Bfn.  Coefficient  Atom+Function  
  ----- ------------  ---------------      ----- ------------  ---------------
     3      6.675797  1 C  s                  8      4.214060  1 C  px         
    48     -3.946598  3 H  s                 57     -3.533414  4 H  s          
    66     -3.533414  5 H  s                 31      2.676239  2 N  px         
     4      2.315345  1 C  s                 75      2.028895  6 H  s          
    84      2.028895  7 H  s                  2     -1.637587  1 C  s          
 
 Vector   69  Occ=0.000000D+00  E= 2.060689D+00
              MO Center= -1.4D-01,  9.4D-02,  1.6D-12, r^2= 3.0D+00
   Bfn.  Coefficient  Atom+Function         Bfn.  Coefficient  Atom+Function  
  ----- ------------  ---------------      ----- ------------  ---------------
    75      4.073440  6 H  s                 84     -4.073440  7 H  s          
    82      1.712239  6 H  pz                91      1.712239  7 H  pz         
    33      1.499561  2 N  pz                10      1.481235  1 C  pz         
    22      0.966107  1 C  d  1              57     -0.927928  4 H  s          
    66      0.927928  5 H  s                 45      0.902447  2 N  d  1       
 
 Vector   70  Occ=0.000000D+00  E= 2.095604D+00
              MO Center=  7.8D-01, -4.0D-02, -1.6D-12, r^2= 2.4D+00
   Bfn.  Coefficient  Atom+Function         Bfn.  Coefficient  Atom+Function  
  ----- ------------  ---------------      ----- ------------  ---------------
    48      4.805086  3 H  s                  8     -3.541118  1 C  px         
     3     -2.992486  1 C  s                  9     -2.891113  1 C  py         
    26     -1.878554  2 N  s                 54     -1.419072  3 H  py         
    31     -1.278661  2 N  px                32      1.176333  2 N  py         
    23      0.894546  1 C  d  2              42      0.714570  2 N  d -2       
 
 Vector   71  Occ=0.000000D+00  E= 2.113853D+00
              MO Center=  4.7D-01,  2.4D-01,  1.0D-12, r^2= 2.7D+00
   Bfn.  Coefficient  Atom+Function         Bfn.  Coefficient  Atom+Function  
  ----- ------------  ---------------      ----- ------------  ---------------
     3     10.054265  1 C  s                 48     -3.867360  3 H  s          
    57     -3.840955  4 H  s                 66     -3.840955  5 H  s          
     8      3.790402  1 C  px                 4      2.826032  1 C  s          
    54      1.515233  3 H  py                 2     -1.475993  1 C  s          
    75      0.922320  6 H  s                 84      0.922320  7 H  s          
 
 Vector   72  Occ=0.000000D+00  E= 2.165882D+00
              MO Center=  1.3D-01,  2.9D-01,  4.3D-13, r^2= 2.7D+00
   Bfn.  Coefficient  Atom+Function         Bfn.  Coefficient  Atom+Function  
  ----- ------------  ---------------      ----- ------------  ---------------
    48      7.523699  3 H  s                  9     -5.828864  1 C  py         
    57     -3.597112  4 H  s                 66     -3.597112  5 H  s          
    54     -2.646277  3 H  py                26      1.370638  2 N  s          
    27      1.371859  2 N  s                 64      1.166203  4 H  pz         
    73     -1.166203  5 H  pz                44      0.947068  2 N  d  0       
 
 Vector   73  Occ=0.000000D+00  E= 2.181491D+00
              MO Center=  8.3D-02, -4.9D-02, -8.7D-12, r^2= 3.0D+00
   Bfn.  Coefficient  Atom+Function         Bfn.  Coefficient  Atom+Function  
  ----- ------------  ---------------      ----- ------------  ---------------
    57      7.389767  4 H  s                 66     -7.389767  5 H  s          
    10     -5.134497  1 C  pz                75      3.851137  6 H  s          
    84     -3.851137  7 H  s                 64     -2.156678  4 H  pz         
    73     -2.156678  5 H  pz                33      1.759000  2 N  pz         
    22      1.422927  1 C  d  1              45      1.429907  2 N  d  1       
 
 Vector   74  Occ=0.000000D+00  E= 2.271506D+00
              MO Center= -9.9D-02,  1.6D-01,  4.5D-12, r^2= 3.0D+00
   Bfn.  Coefficient  Atom+Function         Bfn.  Coefficient  Atom+Function  
  ----- ------------  ---------------      ----- ------------  ---------------
    10      6.177284  1 C  pz                57     -5.809944  4 H  s          
    66      5.809944  5 H  s                 64      1.484081  4 H  pz         
    73      1.484081  5 H  pz                45      1.261727  2 N  d  1       
    75      1.226781  6 H  s                 84     -1.226781  7 H  s          
    20     -1.107592  1 C  d -1              33     -1.017856  2 N  pz         
 
 Vector   75  Occ=0.000000D+00  E= 2.327855D+00
              MO Center=  2.3D-01,  2.2D-01,  3.1D-12, r^2= 2.8D+00
   Bfn.  Coefficient  Atom+Function         Bfn.  Coefficient  Atom+Function  
  ----- ------------  ---------------      ----- ------------  ---------------
    48      8.031431  3 H  s                  9     -4.908176  1 C  py         
    57     -3.192114  4 H  s                 66     -3.192114  5 H  s          
    54     -2.397598  3 H  py                 3     -1.656820  1 C  s          
    21      1.141154  1 C  d  0              44     -1.004287  2 N  d  0       
    23      0.980921  1 C  d  2              27      0.977631  2 N  s          
 
 Vector   76  Occ=0.000000D+00  E= 2.333570D+00
              MO Center=  2.4D-01,  5.8D-02,  1.4D-13, r^2= 2.7D+00
   Bfn.  Coefficient  Atom+Function         Bfn.  Coefficient  Atom+Function  
  ----- ------------  ---------------      ----- ------------  ---------------
    57      2.886627  4 H  s                 66      2.886627  5 H  s          
    26      2.731710  2 N  s                 75     -2.576517  6 H  s          
    84     -2.576517  7 H  s                  3     -2.376536  1 C  s          
    31     -2.355103  2 N  px                27      2.032835  2 N  s          
     4     -1.964681  1 C  s                  8     -1.767793  1 C  px         
 
 Vector   77  Occ=0.000000D+00  E= 2.399772D+00
              MO Center= -1.5D-01, -1.1D-02,  5.8D-13, r^2= 2.8D+00
   Bfn.  Coefficient  Atom+Function         Bfn.  Coefficient  Atom+Function  
  ----- ------------  ---------------      ----- ------------  ---------------
    75      4.205798  6 H  s                 84     -4.205798  7 H  s          
    57     -2.698855  4 H  s                 66      2.698855  5 H  s          
    10      2.623741  1 C  pz                33      2.539641  2 N  pz         
    20     -1.682112  1 C  d -1              43      1.520362  2 N  d -1       
    45      1.308685  2 N  d  1              36      1.245312  2 N  pz         
 
 Vector   78  Occ=0.000000D+00  E= 2.467213D+00
              MO Center= -2.7D-01,  2.8D-01, -4.9D-12, r^2= 2.4D+00
   Bfn.  Coefficient  Atom+Function         Bfn.  Coefficient  Atom+Function  
  ----- ------------  ---------------      ----- ------------  ---------------
     3      3.529218  1 C  s                 31     -2.728283  2 N  px         
     8     -1.295621  1 C  px                75     -1.050256  6 H  s          
    84     -1.050256  7 H  s                 57     -0.936851  4 H  s          
    66     -0.936851  5 H  s                 46     -0.925812  2 N  d  2       
    48      0.898166  3 H  s                  9     -0.702270  1 C  py         
 
 Vector   79  Occ=0.000000D+00  E= 2.472818D+00
              MO Center= -7.5D-01,  2.3D-01,  6.6D-12, r^2= 1.9D+00
   Bfn.  Coefficient  Atom+Function         Bfn.  Coefficient  Atom+Function  
  ----- ------------  ---------------      ----- ------------  ---------------
    10      3.533249  1 C  pz                33     -2.620012  2 N  pz         
    57     -2.374831  4 H  s                 66      2.374831  5 H  s          
    22      1.074139  1 C  d  1              30      0.962852  2 N  pz         
    45      0.839302  2 N  d  1              43     -0.702092  2 N  d -1       
    62      0.704098  4 H  px                71     -0.704098  5 H  px         
 
 Vector   80  Occ=0.000000D+00  E= 2.539899D+00
              MO Center= -2.3D-01, -3.0D-02,  1.1D-12, r^2= 2.7D+00
   Bfn.  Coefficient  Atom+Function         Bfn.  Coefficient  Atom+Function  
  ----- ------------  ---------------      ----- ------------  ---------------
    27      5.451792  2 N  s                 26      3.696791  2 N  s          
    75     -2.723268  6 H  s                 84     -2.723268  7 H  s          
     3      1.862329  1 C  s                  4     -1.788849  1 C  s          
     9      1.718511  1 C  py                48     -1.507240  3 H  s          
    42     -1.404358  2 N  d -2              19     -1.300830  1 C  d -2       
 
 Vector   81  Occ=0.000000D+00  E= 2.622179D+00
              MO Center=  3.7D-01,  8.8D-02, -6.4D-14, r^2= 2.5D+00
   Bfn.  Coefficient  Atom+Function         Bfn.  Coefficient  Atom+Function  
  ----- ------------  ---------------      ----- ------------  ---------------
    75      1.805275  6 H  s                 84     -1.805275  7 H  s          
    45      1.705774  2 N  d  1              10      1.461892  1 C  pz         
    20     -1.305500  1 C  d -1              22      1.191190  1 C  d  1       
    52      0.799171  3 H  pz                60      0.596249  4 H  py         
    69     -0.596249  5 H  py                82      0.576726  6 H  pz         
 
 Vector   82  Occ=0.000000D+00  E= 2.657187D+00
              MO Center= -1.9D-01,  2.8D-02, -3.8D-12, r^2= 2.4D+00
   Bfn.  Coefficient  Atom+Function         Bfn.  Coefficient  Atom+Function  
  ----- ------------  ---------------      ----- ------------  ---------------
     3      6.670006  1 C  s                 26     -6.679534  2 N  s          
     8     -5.685257  1 C  px                31     -4.179391  2 N  px         
    25      2.025826  2 N  s                 48      1.614036  3 H  s          
    23      1.457861  1 C  d  2              75     -1.353646  6 H  s          
    84     -1.353646  7 H  s                 46     -1.169918  2 N  d  2       
 
 Vector   83  Occ=0.000000D+00  E= 2.726589D+00
              MO Center=  1.3D-01,  1.6D-01,  4.4D-13, r^2= 2.6D+00
   Bfn.  Coefficient  Atom+Function         Bfn.  Coefficient  Atom+Function  
  ----- ------------  ---------------      ----- ------------  ---------------
    26      5.152411  2 N  s                  3     -3.079530  1 C  s          
    27      3.042326  2 N  s                  8      2.847836  1 C  px         
    31      1.662959  2 N  px                32      1.558473  2 N  py         
     4     -1.225299  1 C  s                 21      1.156955  1 C  d  0       
    75     -0.973786  6 H  s                 84     -0.973786  7 H  s          
 
 Vector   84  Occ=0.000000D+00  E= 2.882670D+00
              MO Center=  4.3D-01, -2.2D-01, -8.7D-11, r^2= 2.2D+00
   Bfn.  Coefficient  Atom+Function         Bfn.  Coefficient  Atom+Function  
  ----- ------------  ---------------      ----- ------------  ---------------
     8      2.586506  1 C  px                 4      2.425648  1 C  s          
    27     -1.852554  2 N  s                 57     -1.774811  4 H  s          
    66     -1.774811  5 H  s                  9     -1.614818  1 C  py         
    31      1.178383  2 N  px                26      1.100313  2 N  s          
    16      1.091295  1 C  d  0              56     -0.965737  4 H  s          
 
 Vector   85  Occ=0.000000D+00  E= 2.883778D+00
              MO Center=  3.1D-01, -8.7D-02,  9.2D-11, r^2= 2.2D+00
   Bfn.  Coefficient  Atom+Function         Bfn.  Coefficient  Atom+Function  
  ----- ------------  ---------------      ----- ------------  ---------------
    10      2.573961  1 C  pz                57     -1.404810  4 H  s          
    66      1.404810  5 H  s                 15     -1.208701  1 C  d -1       
    56     -1.185472  4 H  s                 65      1.185472  5 H  s          
    33     -0.961824  2 N  pz                13      0.890069  1 C  pz         
     7      0.876556  1 C  pz                61      0.687200  4 H  pz         
 
 Vector   86  Occ=0.000000D+00  E= 2.913499D+00
              MO Center=  5.6D-01,  3.4D-01, -4.9D-12, r^2= 2.1D+00
   Bfn.  Coefficient  Atom+Function         Bfn.  Coefficient  Atom+Function  
  ----- ------------  ---------------      ----- ------------  ---------------
     3      6.698409  1 C  s                 26     -5.385786  2 N  s          
     8     -3.792314  1 C  px                31     -3.252668  2 N  px         
     4      2.874866  1 C  s                 27     -2.344260  2 N  s          
    47     -1.324820  3 H  s                 25      1.312921  2 N  s          
    23      1.208081  1 C  d  2              51      1.154766  3 H  py         
 
 Vector   87  Occ=0.000000D+00  E= 3.034495D+00
              MO Center=  7.9D-02,  1.1D-02, -3.9D-14, r^2= 2.0D+00
   Bfn.  Coefficient  Atom+Function         Bfn.  Coefficient  Atom+Function  
  ----- ------------  ---------------      ----- ------------  ---------------
    26      3.575705  2 N  s                  9      2.628344  1 C  py         
     8      2.611374  1 C  px                 3     -2.446823  1 C  s          
    31      2.093359  2 N  px                48     -1.960109  3 H  s          
    47     -1.394407  3 H  s                 27      1.071651  2 N  s          
    18     -0.968989  1 C  d  2              51      0.894060  3 H  py         
 
 Vector   88  Occ=0.000000D+00  E= 3.059546D+00
              MO Center= -3.7D-01, -1.0D-02,  3.0D-13, r^2= 1.7D+00
   Bfn.  Coefficient  Atom+Function         Bfn.  Coefficient  Atom+Function  
  ----- ------------  ---------------      ----- ------------  ---------------
    26      6.022847  2 N  s                  8      4.804585  1 C  px         
     3     -3.211243  1 C  s                 31      2.543625  2 N  px         
    25     -0.968888  2 N  s                 41      0.895119  2 N  d  2       
    23     -0.759117  1 C  d  2              37     -0.743020  2 N  d -2       
    53     -0.740552  3 H  px                57     -0.643989  4 H  s          
 
 Vector   89  Occ=0.000000D+00  E= 3.074835D+00
              MO Center=  9.5D-02, -3.5D-02, -6.9D-13, r^2= 1.9D+00
   Bfn.  Coefficient  Atom+Function         Bfn.  Coefficient  Atom+Function  
  ----- ------------  ---------------      ----- ------------  ---------------
    75      1.578172  6 H  s                 84     -1.578172  7 H  s          
    10      1.404010  1 C  pz                17     -1.251726  1 C  d  1       
    56     -0.940486  4 H  s                 65      0.940486  5 H  s          
    40     -0.882281  2 N  d  1              33      0.847444  2 N  pz         
     7      0.740893  1 C  pz                61      0.679873  4 H  pz         
 
 Vector   90  Occ=0.000000D+00  E= 3.380757D+00
              MO Center= -8.0D-01,  1.4D-01,  1.8D-13, r^2= 1.4D+00
   Bfn.  Coefficient  Atom+Function         Bfn.  Coefficient  Atom+Function  
  ----- ------------  ---------------      ----- ------------  ---------------
    75      2.917743  6 H  s                 84      2.917743  7 H  s          
    27     -2.903134  2 N  s                 31      2.853036  2 N  px         
     8      2.758049  1 C  px                26     -2.177462  2 N  s          
    32     -1.515681  2 N  py                74      1.438317  6 H  s          
    83      1.438317  7 H  s                 39     -1.167579  2 N  d  0       
 
 Vector   91  Occ=0.000000D+00  E= 3.634046D+00
              MO Center= -6.7D-01,  1.0D-02, -2.2D-13, r^2= 1.4D+00
   Bfn.  Coefficient  Atom+Function         Bfn.  Coefficient  Atom+Function  
  ----- ------------  ---------------      ----- ------------  ---------------
    33      3.579331  2 N  pz                75      3.062125  6 H  s          
    84     -3.062125  7 H  s                 74      1.792584  6 H  s          
    83     -1.792584  7 H  s                 38      1.219772  2 N  d -1       
    40      0.939763  2 N  d  1              79      0.792630  6 H  pz         
    88      0.792630  7 H  pz                36      0.774303  2 N  pz         
 
 
                                 Final MO vectors
                                 ----------------
 

 global array: scf_init: MOs[1:91,1:91],  handle: -1000 

            1           2           3           4           5           6  
       ----------- ----------- ----------- ----------- ----------- -----------
   1      -0.00002     1.00337    -0.01382    -0.01393    -0.00000    -0.00155
   2      -0.00000     0.00655     0.18133     0.33659    -0.00000     0.00828
   3       0.00705    -0.02588    -0.02856     0.11273     0.00000    -0.02296
   4       0.00212    -0.00813     0.01176     0.02616     0.00000    -0.02064
   5      -0.00045    -0.00049    -0.09364     0.07865     0.00000     0.15363
   6      -0.00002    -0.00002     0.00065    -0.00427    -0.00000     0.34733
   7       0.00000     0.00000     0.00000     0.00000     0.21713     0.00000
   8      -0.00793    -0.00398     0.04761     0.04294    -0.00000     0.03688
   9       0.00014    -0.00010     0.01649    -0.00965     0.00000     0.07517
  10       0.00000     0.00000    -0.00000    -0.00000     0.05846    -0.00000
  11      -0.00143    -0.00052     0.00193    -0.00860    -0.00000     0.00317
  12      -0.00003    -0.00003     0.00071     0.00391     0.00000    -0.00548
  13      -0.00000    -0.00000    -0.00000    -0.00000     0.01460    -0.00000
  14       0.00001    -0.00004    -0.00093     0.00170     0.00000    -0.00232
  15       0.00000     0.00000     0.00000     0.00000    -0.01007     0.00000
  16      -0.00001     0.00002    -0.01033     0.00523    -0.00000    -0.00643
  17       0.00000     0.00000     0.00000    -0.00000     0.00964     0.00000
  18      -0.00000     0.00001     0.01997    -0.00787    -0.00000    -0.02535
  19      -0.00033    -0.00006    -0.00477     0.00508     0.00000     0.01700
  20      -0.00000    -0.00000     0.00000    -0.00000     0.04993     0.00000
  21      -0.00122    -0.00061     0.01463     0.00321    -0.00000     0.02909
  22       0.00000     0.00000     0.00000     0.00000    -0.00723     0.00000
  23       0.00186     0.00085    -0.01421    -0.00376     0.00000     0.02751
  24       1.00248     0.00010    -0.01748    -0.00064     0.00000    -0.00008
  25       0.00434     0.00045     0.36752    -0.17027    -0.00000    -0.06600
  26      -0.01575    -0.00021     0.32582    -0.10293    -0.00000    -0.13179
  27      -0.00562     0.00081    -0.00777    -0.04402    -0.00000     0.00687
  28       0.00056     0.00038     0.04109     0.15043    -0.00000    -0.16460
  29       0.00162     0.00000     0.05618    -0.05236     0.00000     0.23069
  30      -0.00000    -0.00000     0.00000    -0.00000     0.39353    -0.00000
  31      -0.00510    -0.00159     0.11430     0.09434    -0.00000    -0.09352
  32      -0.00165     0.00005    -0.01339    -0.00117     0.00000     0.15818
  33       0.00000    -0.00000     0.00000     0.00000     0.16089    -0.00000
  34      -0.00087    -0.00051     0.00544     0.00129     0.00000     0.00993
  35      -0.00006     0.00006    -0.00008    -0.00850    -0.00000     0.01957
  36       0.00000     0.00000     0.00000     0.00000    -0.00222     0.00000
  37      -0.00010    -0.00002     0.00067     0.00546     0.00000     0.00403
  38       0.00000    -0.00000     0.00000     0.00000     0.02443     0.00000
  39       0.00023     0.00005    -0.00150    -0.00929     0.00000     0.00379
  40      -0.00000    -0.00000    -0.00000     0.00000     0.00418     0.00000
  41      -0.00009    -0.00013     0.00700     0.01157     0.00000    -0.01305
  42      -0.00028    -0.00027     0.01257     0.00406     0.00000     0.01349
  43       0.00000    -0.00000     0.00000    -0.00000    -0.02257     0.00000
  44       0.00041     0.00041    -0.02939     0.00541    -0.00000    -0.01186
  45       0.00000     0.00000     0.00000     0.00000    -0.04185     0.00000
  46      -0.00110    -0.00056     0.01903     0.01001    -0.00000    -0.01654
  47      -0.00028     0.00045     0.06653     0.18270     0.00000     0.33294
  48       0.00091     0.00919    -0.01250     0.05480    -0.00000     0.24079
  49       0.00019     0.00116    -0.00421    -0.00122    -0.00000     0.00755
  50       0.00016     0.00012    -0.00375    -0.00466     0.00000    -0.00416
  51       0.00008     0.00020    -0.01093    -0.02221     0.00000    -0.01877
  52       0.00000     0.00000    -0.00000    -0.00000     0.00438     0.00000
  53       0.00071    -0.00100     0.00257    -0.00978    -0.00000    -0.02356
  54      -0.00024    -0.00269     0.00124    -0.01503     0.00000    -0.03570
  55       0.00000     0.00000     0.00000     0.00000    -0.02658    -0.00000
  56      -0.00016     0.00046     0.06216     0.18981     0.14169    -0.08102
  57       0.00117     0.00909     0.00838     0.04180     0.07163    -0.05824
  58       0.00019     0.00105    -0.00106     0.00162    -0.01612    -0.00155
  59       0.00012     0.00012    -0.00552    -0.00601    -0.00296     0.00634
  60      -0.00003    -0.00010     0.00442     0.01120     0.00538     0.00658
  61       0.00006     0.00020    -0.00874    -0.01998    -0.00483     0.00545
  62       0.00023    -0.00125    -0.00573    -0.00279    -0.00626     0.00565
  63       0.00009     0.00123     0.00106     0.00605    -0.00949    -0.01677
  64      -0.00009    -0.00213    -0.00773    -0.01072    -0.00500    -0.00417
  65      -0.00016     0.00046     0.06216     0.18981    -0.14169    -0.08102
  66       0.00117     0.00909     0.00838     0.04180    -0.07163    -0.05824
  67       0.00019     0.00105    -0.00106     0.00162     0.01612    -0.00155
  68       0.00012     0.00012    -0.00552    -0.00601     0.00296     0.00634
[...]
  23       0.00000    -0.83547     0.00000     1.45786    -0.13040    -0.34439
  24       0.00000    -0.28861     0.00000     1.00682    -0.45427    -0.00026
  25       0.00000    -0.50096     0.00000     2.02583    -0.79024     0.06949
  26      -0.00000     3.69679    -0.00000    -6.67953     5.15241     1.10031
  27       0.00000     5.45179     0.00000    -0.43272     3.04233    -1.85255
  28      -0.00000    -0.01020     0.00000     0.20151    -0.23716     0.01566
  29       0.00000     0.28088     0.00000     0.13126     0.16890     0.10375
  30       0.96285    -0.00000    -0.22079    -0.00000     0.00000     0.00000
  31       0.00000    -1.29845    -0.00000    -4.17939     1.66296     1.17838
  32      -0.00000    -0.29352    -0.00000    -0.05403     1.55847     0.09495
  33      -2.62001     0.00000    -0.32912     0.00000     0.00000     0.00000
  34       0.00000     0.64301     0.00000    -0.24831     0.43969    -0.69966
  35       0.00000     0.37968     0.00000     0.54316     0.21693     0.37017
  36       0.05916     0.00000     0.27243    -0.00000     0.00000     0.00000
  37       0.00000     0.39841     0.00000     0.22558     0.02849     0.47681
  38       0.04935    -0.00000     0.29154    -0.00000     0.00000     0.00000
  39      -0.00000    -0.33000    -0.00000    -0.06857    -0.27383     0.38137
  40      -0.26050     0.00000    -0.46662     0.00000    -0.00000    -0.00000
  41      -0.00000    -0.24400     0.00000     0.44315    -0.14457     0.35420
  42      -0.00000    -1.40436    -0.00000    -0.66694     0.21158    -0.19929
  43      -0.70209     0.00000     0.18299    -0.00000     0.00000    -0.00000
  44       0.00000     0.82083     0.00000     0.18518    -0.48633    -0.36042
  45       0.83930     0.00000     1.70577    -0.00000     0.00000    -0.00000
  46       0.00000     0.24681    -0.00000    -1.16992     0.08209    -0.00003
  47       0.00000    -0.52880    -0.00000     0.18187     0.01152     0.48283
  48       0.00000    -1.50724    -0.00000     1.61404     0.03789     0.40511
  49       0.00000    -0.19345    -0.00000     0.11250    -0.07396     0.46665
  50       0.00000    -0.17603     0.00000    -0.03247    -0.36840    -0.20065
  51      -0.00000    -0.16721    -0.00000    -0.31275     0.61071    -0.18783
  52      -0.03288    -0.00000     0.79917     0.00000    -0.00000    -0.00000
  53      -0.00000     0.79009     0.00000     0.55160    -0.26075    -0.27334
  54      -0.00000    -0.05708     0.00000    -0.33855     0.06201    -0.09951
  55      -0.07525     0.00000     0.37522    -0.00000     0.00000     0.00000
  56      -0.41184     0.09836    -0.24041    -0.01388    -0.07700    -0.96574
  57      -2.37483    -0.62880    -0.17157    -0.33277    -0.38269    -1.77481
  58      -0.20196     0.09403     0.15399     0.08941    -0.00857    -0.38556
  59       0.23597    -0.31464     0.21150     0.07287     0.17889     0.43485
  60      -0.00552     0.18163     0.59625     0.05602    -0.36745    -0.50821
  61      -0.02430     0.44822    -0.21825    -0.37995    -0.40469     0.68965
  62       0.70410     0.02299     0.33839     0.33825    -0.14157    -0.17406
  63      -0.19040     0.13482     0.33314    -0.19343    -0.21103     0.11319
  64       0.41813     0.38152    -0.11919     0.30153    -0.21258     0.42183
  65       0.41184     0.09836     0.24041    -0.01388    -0.07700    -0.96574
  66       2.37483    -0.62880     0.17157    -0.33277    -0.38269    -1.77481
  67       0.20196     0.09403    -0.15399     0.08941    -0.00857    -0.38556
  68      -0.23597    -0.31464    -0.21150     0.07287     0.17889     0.43485
  69       0.00552     0.18163    -0.59625     0.05602    -0.36745    -0.50821
  70      -0.02430    -0.44822    -0.21825     0.37995     0.40469    -0.68965
  71      -0.70410     0.02299    -0.33839     0.33825    -0.14157    -0.17406
  72       0.19040     0.13482    -0.33314    -0.19343    -0.21103     0.11319
  73       0.41813    -0.38152    -0.11919    -0.30153     0.21258    -0.42183
  74      -0.57149    -0.63210     0.17432     0.02615    -0.45246    -0.10568
  75      -0.51130    -2.72327     1.80527    -1.35365    -0.97379     0.91005
  76      -0.00505    -0.09873     0.08710    -0.14138     0.00935    -0.11593
  77      -0.01755     0.30743    -0.32274     0.24369    -0.20830    -0.21814
  78      -0.35349     0.23282     0.19068     0.10393    -0.27798     0.25749
  79       0.65794    -0.43565    -0.09057    -0.39333    -0.62497    -0.01580
  80      -0.10630    -0.16617    -0.00964    -0.36560    -0.05623     0.42283
  81       0.11793     0.24100    -0.49111    -0.26699     0.07207    -0.41351
  82      -0.49122    -0.38455     0.57673    -0.16061    -0.12041     0.12518
  83       0.57149    -0.63210    -0.17432     0.02615    -0.45246    -0.10568
  84       0.51130    -2.72327    -1.80527    -1.35365    -0.97379     0.91005
  85       0.00505    -0.09873    -0.08710    -0.14138     0.00935    -0.11593
  86       0.01755     0.30743     0.32274     0.24369    -0.20830    -0.21814
  87       0.35349     0.23282    -0.19068     0.10393    -0.27798     0.25749
  88       0.65794     0.43565    -0.09057     0.39333     0.62497     0.01580
  89       0.10630    -0.16617     0.00964    -0.36560    -0.05623     0.42283
  90      -0.11793     0.24100     0.49111    -0.26699     0.07207    -0.41351
  91      -0.49122     0.38455     0.57673     0.16061     0.12041    -0.12518

           85          86          87          88          89          90  
       ----------- ----------- ----------- ----------- ----------- -----------
   1       0.00000     0.20259     0.10079     0.17979     0.00000    -0.08257
   2       0.00000     0.67248     0.10628     0.22114     0.00000    -0.23262
   3       0.00000     6.69841    -2.44682    -3.21124    -0.00000    -0.65786
   4       0.00000     2.87487    -0.24778     0.57031    -0.00000     1.07778
   5       0.00000     0.07383     0.31275     0.44157     0.00000     0.31182
   6      -0.00000     0.46101     0.79354    -0.16118    -0.00000    -0.13586
   7       0.87656    -0.00000    -0.00000    -0.00000     0.74089    -0.00000
   8       0.00000    -3.79231     2.61137     4.80459     0.00000     2.75805
   9      -0.00000     0.92672     2.62834    -0.38008    -0.00000    -0.19510
  10       2.57396    -0.00000     0.00000     0.00000     1.40401     0.00000
  11      -0.00000    -0.64670     0.21352     0.29988     0.00000     0.03284
  12      -0.00000     0.44539     0.46703     0.05449    -0.00000     0.03814
  13       0.89007    -0.00000    -0.00000     0.00000     0.12008     0.00000
  14      -0.00000     0.08928     0.64814    -0.64057    -0.00000    -0.06186
  15      -1.20870     0.00000     0.00000     0.00000    -0.67025    -0.00000
  16       0.00000    -0.25996    -0.69930     0.45424     0.00000     0.43561
  17      -0.21198     0.00000     0.00000     0.00000    -1.25173     0.00000
  18      -0.00000    -0.69806    -0.96899    -0.46815    -0.00000    -0.16177
  19      -0.00000    -0.00621    -0.35104     0.24994    -0.00000    -0.04404
  20      -0.16965     0.00000    -0.00000    -0.00000     0.34368    -0.00000
  21       0.00000    -0.58139     0.29809     0.58447     0.00000     0.09912
  22       0.26483    -0.00000     0.00000    -0.00000     0.39900    -0.00000
  23      -0.00000     1.20808    -0.48412    -0.75912    -0.00000    -0.53644
  24       0.00000     0.68059    -0.40549    -0.55470    -0.00000    -0.10398
  25       0.00000     1.31292    -0.74978    -0.96889    -0.00000    -0.35515
  26       0.00000    -5.38579     3.57570     6.02285     0.00000    -2.17746
  27      -0.00000    -2.34426     1.07165    -0.30690     0.00000    -2.90313
  28       0.00000     0.43797    -0.05627    -0.09877    -0.00000     0.25953
  29       0.00000    -0.06304     0.06607     0.11240     0.00000    -0.35508
  30      -0.17162     0.00000    -0.00000     0.00000    -0.18820     0.00000
  31       0.00000    -3.25267     2.09336     2.54362     0.00000     2.85304
  32       0.00000    -0.30457    -0.37284     0.54080     0.00000    -1.51568
  33      -0.96182     0.00000     0.00000    -0.00000     0.84744    -0.00000
  34      -0.00000    -0.43221     0.20845     0.05144     0.00000    -0.00702
  35       0.00000    -0.12255    -0.07597    -0.11856     0.00000    -0.65682
  36      -0.22226    -0.00000     0.00000    -0.00000     0.51844    -0.00000
  37       0.00000    -0.25082     0.48204    -0.74302    -0.00000     0.59182
  38      -0.58297     0.00000    -0.00000    -0.00000     0.28387    -0.00000
  39       0.00000    -0.36524     0.28700    -0.26794    -0.00000    -1.16758
  40       0.41375    -0.00000     0.00000     0.00000    -0.88228     0.00000
  41       0.00000    -0.01612     0.68297     0.89512     0.00000     0.34137
  42      -0.00000    -0.02090    -0.18787     0.31398     0.00000     0.05808
  43       0.32064    -0.00000     0.00000    -0.00000     0.10293    -0.00000
  44      -0.00000     0.62048     0.00042    -0.25159    -0.00000    -0.09092
  45       0.07206    -0.00000     0.00000     0.00000     0.24860    -0.00000
  46      -0.00000    -0.71296     0.05587    -0.09951     0.00000     0.37355
  47       0.00000    -1.32482    -1.39441     0.27191     0.00000     0.16862
  48       0.00000    -1.13402    -1.96011    -0.29673     0.00000    -0.38579
  49       0.00000    -0.49259    -0.31392    -0.18466     0.00000    -0.03831
  50      -0.00000     0.58799     0.18112     0.09452    -0.00000    -0.17967
  51      -0.00000     1.15477     0.89406    -0.21983    -0.00000    -0.18446
  52       0.32283    -0.00000    -0.00000     0.00000    -0.10823    -0.00000
  53      -0.00000     0.08265     0.13490    -0.74055    -0.00000    -0.19315
  54      -0.00000     0.06956     0.24211     0.15663    -0.00000     0.16894
  55      -0.39195     0.00000     0.00000     0.00000    -0.37841    -0.00000
  56      -1.18547    -0.37155     0.64051    -0.30826    -0.94049    -0.17283
  57      -1.40481    -0.10235     0.52270    -0.64399    -0.48329    -0.86366
  58      -0.52199     0.11173     0.11344    -0.09065    -0.07155    -0.17558
  59       0.54694     0.24590    -0.15780    -0.16326    -0.00259     0.04316
  60      -0.17124    -0.13804     0.28412    -0.03840    -0.45387    -0.08473
  61       0.68720     0.42531    -0.29188     0.20932     0.67987     0.05040
  62       0.13934    -0.02859    -0.35323    -0.35608     0.34151    -0.06261
  63      -0.21118    -0.19356    -0.27956    -0.07188    -0.13139    -0.06523
  64      -0.09840    -0.08523    -0.23648     0.08026    -0.12071     0.31170
  65       1.18547    -0.37155     0.64051    -0.30826     0.94049    -0.17283
  66       1.40481    -0.10235     0.52270    -0.64399     0.48329    -0.86366
  67       0.52199     0.11173     0.11344    -0.09065     0.07155    -0.17558
  68      -0.54694     0.24590    -0.15780    -0.16326     0.00259     0.04316
  69       0.17124    -0.13804     0.28412    -0.03840     0.45387    -0.08473
  70       0.68720    -0.42531     0.29188    -0.20932     0.67987    -0.05040
  71      -0.13934    -0.02859    -0.35323    -0.35608    -0.34151    -0.06261
  72       0.21118    -0.19356    -0.27956    -0.07188     0.13139    -0.06523
  73      -0.09840     0.08523     0.23648    -0.08026    -0.12071    -0.31170
  74      -0.27535     0.16258    -0.08137    -0.40960     0.10169     1.43832
  75      -0.14548    -0.67262    -0.03411     0.42852     1.57817     2.91774
  76       0.21187    -0.11684    -0.01771     0.08871     0.27232     0.22116
  77      -0.34746     0.22820    -0.16812     0.16459     0.29447     0.36324
  78      -0.00569    -0.13786     0.30436     0.03868     0.20711    -0.46229
  79      -0.17465     0.02052     0.18475    -0.38668    -0.16578     0.85584
  80       0.29575    -0.41433    -0.09458    -0.13327     0.11607     0.34035
  81       0.24585     0.12688    -0.10794    -0.06326    -0.25190    -0.19128
  82      -0.08324    -0.00532     0.02972     0.02567     0.37378     0.69926
  83       0.27535     0.16258    -0.08137    -0.40960    -0.10169     1.43832
  84       0.14548    -0.67262    -0.03411     0.42852    -1.57817     2.91774
  85      -0.21187    -0.11684    -0.01771     0.08871    -0.27232     0.22116
  86       0.34746     0.22820    -0.16812     0.16459    -0.29447     0.36324
  87       0.00569    -0.13786     0.30436     0.03868    -0.20711    -0.46229
  88      -0.17465    -0.02052    -0.18475     0.38668    -0.16578    -0.85584
  89      -0.29575    -0.41433    -0.09458    -0.13327    -0.11607     0.34035
  90      -0.24585     0.12688    -0.10794    -0.06326     0.25190    -0.19128
  91      -0.08324     0.00532    -0.02972    -0.02567     0.37378    -0.69926

           91  
       -----------
   1       0.00000
   2       0.00000
   3      -0.00000
   4      -0.00000
   5       0.00000
   6       0.00000
   7       0.25538
   8       0.00000
   9      -0.00000
  10       0.02391
  11       0.00000
  12      -0.00000
  13       0.19734
  14       0.00000
  15      -0.50121
  16       0.00000
  17      -0.31424
  18      -0.00000
  19      -0.00000
  20       0.37854
  21       0.00000
  22      -0.25541
  23      -0.00000
  24      -0.00000
  25      -0.00000
  26       0.00000
  27       0.00000
  28      -0.00000
  29      -0.00000
  30       0.56984
  31       0.00000
  32       0.00000
  33       3.57933
  34       0.00000
  35       0.00000
  36       0.77430
  37       0.00000
  38       1.21977
  39      -0.00000
  40       0.93976
  41      -0.00000
  42      -0.00000
  43       0.36383
  44      -0.00000
  45      -0.26146
  46       0.00000
  47       0.00000
  48       0.00000
  49       0.00000
  50      -0.00000
  51      -0.00000
  52       0.07907
  53       0.00000
  54      -0.00000
  55      -0.20486
  56      -0.33289
  57      -0.25083
  58      -0.27247
  59       0.16052
  60      -0.11586
  61       0.28579
  62      -0.06418
  63      -0.12155
  64       0.05907
  65       0.33289
  66       0.25083
  67       0.27247
  68      -0.16052
  69       0.11586
  70       0.28579
  71       0.06418
  72       0.12155
  73       0.05907
  74       1.79258
  75       3.06212
  76       0.31941
  77       0.47171
  78      -0.39466
  79       0.79263
  80       0.52656
  81      -0.49139
  82       0.69403
  83      -1.79258
  84      -3.06212
  85      -0.31941
  86      -0.47171
  87       0.39466
  88       0.79263
  89      -0.52656
  90       0.49139
  91       0.69403

 center of mass
 --------------
 x =   0.00000012 y =  -0.00000029 z =   0.00000000

 moments of inertia (a.u.)
 ------------------
          17.721460187221           0.000000277137           0.000000000000
           0.000000277137          81.985742510454           0.000000000000
           0.000000000000           0.000000000000          78.392326144106
 
  Mulliken analysis of the total density
  --------------------------------------

    Atom       Charge   Shell Charges
 -----------   ------   -------------------------------------------------------
    1 C    6     5.26   2.01  0.65  0.10  0.04  2.00  0.43 -0.00  0.09 -0.06
    2 N    7     7.38   2.00  0.74  0.72 -0.00  2.36  1.44  0.07  0.03  0.02
    3 H    1     1.10   0.78  0.34  0.00  0.03 -0.05
    4 H    1     1.12   0.77  0.35 -0.00  0.03 -0.03
    5 H    1     1.12   0.77  0.35 -0.00  0.03 -0.03
    6 H    1     1.01   0.76  0.19  0.00  0.05  0.00
    7 H    1     1.01   0.76  0.19  0.00  0.05  0.00
 
       Multipole analysis of the density wrt the origin
       ------------------------------------------------
 
     L   x y z        total         open         nuclear
     -   - - -        -----         ----         -------
     0   0 0 0     -0.000000      0.000000     18.000000
 
     1   1 0 0      0.158164      0.000000      1.077072
     1   0 1 0      0.533166      0.000000      0.812089
     1   0 0 1      0.000000      0.000000      0.000000
 
     2   2 0 0    -10.790896      0.000000     46.213279
     2   1 1 0     -1.574945      0.000000     -1.451440
     2   1 0 1      0.000000      0.000000      0.000000
     2   0 2 0    -11.370949      0.000000      6.879481
     2   0 1 1      0.000000      0.000000      0.000000
     2   0 0 2     -9.243354      0.000000     10.574691
 

 Parallel integral file used     194 records with       0 large values


 Task  times  cpu:        3.9s     wall:        4.1s
 
 
                                NWChem Input Module
                                -------------------
 
 
 Summary of allocated global arrays
-----------------------------------
  No active global arrays



                         GA Statistics for process    0
                         ------------------------------

       create   destroy   get      put      acc     scatter   gather  read&inc
calls:  196      196     6857     4626     3173        0        0       57     
number of processes/call 1.00e+00 1.00e+00 1.00e+00 0.00e+00 0.00e+00
bytes total:             1.59e+07 1.01e+07 2.17e+06 0.00e+00 0.00e+00 4.56e+02
bytes remote:            0.00e+00 0.00e+00 0.00e+00 0.00e+00 0.00e+00 0.00e+00
Max memory consumed for GA by this process: 861224 bytes
 
MA_summarize_allocated_blocks: starting scan ...
MA_summarize_allocated_blocks: scan completed: 0 heap blocks, 0 stack blocks
MA usage statistics:

	allocation statistics:
					      heap	     stack
					      ----	     -----
	current number of blocks	         0	         0
	maximum number of blocks	        17	        14
	current total bytes		         0	         0
	maximum total bytes		 144204072	  22511320
	maximum total K-bytes		    144205	     22512
	maximum total M-bytes		       145	        23
 
 
                                     CITATION
                                     --------
                Please cite the following reference when publishing
                           results obtained with NWChem:
 
                 M. Valiev, E.J. Bylaska, N. Govind, K. Kowalski,
              T.P. Straatsma, H.J.J. van Dam, D. Wang, J. Nieplocha,
                        E. Apra, T.L. Windus, W.A. de Jong
                 "NWChem: a comprehensive and scalable open-source
                  solution for large scale molecular simulations"
                      Comput. Phys. Commun. 181, 1477 (2010)
                           doi:10.1016/j.cpc.2010.04.018
 
                                      AUTHORS
                                      -------
          E. Apra, E. J. Bylaska, W. A. de Jong, N. Govind, K. Kowalski,
       T. P. Straatsma, M. Valiev, H. J. J. van Dam, D. Wang, T. L. Windus,
        J. Hammond, J. Autschbach, K. Bhaskaran-Nair, J. Brabec, K. Lopata,
       S. A. Fischer, S. Krishnamoorthy, W. Ma, M. Klemm, O. Villa, Y. Chen,
    V. Anisimov, F. Aquino, S. Hirata, M. T. Hackler, T. Risthaus, M. Malagoli,
       A. Marenich, A. Otero-de-la-Roza, J. Mullin, P. Nichols, R. Peverati,
     J. Pittner, Y. Zhao, P.-D. Fan, A. Fonari, M. Williamson, R. J. Harrison,
       J. R. Rehr, M. Dupuis, D. Silverstein, D. M. A. Smith, J. Nieplocha,
        V. Tipparaju, M. Krishnan, B. E. Van Kuiken, A. Vazquez-Mayagoitia,
        L. Jensen, M. Swart, Q. Wu, T. Van Voorhis, A. A. Auer, M. Nooijen,
      L. D. Crosby, E. Brown, G. Cisneros, G. I. Fann, H. Fruchtl, J. Garza,
        K. Hirao, R. A. Kendall, J. A. Nichols, K. Tsemekhman, K. Wolinski,
     J. Anchell, D. E. Bernholdt, P. Borowski, T. Clark, D. Clerc, H. Dachsel,
   M. J. O. Deegan, K. Dyall, D. Elwood, E. Glendening, M. Gutowski, A. C. Hess,
         J. Jaffe, B. G. Johnson, J. Ju, R. Kobayashi, R. Kutteh, Z. Lin,
   R. Littlefield, X. Long, B. Meng, T. Nakajima, S. Niu, L. Pollack, M. Rosing,
   K. Glaesemann, G. Sandrone, M. Stave, H. Taylor, G. Thomas, J. H. van Lenthe,
                               A. T. Wong, Z. Zhang.

 Total times  cpu:        3.9s     wall:        4.1s
