 argument  1 = naproxen_355.9_001.inp
 


============================== echo of input deck ==============================
echo
start naproxen_355.9_001.inp
title "naproxen roa calculations at 355.9 nm"
charge 0



geometry units angstrom nocenter noautoz noautosym nucleus point;symmetry c1
 O -2.048635 -0.721275 -0.451130
 C -0.675092 -0.646685 -0.540003
 C -0.120370  0.622246 -0.429067
 C  1.281720  0.812392 -0.505872
 C  1.890965  2.096568 -0.393600
 C  3.261023  2.242322 -0.472827
 C  4.119126  1.121258 -0.675258
 C  3.549282 -0.138196 -0.781550
 C  2.141512 -0.329073 -0.703277
 C  0.167653 -1.777933 -0.733769
 C  5.635555  1.347459 -0.768566
 C  6.329353  0.814106  0.491506
 O  6.537303 -0.545741  0.449017
 O  6.661539  1.489159  1.445989
 C  6.260538  0.800503 -2.074892
 H  5.806357  2.429840 -0.725514
 H  5.786328  1.283657 -2.938199
 H  6.124004 -0.281920 -2.167407
 H  7.337518  1.011537 -2.110294
 H  6.949645 -0.782978  1.307063
 H  1.256857  2.970142 -0.241658
 H  3.702644  3.234483 -0.379388
 H  4.179770 -1.016365 -0.918661
 C  1.538839 -1.611812 -0.811855
 H -0.256035 -2.774656 -0.821417
 H  2.177167 -2.483106 -0.960476
 H -0.781127  1.475359 -0.280033
 C -2.682321 -2.006774 -0.555104
 H -2.358415 -2.683788  0.249737
 H -2.487265 -2.476347 -1.531084
 H -3.754162 -1.812010 -0.454892
end

basis spherical
* library def2-TZVP
end

 set prop:newaoresp 1
 set aor:roadata T
 set cphf:maxsub 100
 set cphf:acc 1.0d-10
 set cphf:maxiter 100

property
    response 1   0.128023
    bdtensor
    convergence 1e-7
    damping 0.0037
    giao
end

dft
 direct
 mult 1
 xc becke88 lyp
 iterations 250
 tolerances tight
 grid xfine
 convergence nolevelshifting
 convergence energy 1e-6
 convergence gradient 1e-6


end

task dft gradient
task dft property
================================================================================


                                         
                                         
 
 
              Northwest Computational Chemistry Package (NWChem) 6.8
              ------------------------------------------------------
 
 
                    Environmental Molecular Sciences Laboratory
                       Pacific Northwest National Laboratory
                                Richland, WA 99352
 
                              Copyright (c) 1994-2017
                       Pacific Northwest National Laboratory
                            Battelle Memorial Institute
 
             NWChem is an open-source computational chemistry package
                        distributed under the terms of the
                      Educational Community License (ECL) 2.0
             A copy of the license is included with this distribution
                              in the LICENSE.TXT file
 
                                  ACKNOWLEDGMENT
                                  --------------

            This software and its documentation were developed at the
            EMSL at Pacific Northwest National Laboratory, a multiprogram
            national laboratory, operated for the U.S. Department of Energy
            by Battelle under Contract Number DE-AC05-76RL01830. Support
            for this work was provided by the Department of Energy Office
            of Biological and Environmental Research, Office of Basic
            Energy Sciences, and the Office of Advanced Scientific Computing.


           Job information
           ---------------

    hostname        = cpn-f11-14-01.cbls.ccr.buffalo.edu
    program         = /util/academic/nwchem/nwchem-6.8/bin/LINUX64/nwchem
    date            = Tue Feb 26 11:30:24 2019

    compiled        = Tue_Nov_06_14:59:08_2018
    source          = /util/academic/nwchem/nwchem-6.8
    nwchem branch   = 6.8
    nwchem revision = v6.8-47-gdf6c956
    ga revision     = ga-5.6.3
    use scalapack   = F
    input           = naproxen_355.9_001.inp
    prefix          = naproxen_355.9_001.inp.
    data base       = ./naproxen_355.9_001.inp.db
    status          = startup
    nproc           =       11
    time left       =     -1s



           Memory information
           ------------------

    heap     =   13107194 doubles =    100.0 Mbytes
    stack    =   13107199 doubles =    100.0 Mbytes
    global   =   26214400 doubles =    200.0 Mbytes (distinct from heap & stack)
    total    =   52428793 doubles =    400.0 Mbytes
    verify   = yes
    hardfail = no 


           Directory information
           ---------------------
 
  0 permanent = .
  0 scratch   = .
 
 
 
 
                                NWChem Input Module
                                -------------------
 
 
                       naproxen roa calculations at 355.9 nm
                       -------------------------------------

 Scaling coordinates for geometry "geometry" by  1.889725989
 (inverse scale =  0.529177249)

 
 
                             Geometry "geometry" -> ""
                             -------------------------
 
 Output coordinates in angstroms (scale by  1.889725989 to convert to a.u.)
 
  No.       Tag          Charge          X              Y              Z
 ---- ---------------- ---------- -------------- -------------- --------------
    1 O                    8.0000    -2.04863500    -0.72127500    -0.45113000
    2 C                    6.0000    -0.67509200    -0.64668500    -0.54000300
    3 C                    6.0000    -0.12037000     0.62224600    -0.42906700
    4 C                    6.0000     1.28172000     0.81239200    -0.50587200
    5 C                    6.0000     1.89096500     2.09656800    -0.39360000
    6 C                    6.0000     3.26102300     2.24232200    -0.47282700
    7 C                    6.0000     4.11912600     1.12125800    -0.67525800
    8 C                    6.0000     3.54928200    -0.13819600    -0.78155000
    9 C                    6.0000     2.14151200    -0.32907300    -0.70327700
   10 C                    6.0000     0.16765300    -1.77793300    -0.73376900
   11 C                    6.0000     5.63555500     1.34745900    -0.76856600
   12 C                    6.0000     6.32935300     0.81410600     0.49150600
   13 O                    8.0000     6.53730300    -0.54574100     0.44901700
   14 O                    8.0000     6.66153900     1.48915900     1.44598900
   15 C                    6.0000     6.26053800     0.80050300    -2.07489200
   16 H                    1.0000     5.80635700     2.42984000    -0.72551400
   17 H                    1.0000     5.78632800     1.28365700    -2.93819900
   18 H                    1.0000     6.12400400    -0.28192000    -2.16740700
   19 H                    1.0000     7.33751800     1.01153700    -2.11029400
   20 H                    1.0000     6.94964500    -0.78297800     1.30706300
   21 H                    1.0000     1.25685700     2.97014200    -0.24165800
   22 H                    1.0000     3.70264400     3.23448300    -0.37938800
   23 H                    1.0000     4.17977000    -1.01636500    -0.91866100
   24 C                    6.0000     1.53883900    -1.61181200    -0.81185500
   25 H                    1.0000    -0.25603500    -2.77465600    -0.82141700
   26 H                    1.0000     2.17716700    -2.48310600    -0.96047600
   27 H                    1.0000    -0.78112700     1.47535900    -0.28003300
   28 C                    6.0000    -2.68232100    -2.00677400    -0.55510400
   29 H                    1.0000    -2.35841500    -2.68378800     0.24973700
   30 H                    1.0000    -2.48726500    -2.47634700    -1.53108400
   31 H                    1.0000    -3.75416200    -1.81201000    -0.45489200
 
      Atomic Mass 
      ----------- 
 
      O                 15.994910
      C                 12.000000
      H                  1.007825
 

 Effective nuclear repulsion energy (a.u.)    1121.0090045996

            Nuclear Dipole moment (a.u.) 
            ----------------------------
        X                 Y               Z
 ---------------- ---------------- ----------------
   602.9579703268    37.6986690900  -102.3211392824
 
 
            XYZ format geometry
            -------------------
    31
 geometry
 O                    -2.04863500    -0.72127500    -0.45113000
 C                    -0.67509200    -0.64668500    -0.54000300
 C                    -0.12037000     0.62224600    -0.42906700
 C                     1.28172000     0.81239200    -0.50587200
 C                     1.89096500     2.09656800    -0.39360000
 C                     3.26102300     2.24232200    -0.47282700
 C                     4.11912600     1.12125800    -0.67525800
 C                     3.54928200    -0.13819600    -0.78155000
 C                     2.14151200    -0.32907300    -0.70327700
 C                     0.16765300    -1.77793300    -0.73376900
 C                     5.63555500     1.34745900    -0.76856600
 C                     6.32935300     0.81410600     0.49150600
 O                     6.53730300    -0.54574100     0.44901700
 O                     6.66153900     1.48915900     1.44598900
 C                     6.26053800     0.80050300    -2.07489200
 H                     5.80635700     2.42984000    -0.72551400
 H                     5.78632800     1.28365700    -2.93819900
 H                     6.12400400    -0.28192000    -2.16740700
 H                     7.33751800     1.01153700    -2.11029400
 H                     6.94964500    -0.78297800     1.30706300
 H                     1.25685700     2.97014200    -0.24165800
 H                     3.70264400     3.23448300    -0.37938800
 H                     4.17977000    -1.01636500    -0.91866100
 C                     1.53883900    -1.61181200    -0.81185500
 H                    -0.25603500    -2.77465600    -0.82141700
 H                     2.17716700    -2.48310600    -0.96047600
 H                    -0.78112700     1.47535900    -0.28003300
 C                    -2.68232100    -2.00677400    -0.55510400
 H                    -2.35841500    -2.68378800     0.24973700
 H                    -2.48726500    -2.47634700    -1.53108400
 H                    -3.75416200    -1.81201000    -0.45489200
 
 ==============================================================================
                                internuclear distances
 ------------------------------------------------------------------------------
       center one      |      center two      | atomic units |  angstroms
 ------------------------------------------------------------------------------
    2 C                |   1 O                |     2.60486  |     1.37843
    3 C                |   2 C                |     2.62543  |     1.38932
    4 C                |   3 C                |     2.67776  |     1.41701
    5 C                |   4 C                |     2.69436  |     1.42580
    6 C                |   5 C                |     2.60795  |     1.38007
    7 C                |   6 C                |     2.69517  |     1.42622
    8 C                |   7 C                |     2.62001  |     1.38645
    9 C                |   4 C                |     2.72616  |     1.44262
    9 C                |   8 C                |     2.68871  |     1.42281
   10 C                |   2 C                |     2.69078  |     1.42390
   11 C                |   7 C                |     2.90270  |     1.53604
   12 C                |  11 C                |     2.89911  |     1.53415
   13 O                |  12 C                |     2.60085  |     1.37631
   14 O                |  12 C                |     2.29668  |     1.21535
   15 C                |  11 C                |     2.92526  |     1.54798
   16 H                |  11 C                |     2.07231  |     1.09662
   17 H                |  15 C                |     2.07320  |     1.09709
   18 H                |  15 C                |     2.06909  |     1.09492
   19 H                |  15 C                |     2.07498  |     1.09803
   20 H                |  13 O                |     1.85400  |     0.98110
   21 H                |   5 C                |     2.05998  |     1.09010
   22 H                |   6 C                |     2.05984  |     1.09002
   23 H                |   8 C                |     2.05928  |     1.08972
   24 C                |   9 C                |     2.68609  |     1.42142
   24 C                |  10 C                |     2.61428  |     1.38342
   25 H                |  10 C                |     2.05333  |     1.08658
   26 H                |  24 C                |     2.06032  |     1.09028
   27 H                |   3 C                |     2.05851  |     1.08932
   28 C                |   1 O                |     2.71548  |     1.43697
   29 H                |  28 C                |     2.07958  |     1.10047
   30 H                |  28 C                |     2.07963  |     1.10049
   31 H                |  28 C                |     2.06735  |     1.09399
 ------------------------------------------------------------------------------
                         number of included internuclear distances:         32
 ==============================================================================



 ==============================================================================
                                 internuclear angles
 ------------------------------------------------------------------------------
        center 1       |       center 2       |       center 3       |  degrees
 ------------------------------------------------------------------------------
    2 C                |   1 O                |  28 C                |   118.89
    1 O                |   2 C                |   3 C                |   116.24
    1 O                |   2 C                |  10 C                |   123.75
    3 C                |   2 C                |  10 C                |   120.01
    2 C                |   3 C                |   4 C                |   120.88
    2 C                |   3 C                |  27 H                |   118.95
    4 C                |   3 C                |  27 H                |   120.17
    3 C                |   4 C                |   5 C                |   122.64
    3 C                |   4 C                |   9 C                |   119.40
    5 C                |   4 C                |   9 C                |   117.95
    4 C                |   5 C                |   6 C                |   120.98
    4 C                |   5 C                |  21 H                |   118.96
    6 C                |   5 C                |  21 H                |   120.06
    5 C                |   6 C                |   7 C                |   121.50
    5 C                |   6 C                |  22 H                |   119.57
    7 C                |   6 C                |  22 H                |   118.94
    6 C                |   7 C                |   8 C                |   118.53
    6 C                |   7 C                |  11 C                |   119.13
    8 C                |   7 C                |  11 C                |   122.34
    7 C                |   8 C                |   9 C                |   121.62
    7 C                |   8 C                |  23 H                |   120.26
    9 C                |   8 C                |  23 H                |   118.12
    4 C                |   9 C                |   8 C                |   119.41
    4 C                |   9 C                |  24 C                |   118.15
    8 C                |   9 C                |  24 C                |   122.44
    2 C                |  10 C                |  24 C                |   119.93
    2 C                |  10 C                |  25 H                |   120.60
   24 C                |  10 C                |  25 H                |   119.48
    7 C                |  11 C                |  12 C                |   110.20
    7 C                |  11 C                |  15 C                |   113.44
    7 C                |  11 C                |  16 H                |   107.26
   12 C                |  11 C                |  15 C                |   112.81
   12 C                |  11 C                |  16 H                |   103.91
   15 C                |  11 C                |  16 H                |   108.60
   11 C                |  12 C                |  13 O                |   112.73
   11 C                |  12 C                |  14 O                |   125.14
   13 O                |  12 C                |  14 O                |   122.12
   12 C                |  13 O                |  20 H                |   105.99
   11 C                |  15 C                |  17 H                |   109.51
   11 C                |  15 C                |  18 H                |   111.73
   11 C                |  15 C                |  19 H                |   110.81
   17 H                |  15 C                |  18 H                |   108.36
   17 H                |  15 C                |  19 H                |   108.30
   18 H                |  15 C                |  19 H                |   108.03
    9 C                |  24 C                |  10 C                |   121.62
    9 C                |  24 C                |  26 H                |   118.90
   10 C                |  24 C                |  26 H                |   119.47
    1 O                |  28 C                |  29 H                |   111.57
    1 O                |  28 C                |  30 H                |   111.58
    1 O                |  28 C                |  31 H                |   105.44
   29 H                |  28 C                |  30 H                |   109.51
   29 H                |  28 C                |  31 H                |   109.32
   30 H                |  28 C                |  31 H                |   109.32
 ------------------------------------------------------------------------------
                            number of included internuclear angles:         53
 ==============================================================================



  warning:::::::::::::: from_environment
  NWCHEM_BASIS_LIBRARY set to: <
 /util/academic/nwchem/nwchem-6.8/src/basis/libraries>
  but file does not exist !
  using .nwchemrc or compiled library


 Summary of "ao basis" -> "" (spherical)
 ------------------------------------------------------------------------------
       Tag                 Description            Shells   Functions and Types
 ---------------- ------------------------------  ------  ---------------------
 *                         def2-TZVP                  on all atoms 


 
                                 NWChem DFT Module
                                 -----------------
 
 
                       naproxen roa calculations at 355.9 nm
 
 
                      Basis "ao basis" -> "ao basis" (spherical)
                      -----
  O (Oxygen)
  ----------
            Exponent  Coefficients 
       -------------- ---------------------------------------------------------
  1 S  2.70323826E+04  0.000217
  1 S  4.05238714E+03  0.001684
  1 S  9.22327227E+02  0.008740
  1 S  2.61240710E+02  0.035240
  1 S  8.53546414E+01  0.111535
  1 S  3.10350352E+01  0.255890
 
  2 S  1.22608607E+01  0.397687
  2 S  4.99870760E+00  0.246278
 
  3 S  1.17031082E+00  1.000000
 
  4 S  4.64747410E-01  1.000000
 
  5 S  1.85045364E-01  1.000000
 
  6 P  6.32749548E+01  0.006069
  6 P  1.46270494E+01  0.041913
  6 P  4.45012235E+00  0.161538
  6 P  1.52757996E+00  0.357070
 
  7 P  5.29351179E-01  1.000000
 
  8 P  1.74784213E-01  1.000000
 
  9 D  2.31400000E+00  1.000000
 
 10 D  6.45000000E-01  1.000000
 
 11 F  1.42800000E+00  1.000000
 
  C (Carbon)
  ----------
            Exponent  Coefficients 
       -------------- ---------------------------------------------------------
  1 S  1.35753497E+04  0.000222
  1 S  2.03523337E+03  0.001723
  1 S  4.63225624E+02  0.008926
  1 S  1.31200196E+02  0.035728
  1 S  4.28530159E+01  0.110763
  1 S  1.55841858E+01  0.242956
 
  2 S  6.20671385E+00  0.414403
  2 S  2.57648965E+00  0.237450
 
  3 S  5.76963394E-01  1.000000
 
  4 S  2.29728314E-01  1.000000
 
  5 S  9.51644400E-02  1.000000
 
  6 P  3.46972322E+01  0.005333
  6 P  7.95826228E+00  0.035864
  6 P  2.37808269E+00  0.142159
  6 P  8.14332082E-01  0.342705
 
  7 P  2.88875473E-01  1.000000
 
  8 P  1.00568237E-01  1.000000
 
  9 D  1.09700000E+00  1.000000
 
 10 D  3.18000000E-01  1.000000
 
 11 F  7.61000000E-01  1.000000
 
  H (Hydrogen)
  ------------
            Exponent  Coefficients 
       -------------- ---------------------------------------------------------
  1 S  3.40613410E+01  0.006025
  1 S  5.12357460E+00  0.045021
  1 S  1.16466260E+00  0.201897
 
  2 S  3.27230410E-01  1.000000
 
  3 S  1.03072410E-01  1.000000
 
  4 P  8.00000000E-01  1.000000
 


 Summary of "ao basis" -> "ao basis" (spherical)
 ------------------------------------------------------------------------------
       Tag                 Description            Shells   Functions and Types
 ---------------- ------------------------------  ------  ---------------------
 O                         def2-TZVP                11       31   5s3p2d1f
 C                         def2-TZVP                11       31   5s3p2d1f
 H                         def2-TZVP                 4        6   3s1p




 Summary of "ao basis" -> "ao basis" (spherical)
 ------------------------------------------------------------------------------
       Tag                 Description            Shells   Functions and Types
 ---------------- ------------------------------  ------  ---------------------
 O                         def2-TZVP                11       31   5s3p2d1f
 C                         def2-TZVP                11       31   5s3p2d1f
 H                         def2-TZVP                 4        6   3s1p


  Caching 1-el integrals 
 
            General Information
            -------------------
          SCF calculation type: DFT
          Wavefunction type:  closed shell.
          No. of atoms     :    31
          No. of electrons :   122
           Alpha electrons :    61
            Beta electrons :    61
          Charge           :     0
          Spin multiplicity:     1
          Use of symmetry is: off; symmetry adaption is: off
          Maximum number of iterations: 250
          This is a Direct SCF calculation.
          AO basis - number of functions:   611
                     number of shells:   243
          Convergence on energy requested:  1.00D-06
          Convergence on density requested:  1.00D-05
          Convergence on gradient requested:  1.00D-06
 
              XC Information
              --------------
                    Becke 1988 Exchange Functional  1.000          
              Lee-Yang-Parr Correlation Functional  1.000          
 
             Grid Information
             ----------------
          Grid used for XC integration:  xfine     
          Radial quadrature: Mura-Knowles        
          Angular quadrature: Lebedev. 
          Tag              B.-S. Rad. Rad. Pts. Rad. Cut. Ang. Pts.
          ---              ---------- --------- --------- ---------
          O                   0.60      100          18.0      1454
          C                   0.70      100          20.0      1454
          H                   0.35      100          19.0      1202
          Grid pruning is: on 
          Number of quadrature shells:  3100
          Spatial weights used:  Erf1
 
          Convergence Information
          -----------------------
          Convergence aids based upon iterative change in 
          total energy or number of iterations. 
          Levelshifting, if invoked, occurs when the 
          HOMO/LUMO gap drops below (HL_TOL):  1.00D-02
          DIIS, if invoked, will attempt to extrapolate 
          using up to (NFOCK): 10 stored Fock matrices.

                    Damping( 0%)  Levelshifting(0.0)       DIIS
                  --------------- ------------------- ---------------
          dE  on:    start             N/A                start   
          dE off:    2 iters           N/A              250 iters 

 
      Screening Tolerance Information
      -------------------------------
          Density screening/tol_rho:  1.00D-10
          AO Gaussian exp screening on grid/accAOfunc:  14
          CD Gaussian exp screening on grid/accCDfunc:  20
          XC Gaussian exp screening on grid/accXCfunc:  20
          Schwarz screening/accCoul:  1.00D-08

 
 WARNING : Found     2 linear dependencies 
 S eigenvalue threshold:     1.00000E-05
 Smallest S eigenvalue :     5.93097E-06
 Largest  S eigenvalue :     7.47023E-06
 

 !! The overlap matrix has   2 vectors deemed linearly dependent with
    eigenvalues:
 5.93D-06 7.47D-06
 
 
      Superposition of Atomic Density Guess
      -------------------------------------
 
 Sum of atomic energies:        -758.74884536
 
      Non-variational initial energy
      ------------------------------

 Total energy =    -769.923333
 1-e energy   =   -3254.555237
 2-e energy   =    1363.622900
 HOMO         =      -0.233288
 LUMO         =      -0.059123
 
   Time after variat. SCF:     94.9
   Time prior to 1st pass:     94.9

 Grid_pts file          = ./naproxen_355.9_001.inp.gridpts.00
 Record size in doubles =  12289        No. of grid_pts per rec  =   3070
 Max. records in memory =    148        Max. recs in file   =   1655125

 Grid integrated density:     121.999624125993
 Requested integration accuracy:   0.10E-07

           Memory utilization after 1st SCF pass: 
           Heap Space remaining (MW):       11.15            11149714
          Stack Space remaining (MW):       13.10            13102884

   convergence    iter        energy       DeltaE   RMS-Dens  Diis-err    time
 ---------------- ----- ----------------- --------- --------- ---------  ------
 d= 0,ls=0.0,diis     1   -767.2414353020 -1.89D+03  5.47D-03  4.15D+00   228.6
 Grid integrated density:     122.000001818563
 Requested integration accuracy:   0.10E-07
 d= 0,ls=0.0,diis     2   -766.6599120875  5.82D-01  4.11D-03  9.90D+00   362.0
 Grid integrated density:     122.000001787167
 Requested integration accuracy:   0.10E-07
 d= 0,ls=0.0,diis     3   -767.4269283634 -7.67D-01  2.22D-03  2.18D+00   495.5
 Grid integrated density:     122.000001912055
 Requested integration accuracy:   0.10E-07
 d= 0,ls=0.0,diis     4   -767.5762229716 -1.49D-01  1.03D-03  5.79D-01   629.1
 Grid integrated density:     122.000001900632
 Requested integration accuracy:   0.10E-07
 d= 0,ls=0.0,diis     5   -767.6239383903 -4.77D-02  3.25D-04  4.99D-02   762.6
 Grid integrated density:     122.000001877794
 Requested integration accuracy:   0.10E-07
 d= 0,ls=0.0,diis     6   -767.6274538923 -3.52D-03  1.35D-04  1.19D-02   896.1
 Grid integrated density:     122.000001876226
 Requested integration accuracy:   0.10E-07
 d= 0,ls=0.0,diis     7   -767.6289220547 -1.47D-03  5.24D-05  1.51D-03  1029.5
 Grid integrated density:     122.000001879847
 Requested integration accuracy:   0.10E-07
 d= 0,ls=0.0,diis     8   -767.6290988525 -1.77D-04  2.00D-05  1.87D-04  1163.1
 Grid integrated density:     122.000001880352
 Requested integration accuracy:   0.10E-07
 d= 0,ls=0.0,diis     9   -767.6291226083 -2.38D-05  6.46D-06  1.80D-05  1296.6
 Grid integrated density:     122.000001880056
 Requested integration accuracy:   0.10E-07
 d= 0,ls=0.0,diis    10   -767.6291245316 -1.92D-06  2.23D-06  2.48D-06  1430.0
 Grid integrated density:     122.000001879996
 Requested integration accuracy:   0.10E-07
 d= 0,ls=0.0,diis    11   -767.6291247888 -2.57D-07  9.91D-07  4.50D-07  1563.4


         Total DFT energy =     -767.629124788795
      One electron energy =    -3268.529852803977
           Coulomb energy =     1486.697460013326
    Exchange-Corr. energy =     -106.805736597755
 Nuclear repulsion energy =     1121.009004599611

 Numeric. integr. density =      122.000001879996

     Total iterative time =   1468.5s


 
                       DFT Final Molecular Orbital Analysis
                       ------------------------------------
 
 Vector    1  Occ=2.000000D+00  E=-1.882018D+01
              MO Center=  6.5D+00, -5.5D-01,  4.5D-01, r^2= 1.5D-02
   Bfn.  Coefficient  Atom+Function         Bfn.  Coefficient  Atom+Function  
  ----- ------------  ---------------      ----- ------------  ---------------
   374      0.638455  13 O  s               373      0.435410  13 O  s         
   375      0.039870  13 O  s               376     -0.034358  13 O  s         
 
 Vector    2  Occ=2.000000D+00  E=-1.880720D+01
              MO Center= -2.0D+00, -7.2D-01, -4.5D-01, r^2= 1.5D-02
   Bfn.  Coefficient  Atom+Function         Bfn.  Coefficient  Atom+Function  
  ----- ------------  ---------------      ----- ------------  ---------------
     2      0.638265   1 O  s                 1      0.435459   1 O  s         
     3      0.041745   1 O  s                 4     -0.039624   1 O  s         
 
 Vector    3  Occ=2.000000D+00  E=-1.876344D+01
              MO Center=  6.7D+00,  1.5D+00,  1.4D+00, r^2= 1.5D-02
   Bfn.  Coefficient  Atom+Function         Bfn.  Coefficient  Atom+Function  
  ----- ------------  ---------------      ----- ------------  ---------------
   405      0.638440  14 O  s               404      0.435400  14 O  s         
   406      0.039994  14 O  s               407     -0.036660  14 O  s         
 
 Vector    4  Occ=2.000000D+00  E=-1.003456D+01
              MO Center=  6.3D+00,  8.1D-01,  4.9D-01, r^2= 2.8D-02
   Bfn.  Coefficient  Atom+Function         Bfn.  Coefficient  Atom+Function  
  ----- ------------  ---------------      ----- ------------  ---------------
   343      0.606442  12 C  s               342      0.467376  12 C  s         
   344      0.043241  12 C  s         
 
 Vector    5  Occ=2.000000D+00  E=-9.970972D+00
              MO Center= -6.8D-01, -6.5D-01, -5.4D-01, r^2= 2.8D-02
   Bfn.  Coefficient  Atom+Function         Bfn.  Coefficient  Atom+Function  
  ----- ------------  ---------------      ----- ------------  ---------------
    33      0.606510   2 C  s                32      0.467315   2 C  s         
    34      0.047495   2 C  s                35     -0.033730   2 C  s         
   106      0.026339   4 C  py              260     -0.025292   9 C  px        
 
 Vector    6  Occ=2.000000D+00  E=-9.965899D+00
              MO Center= -2.7D+00, -2.0D+00, -5.6D-01, r^2= 2.8D-02
   Bfn.  Coefficient  Atom+Function         Bfn.  Coefficient  Atom+Function  
  ----- ------------  ---------------      ----- ------------  ---------------
   564      0.607002  28 C  s               563      0.467298  28 C  s         
   565      0.040029  28 C  s               567      0.027721  28 C  s         
 
 Vector    7  Occ=2.000000D+00  E=-9.935422D+00
              MO Center=  5.6D+00,  1.3D+00, -7.7D-01, r^2= 2.8D-02
   Bfn.  Coefficient  Atom+Function         Bfn.  Coefficient  Atom+Function  
  ----- ------------  ---------------      ----- ------------  ---------------
   312      0.606564  11 C  s               311      0.467316  11 C  s         
   315      0.092355  11 C  s               314     -0.051155  11 C  s         
   313      0.048501  11 C  s         
 
 Vector    8  Occ=2.000000D+00  E=-9.922162D+00
              MO Center=  4.1D+00,  1.1D+00, -6.8D-01, r^2= 3.1D-02
   Bfn.  Coefficient  Atom+Function         Bfn.  Coefficient  Atom+Function  
  ----- ------------  ---------------      ----- ------------  ---------------
   188      0.606134   7 C  s               187      0.467126   7 C  s         
   189      0.053717   7 C  s               190     -0.051832   7 C  s         
   191      0.043709   7 C  s               159      0.029676   6 C  s         
 
 Vector    9  Occ=2.000000D+00  E=-9.921353D+00
              MO Center=  1.3D+00,  8.1D-01, -5.1D-01, r^2= 3.2D-02
   Bfn.  Coefficient  Atom+Function         Bfn.  Coefficient  Atom+Function  
  ----- ------------  ---------------      ----- ------------  ---------------
    95      0.605805   4 C  s                94      0.466940   4 C  s         
    97     -0.061283   4 C  s                96      0.055693   4 C  s         
   252      0.054234   9 C  s                66      0.036761   3 C  s         
   128      0.032797   5 C  s               315      0.028598  11 C  s         
 
 Vector   10  Occ=2.000000D+00  E=-9.918368D+00
              MO Center=  2.1D+00, -3.4D-01, -7.0D-01, r^2= 4.4D-02
   Bfn.  Coefficient  Atom+Function         Bfn.  Coefficient  Atom+Function  
  ----- ------------  ---------------      ----- ------------  ---------------
   250      0.603754   9 C  s               249      0.465389   9 C  s         
   252     -0.062661   9 C  s                97      0.057536   4 C  s         
   251      0.056227   9 C  s               515      0.049870  24 C  s         
   221      0.039167   8 C  s               514      0.038258  24 C  s         
   517      0.034854  24 C  s         
 
 Vector   11  Occ=2.000000D+00  E=-9.916681D+00
              MO Center=  1.4D+00, -1.6D+00, -8.0D-01, r^2= 2.1D-01
   Bfn.  Coefficient  Atom+Function         Bfn.  Coefficient  Atom+Function  
  ----- ------------  ---------------      ----- ------------  ---------------
   515      0.575057  24 C  s               514      0.442894  24 C  s         
   281      0.187107  10 C  s               280      0.143937  10 C  s         
   250     -0.048203   9 C  s               516      0.043595  24 C  s         
   249     -0.037308   9 C  s               261     -0.034470   9 C  py        
   252      0.032521   9 C  s               253     -0.030290   9 C  s         
 
 Vector   12  Occ=2.000000D+00  E=-9.915984D+00
              MO Center=  3.0D-01, -1.8D+00, -7.4D-01, r^2= 1.9D-01
   Bfn.  Coefficient  Atom+Function         Bfn.  Coefficient  Atom+Function  
  ----- ------------  ---------------      ----- ------------  ---------------
   281      0.577110  10 C  s               280      0.444461  10 C  s         
   515     -0.186480  24 C  s               514     -0.143787  24 C  s         
   282      0.041984  10 C  s         
 
 Vector   13  Occ=2.000000D+00  E=-9.911013D+00
              MO Center=  3.2D+00,  2.2D+00, -4.7D-01, r^2= 7.8D-02
   Bfn.  Coefficient  Atom+Function         Bfn.  Coefficient  Atom+Function  
  ----- ------------  ---------------      ----- ------------  ---------------
   157      0.599064   6 C  s               156      0.461335   6 C  s         
   126      0.093924   5 C  s               125      0.072193   5 C  s         
   158      0.044383   6 C  s         
 
 Vector   14  Occ=2.000000D+00  E=-9.910613D+00
              MO Center=  3.5D+00, -1.4D-01, -7.8D-01, r^2= 3.5D-02
   Bfn.  Coefficient  Atom+Function         Bfn.  Coefficient  Atom+Function  
  ----- ------------  ---------------      ----- ------------  ---------------
   219      0.605977   8 C  s               218      0.466850   8 C  s         
   220      0.047560   8 C  s               252      0.033800   9 C  s         
   315      0.033470  11 C  s         
 
 Vector   15  Occ=2.000000D+00  E=-9.909628D+00
              MO Center=  1.9D+00,  2.1D+00, -4.0D-01, r^2= 7.3D-02
   Bfn.  Coefficient  Atom+Function         Bfn.  Coefficient  Atom+Function  
  ----- ------------  ---------------      ----- ------------  ---------------
   126      0.599228   5 C  s               125      0.461565   5 C  s         
   157     -0.093535   6 C  s               156     -0.072191   6 C  s         
   127      0.045197   5 C  s               106      0.033454   4 C  py        
    97      0.030169   4 C  s                98     -0.027000   4 C  s         
   260     -0.026697   9 C  px        
 
 Vector   16  Occ=2.000000D+00  E=-9.907803D+00
              MO Center=  6.3D+00,  8.0D-01, -2.1D+00, r^2= 2.8D-02
   Bfn.  Coefficient  Atom+Function         Bfn.  Coefficient  Atom+Function  
  ----- ------------  ---------------      ----- ------------  ---------------
   436      0.606867  15 C  s               435      0.467240  15 C  s         
   437      0.042033  15 C  s               439      0.036054  15 C  s         
   438     -0.027506  15 C  s         
 
 Vector   17  Occ=2.000000D+00  E=-9.905886D+00
              MO Center= -1.2D-01,  6.2D-01, -4.3D-01, r^2= 2.8D-02
   Bfn.  Coefficient  Atom+Function         Bfn.  Coefficient  Atom+Function  
  ----- ------------  ---------------      ----- ------------  ---------------
    64      0.606494   3 C  s                63      0.467188   3 C  s         
    65      0.046103   3 C  s               105     -0.033757   4 C  px        
    97      0.028293   4 C  s         
 
 Vector   18  Occ=2.000000D+00  E=-1.002472D+00
              MO Center=  6.6D+00,  2.2D-01,  7.6D-01, r^2= 1.1D+00
   Bfn.  Coefficient  Atom+Function         Bfn.  Coefficient  Atom+Function  
  ----- ------------  ---------------      ----- ------------  ---------------
   376      0.331432  13 O  s               375      0.252942  13 O  s         
   407      0.193634  14 O  s               344      0.189655  12 C  s         
   374     -0.173826  13 O  s               406      0.165312  14 O  s         
   345      0.146857  12 C  s               343     -0.117469  12 C  s         
   405     -0.112329  14 O  s               377      0.103851  13 O  s         
 
 Vector   19  Occ=2.000000D+00  E=-9.659916D-01
              MO Center= -1.9D+00, -8.9D-01, -4.8D-01, r^2= 6.9D-01
   Bfn.  Coefficient  Atom+Function         Bfn.  Coefficient  Atom+Function  
  ----- ------------  ---------------      ----- ------------  ---------------
     4      0.424205   1 O  s                 3      0.309743   1 O  s         
     2     -0.214803   1 O  s                 5      0.137355   1 O  s         
    34      0.126518   2 C  s               565      0.102307  28 C  s         
     1     -0.092333   1 O  s                35      0.089297   2 C  s         
    37     -0.080224   2 C  px              566      0.078899  28 C  s         
 
 Vector   20  Occ=2.000000D+00  E=-9.205620D-01
              MO Center=  6.6D+00,  7.2D-01,  9.7D-01, r^2= 1.3D+00
   Bfn.  Coefficient  Atom+Function         Bfn.  Coefficient  Atom+Function  
  ----- ------------  ---------------      ----- ------------  ---------------
   407      0.325253  14 O  s               376     -0.284733  13 O  s         
   406      0.268381  14 O  s               375     -0.208439  13 O  s         
   405     -0.179965  14 O  s               374      0.142512  13 O  s         
   348      0.138806  12 C  py              408      0.113481  14 O  s         
   377     -0.106474  13 O  s               349      0.104250  12 C  pz        
 
 Vector   21  Occ=2.000000D+00  E=-7.879759D-01
              MO Center=  2.0D+00,  3.2D-01, -6.1D-01, r^2= 3.9D+00
   Bfn.  Coefficient  Atom+Function         Bfn.  Coefficient  Atom+Function  
  ----- ------------  ---------------      ----- ------------  ---------------
   251      0.158392   9 C  s                96      0.155442   4 C  s         
   252      0.141600   9 C  s                97      0.138593   4 C  s         
   220      0.115760   8 C  s               189      0.109138   7 C  s         
   190      0.107365   7 C  s               127      0.105327   5 C  s         
   516      0.105090  24 C  s               250     -0.102179   9 C  s         
 
 Vector   22  Occ=2.000000D+00  E=-7.505409D-01
              MO Center=  2.8D+00,  3.8D-01, -6.8D-01, r^2= 8.2D+00
   Bfn.  Coefficient  Atom+Function         Bfn.  Coefficient  Atom+Function  
  ----- ------------  ---------------      ----- ------------  ---------------
   189      0.160823   7 C  s               190      0.160160   7 C  s         
   314      0.159471  11 C  s               313      0.138971  11 C  s         
   282     -0.118856  10 C  s                34     -0.111481   2 C  s         
   158      0.109073   6 C  s                35     -0.108279   2 C  s         
   188     -0.103804   7 C  s               283     -0.103221  10 C  s         
 
 Vector   23  Occ=2.000000D+00  E=-7.137129D-01
              MO Center=  3.4D+00,  6.8D-01, -7.4D-01, r^2= 9.4D+00
   Bfn.  Coefficient  Atom+Function         Bfn.  Coefficient  Atom+Function  
  ----- ------------  ---------------      ----- ------------  ---------------
   314      0.210677  11 C  s               313      0.169586  11 C  s         
   127     -0.142237   5 C  s               437      0.128155  15 C  s         
   128     -0.126448   5 C  s               438      0.121374  15 C  s         
   282      0.116697  10 C  s               312     -0.111152  11 C  s         
   283      0.106938  10 C  s                97     -0.098460   4 C  s         
 
 Vector   24  Occ=2.000000D+00  E=-6.947382D-01
              MO Center=  1.1D+00, -2.1D-01, -6.2D-01, r^2= 6.2D+00
   Bfn.  Coefficient  Atom+Function         Bfn.  Coefficient  Atom+Function  
  ----- ------------  ---------------      ----- ------------  ---------------
   252     -0.169141   9 C  s                65      0.157898   3 C  s         
   516     -0.155480  24 C  s               251     -0.137543   9 C  s         
    66      0.129416   3 C  s               517     -0.128588  24 C  s         
   220     -0.125401   8 C  s                35      0.123669   2 C  s         
    34      0.110446   2 C  s                97      0.106443   4 C  s         
 
 Vector   25  Occ=2.000000D+00  E=-6.622155D-01
              MO Center=  1.7D+00,  1.8D-01, -7.1D-01, r^2= 1.2D+01
   Bfn.  Coefficient  Atom+Function         Bfn.  Coefficient  Atom+Function  
  ----- ------------  ---------------      ----- ------------  ---------------
    97      0.166880   4 C  s                96      0.150946   4 C  s         
   566      0.147840  28 C  s               565      0.144360  28 C  s         
   190     -0.136846   7 C  s                35     -0.126176   2 C  s         
   158     -0.121135   6 C  s               189     -0.118530   7 C  s         
   438      0.119012  15 C  s               437      0.115397  15 C  s         
 
 Vector   26  Occ=2.000000D+00  E=-6.557242D-01
              MO Center=  1.2D+00, -2.1D-01, -6.2D-01, r^2= 8.2D+00
   Bfn.  Coefficient  Atom+Function         Bfn.  Coefficient  Atom+Function  
  ----- ------------  ---------------      ----- ------------  ---------------
   283      0.171969  10 C  s               282      0.161844  10 C  s         
   221     -0.151977   8 C  s               220     -0.150923   8 C  s         
   159      0.140166   6 C  s               158      0.138897   6 C  s         
   566      0.128609  28 C  s               128      0.126340   5 C  s         
   127      0.121797   5 C  s               565      0.122194  28 C  s         
 
 Vector   27  Occ=2.000000D+00  E=-6.187369D-01
              MO Center=  8.2D-01, -3.5D-01, -7.7D-01, r^2= 1.4D+01
   Bfn.  Coefficient  Atom+Function         Bfn.  Coefficient  Atom+Function  
  ----- ------------  ---------------      ----- ------------  ---------------
   566      0.195803  28 C  s               565      0.184108  28 C  s         
    66      0.150813   3 C  s                65      0.133607   3 C  s         
   438     -0.131962  15 C  s               190      0.129608   7 C  s         
   437     -0.121677  15 C  s                 4     -0.119708   1 O  s         
   189      0.112184   7 C  s               564     -0.111980  28 C  s         
 
 Vector   28  Occ=2.000000D+00  E=-5.962201D-01
              MO Center=  5.4D+00,  4.2D-01, -9.1D-01, r^2= 7.8D+00
   Bfn.  Coefficient  Atom+Function         Bfn.  Coefficient  Atom+Function  
  ----- ------------  ---------------      ----- ------------  ---------------
   438      0.235297  15 C  s               437      0.207807  15 C  s         
   345     -0.157447  12 C  s               344     -0.153253  12 C  s         
   436     -0.130670  15 C  s               314     -0.129604  11 C  s         
   318     -0.111364  11 C  pz              379     -0.110636  13 O  py        
   349      0.095437  12 C  pz              407      0.092031  14 O  s         
 
 Vector   29  Occ=2.000000D+00  E=-5.681329D-01
              MO Center=  2.7D+00,  6.3D-02, -4.4D-01, r^2= 9.7D+00
   Bfn.  Coefficient  Atom+Function         Bfn.  Coefficient  Atom+Function  
  ----- ------------  ---------------      ----- ------------  ---------------
   221      0.155278   8 C  s               517     -0.135006  24 C  s         
   283      0.127723  10 C  s               516     -0.116745  24 C  s         
    66     -0.113683   3 C  s               159     -0.110271   6 C  s         
   282      0.109953  10 C  s               220      0.109124   8 C  s         
   128      0.107826   5 C  s               193     -0.107101   7 C  py        
 
 Vector   30  Occ=2.000000D+00  E=-5.463565D-01
              MO Center=  2.7D+00,  2.1D-01, -3.6D-01, r^2= 1.2D+01
   Bfn.  Coefficient  Atom+Function         Bfn.  Coefficient  Atom+Function  
  ----- ------------  ---------------      ----- ------------  ---------------
    97      0.171948   4 C  s               379     -0.135385  13 O  py        
   159     -0.131575   6 C  s                96      0.129420   4 C  s         
   158     -0.115051   6 C  s               314      0.113801  11 C  s         
   382     -0.105275  13 O  py              345     -0.104539  12 C  s         
   283      0.102696  10 C  s                38     -0.099506   2 C  py        
 
 Vector   31  Occ=2.000000D+00  E=-5.351523D-01
              MO Center=  1.5D+00, -4.4D-02, -6.2D-01, r^2= 5.9D+00
   Bfn.  Coefficient  Atom+Function         Bfn.  Coefficient  Atom+Function  
  ----- ------------  ---------------      ----- ------------  ---------------
   252      0.176157   9 C  s               517     -0.144862  24 C  s         
   251      0.133589   9 C  s                35      0.124296   2 C  s         
    66     -0.124883   3 C  s               100     -0.119902   4 C  py        
   516     -0.116944  24 C  s               221     -0.106887   8 C  s         
   285     -0.098952  10 C  px              520      0.098234  24 C  py        
 
 Vector   32  Occ=2.000000D+00  E=-5.185046D-01
              MO Center=  3.4D+00,  3.1D-01, -4.0D-01, r^2= 1.3D+01
   Bfn.  Coefficient  Atom+Function         Bfn.  Coefficient  Atom+Function  
  ----- ------------  ---------------      ----- ------------  ---------------
   314      0.179499  11 C  s               379     -0.149044  13 O  py        
   190     -0.122590   7 C  s               128      0.120456   5 C  s         
   348      0.117921  12 C  py              382     -0.117331  13 O  py        
   313      0.111302  11 C  s               127      0.102551   5 C  s         
    35      0.097619   2 C  s               189     -0.094831   7 C  s         
 
 Vector   33  Occ=2.000000D+00  E=-4.764217D-01
              MO Center= -6.0D-02, -6.8D-01, -5.7D-01, r^2= 9.2D+00
   Bfn.  Coefficient  Atom+Function         Bfn.  Coefficient  Atom+Function  
  ----- ------------  ---------------      ----- ------------  ---------------
     6      0.201816   1 O  px               37     -0.167156   2 C  px        
   569     -0.167981  28 C  py                9      0.161776   1 O  px        
   572     -0.106197  28 C  py                7      0.104039   1 O  py        
   286     -0.101512  10 C  py              131     -0.097354   5 C  py        
    40     -0.095005   2 C  px              221     -0.093426   8 C  s         
 
 Vector   34  Occ=2.000000D+00  E=-4.595594D-01
              MO Center=  2.2D+00,  9.6D-02, -6.0D-01, r^2= 1.0D+01
   Bfn.  Coefficient  Atom+Function         Bfn.  Coefficient  Atom+Function  
  ----- ------------  ---------------      ----- ------------  ---------------
   254      0.132853   9 C  px              286     -0.132306  10 C  py        
   223     -0.121214   8 C  px              546      0.116220  25 H  s         
   190     -0.115085   7 C  s               283      0.112616  10 C  s         
   128     -0.112047   5 C  s                66      0.111194   3 C  s         
    35     -0.104012   2 C  s               316      0.104068  11 C  px        
 
 Vector   35  Occ=2.000000D+00  E=-4.533528D-01
              MO Center=  1.8D+00,  2.7D-01, -4.8D-01, r^2= 1.2D+01
   Bfn.  Coefficient  Atom+Function         Bfn.  Coefficient  Atom+Function  
  ----- ------------  ---------------      ----- ------------  ---------------
    38      0.128796   2 C  py              285      0.113318  10 C  px        
    99      0.106731   4 C  px              161     -0.106538   6 C  px        
    68     -0.104418   3 C  px              224      0.102613   8 C  py        
    69     -0.097352   3 C  py              519     -0.096984  24 C  px        
     6     -0.094185   1 O  px              568     -0.090859  28 C  px        
 
 Vector   36  Occ=2.000000D+00  E=-4.256255D-01
              MO Center=  5.4D+00,  5.1D-01,  1.5D-01, r^2= 8.0D+00
   Bfn.  Coefficient  Atom+Function         Bfn.  Coefficient  Atom+Function  
  ----- ------------  ---------------      ----- ------------  ---------------
   379      0.164897  13 O  py              410     -0.162670  14 O  py        
   380      0.157185  13 O  pz              407     -0.150440  14 O  s         
   349      0.137482  12 C  pz              377     -0.127487  13 O  s         
   382      0.127438  13 O  py              383      0.122008  13 O  pz        
   413     -0.117737  14 O  py              376     -0.115038  13 O  s         
 
 Vector   37  Occ=2.000000D+00  E=-4.198616D-01
              MO Center=  5.0D+00,  7.5D-01,  1.3D-01, r^2= 1.1D+01
   Bfn.  Coefficient  Atom+Function         Bfn.  Coefficient  Atom+Function  
  ----- ------------  ---------------      ----- ------------  ---------------
   407     -0.183019  14 O  s               411     -0.179725  14 O  pz        
   345      0.166919  12 C  s               348      0.142208  12 C  py        
   344      0.132432  12 C  s               318      0.129954  11 C  pz        
   414     -0.126957  14 O  pz              408     -0.126020  14 O  s         
   406     -0.118841  14 O  s               380      0.114442  13 O  pz        
 
 Vector   38  Occ=2.000000D+00  E=-4.158632D-01
              MO Center= -2.2D+00, -1.7D+00, -5.5D-01, r^2= 2.0D+00
   Bfn.  Coefficient  Atom+Function         Bfn.  Coefficient  Atom+Function  
  ----- ------------  ---------------      ----- ------------  ---------------
   570      0.279022  28 C  pz                8      0.224277   1 O  pz        
   573      0.191572  28 C  pz               11      0.183603   1 O  pz        
   601     -0.152936  30 H  s               595      0.150367  29 H  s         
   600     -0.113925  30 H  s               594      0.112004  29 H  s         
    39      0.104005   2 C  pz               14      0.094049   1 O  pz        
 
 Vector   39  Occ=2.000000D+00  E=-4.140493D-01
              MO Center=  2.2D+00, -2.8D-04, -4.3D-01, r^2= 1.2D+01
   Bfn.  Coefficient  Atom+Function         Bfn.  Coefficient  Atom+Function  
  ----- ------------  ---------------      ----- ------------  ---------------
   162      0.150552   6 C  py                7      0.132687   1 O  py        
   286     -0.122175  10 C  py              519     -0.121620  24 C  px        
   100     -0.117378   4 C  py              255      0.108204   9 C  py        
    10      0.106657   1 O  py              380      0.100555  13 O  pz        
   503      0.092592  22 H  s               192      0.091351   7 C  px        
 
 Vector   40  Occ=2.000000D+00  E=-4.025781D-01
              MO Center=  4.2D+00,  4.0D-01, -2.1D-01, r^2= 1.2D+01
   Bfn.  Coefficient  Atom+Function         Bfn.  Coefficient  Atom+Function  
  ----- ------------  ---------------      ----- ------------  ---------------
   347      0.187556  12 C  px              378      0.145484  13 O  px        
   350      0.142003  12 C  px              409      0.141109  14 O  px        
   381      0.117598  13 O  px              412      0.111267  14 O  px        
   223      0.107739   8 C  px               68      0.097796   3 C  px        
   316      0.095941  11 C  px              442      0.090423  15 C  pz        
 
 Vector   41  Occ=2.000000D+00  E=-3.956531D-01
              MO Center=  1.3D+00,  8.5D-02, -5.9D-01, r^2= 1.0D+01
   Bfn.  Coefficient  Atom+Function         Bfn.  Coefficient  Atom+Function  
  ----- ------------  ---------------      ----- ------------  ---------------
    97      0.145716   4 C  s               252     -0.141160   9 C  s         
   224     -0.135887   8 C  py              131     -0.133528   5 C  py        
   568     -0.131126  28 C  px              558     -0.126781  27 H  s         
   509      0.119316  23 H  s               520     -0.112830  24 C  py        
    66     -0.099681   3 C  s                69     -0.098451   3 C  py        
 
 Vector   42  Occ=2.000000D+00  E=-3.894214D-01
              MO Center=  1.8D+00,  1.9D-01, -5.4D-01, r^2= 1.3D+01
   Bfn.  Coefficient  Atom+Function         Bfn.  Coefficient  Atom+Function  
  ----- ------------  ---------------      ----- ------------  ---------------
   130      0.171940   5 C  px              161     -0.143091   6 C  px        
   568      0.133732  28 C  px                7     -0.121592   1 O  py        
   520     -0.118559  24 C  py              497     -0.116228  21 H  s         
   552      0.116590  26 H  s               133      0.103302   5 C  px        
    10     -0.098531   1 O  py              519      0.093978  24 C  px        
 
 Vector   43  Occ=2.000000D+00  E=-3.783921D-01
              MO Center=  4.5D+00,  2.4D-01, -8.1D-01, r^2= 1.4D+01
   Bfn.  Coefficient  Atom+Function         Bfn.  Coefficient  Atom+Function  
  ----- ------------  ---------------      ----- ------------  ---------------
   441     -0.153140  15 C  py              378      0.149695  13 O  px        
   317     -0.135928  11 C  py              381      0.119585  13 O  px        
   479      0.113499  18 H  s               285     -0.110799  10 C  px        
   347      0.108461  12 C  px              467     -0.106738  16 H  s         
   519      0.102558  24 C  px              444     -0.098277  15 C  py        
 
 Vector   44  Occ=2.000000D+00  E=-3.694656D-01
              MO Center=  1.8D+00,  2.1D-01, -6.2D-01, r^2= 7.0D+00
   Bfn.  Coefficient  Atom+Function         Bfn.  Coefficient  Atom+Function  
  ----- ------------  ---------------      ----- ------------  ---------------
   131     -0.151464   5 C  py               69      0.144122   3 C  py        
   520      0.135798  24 C  py              497     -0.130085  21 H  s         
   224     -0.128503   8 C  py              552     -0.126185  26 H  s         
   558      0.119391  27 H  s               519     -0.118294  24 C  px        
   509      0.112723  23 H  s               130      0.092205   5 C  px        
 
 Vector   45  Occ=2.000000D+00  E=-3.630454D-01
              MO Center=  4.7D+00,  3.5D-01, -3.9D-01, r^2= 1.4D+01
   Bfn.  Coefficient  Atom+Function         Bfn.  Coefficient  Atom+Function  
  ----- ------------  ---------------      ----- ------------  ---------------
   380      0.190473  13 O  pz              411      0.182601  14 O  pz        
   383      0.147214  13 O  pz              414      0.132263  14 O  pz        
   440      0.130048  15 C  px              442      0.119981  15 C  pz        
   473     -0.112776  17 H  s               376     -0.106210  13 O  s         
   485      0.101960  19 H  s               568     -0.100169  28 C  px        
 
 Vector   46  Occ=2.000000D+00  E=-3.577173D-01
              MO Center=  2.3D+00, -8.1D-02, -7.3D-01, r^2= 1.4D+01
   Bfn.  Coefficient  Atom+Function         Bfn.  Coefficient  Atom+Function  
  ----- ------------  ---------------      ----- ------------  ---------------
   285      0.142926  10 C  px              568      0.135025  28 C  px        
   519     -0.129115  24 C  px              441     -0.120734  15 C  py        
   161      0.116848   6 C  px              130     -0.111961   5 C  px        
    99      0.103011   4 C  px              607     -0.102914  31 H  s         
   473     -0.094955  17 H  s               571      0.088891  28 C  px        
 
 Vector   47  Occ=2.000000D+00  E=-3.491448D-01
              MO Center=  1.7D+00, -8.1D-02, -5.7D-01, r^2= 8.9D+00
   Bfn.  Coefficient  Atom+Function         Bfn.  Coefficient  Atom+Function  
  ----- ------------  ---------------      ----- ------------  ---------------
   256      0.130289   9 C  pz              101      0.128982   4 C  pz        
    39      0.117189   2 C  pz              104      0.105353   4 C  pz        
   259      0.105806   9 C  pz              521      0.098796  24 C  pz        
    70      0.098101   3 C  pz               42      0.094380   2 C  pz        
   570     -0.094162  28 C  pz              287      0.081875  10 C  pz        
 
 Vector   48  Occ=2.000000D+00  E=-3.451722D-01
              MO Center=  1.9D+00, -7.3D-02, -7.9D-01, r^2= 1.2D+01
   Bfn.  Coefficient  Atom+Function         Bfn.  Coefficient  Atom+Function  
  ----- ------------  ---------------      ----- ------------  ---------------
    38      0.129026   2 C  py              440      0.126225  15 C  px        
   162     -0.114002   6 C  py              546      0.113968  25 H  s         
   286     -0.111771  10 C  py               69     -0.102127   3 C  py        
   224     -0.100663   8 C  py              503     -0.097782  22 H  s         
   193      0.093909   7 C  py              485      0.092907  19 H  s         
 
 Vector   49  Occ=2.000000D+00  E=-3.349029D-01
              MO Center=  4.6D+00,  6.6D-01, -6.4D-01, r^2= 1.1D+01
   Bfn.  Coefficient  Atom+Function         Bfn.  Coefficient  Atom+Function  
  ----- ------------  ---------------      ----- ------------  ---------------
   442      0.199381  15 C  pz              318     -0.155606  11 C  pz        
   349      0.137058  12 C  pz              445      0.132941  15 C  pz        
   473     -0.128473  17 H  s               378     -0.126223  13 O  px        
   410     -0.122592  14 O  py              321     -0.115780  11 C  pz        
   409     -0.107906  14 O  px              381     -0.101074  13 O  px        
 
 Vector   50  Occ=2.000000D+00  E=-3.332010D-01
              MO Center=  3.9D+00,  6.1D-01, -7.7D-01, r^2= 1.1D+01
   Bfn.  Coefficient  Atom+Function         Bfn.  Coefficient  Atom+Function  
  ----- ------------  ---------------      ----- ------------  ---------------
    99     -0.164657   4 C  px              440     -0.155262  15 C  px        
    68      0.153758   3 C  px              485     -0.133507  19 H  s         
   349     -0.109686  12 C  pz              102     -0.105964   4 C  px        
   223     -0.104533   8 C  px              254      0.103749   9 C  px        
   162     -0.102514   6 C  py              380      0.102333  13 O  pz        
 
 Vector   51  Occ=2.000000D+00  E=-3.157328D-01
              MO Center=  4.4D+00,  8.7D-01, -1.1D+00, r^2= 1.1D+01
   Bfn.  Coefficient  Atom+Function         Bfn.  Coefficient  Atom+Function  
  ----- ------------  ---------------      ----- ------------  ---------------
   317      0.209532  11 C  py              441     -0.203772  15 C  py        
   467      0.176452  16 H  s               479      0.167401  18 H  s         
   320      0.139211  11 C  py              444     -0.131760  15 C  py        
   466      0.121295  16 H  s               478      0.115305  18 H  s         
   100     -0.103267   4 C  py              161     -0.093228   6 C  px        
 
 Vector   52  Occ=2.000000D+00  E=-3.096282D-01
              MO Center=  6.9D-01, -2.0D-01, -5.3D-01, r^2= 1.1D+01
   Bfn.  Coefficient  Atom+Function         Bfn.  Coefficient  Atom+Function  
  ----- ------------  ---------------      ----- ------------  ---------------
     8      0.195320   1 O  pz               39      0.178501   2 C  pz        
    11      0.157417   1 O  pz               42      0.141948   2 C  pz        
   570     -0.135181  28 C  pz              163     -0.112401   6 C  pz        
   225     -0.112195   8 C  pz               14      0.108356   1 O  pz        
   601      0.105326  30 H  s               132     -0.104310   5 C  pz        
 
 Vector   53  Occ=2.000000D+00  E=-3.002406D-01
              MO Center=  3.2D+00,  4.8D-01, -7.3D-01, r^2= 1.1D+01
   Bfn.  Coefficient  Atom+Function         Bfn.  Coefficient  Atom+Function  
  ----- ------------  ---------------      ----- ------------  ---------------
   192      0.145842   7 C  px              316     -0.143192  11 C  px        
   223     -0.119108   8 C  px              224     -0.117222   8 C  py        
   193      0.109635   7 C  py              467     -0.107963  16 H  s         
     6      0.107032   1 O  px              254      0.107258   9 C  px        
   195      0.106544   7 C  px              519     -0.104136  24 C  px        
 
 Vector   54  Occ=2.000000D+00  E=-2.955221D-01
              MO Center=  1.8D+00,  2.7D-01, -5.5D-01, r^2= 1.3D+01
   Bfn.  Coefficient  Atom+Function         Bfn.  Coefficient  Atom+Function  
  ----- ------------  ---------------      ----- ------------  ---------------
     7      0.181819   1 O  py               10      0.145595   1 O  py        
    98      0.132201   4 C  s               284      0.128179  10 C  s         
   161     -0.119323   6 C  px              192      0.111788   7 C  px        
   316     -0.111817  11 C  px              193     -0.107010   7 C  py        
   222     -0.106701   8 C  s                 6     -0.105938   1 O  px        
 
 Vector   55  Occ=2.000000D+00  E=-2.818828D-01
              MO Center=  6.2D-01, -3.2D-01, -4.8D-01, r^2= 9.9D+00
   Bfn.  Coefficient  Atom+Function         Bfn.  Coefficient  Atom+Function  
  ----- ------------  ---------------      ----- ------------  ---------------
     7      0.185734   1 O  py               10      0.148958   1 O  py        
   255      0.142276   9 C  py              100     -0.139241   4 C  py        
    38     -0.135484   2 C  py              286      0.129566  10 C  py        
     6     -0.121050   1 O  px              520     -0.118916  24 C  py        
   292      0.115557  10 C  py              284      0.111262  10 C  s         
 
 Vector   56  Occ=2.000000D+00  E=-2.768542D-01
              MO Center=  6.1D+00,  5.0D-01,  6.9D-01, r^2= 4.7D+00
   Bfn.  Coefficient  Atom+Function         Bfn.  Coefficient  Atom+Function  
  ----- ------------  ---------------      ----- ------------  ---------------
   378     -0.296683  13 O  px              409      0.287579  14 O  px        
   222      0.282859   8 C  s               381     -0.237816  13 O  px        
   412      0.228246  14 O  px              160     -0.215622   6 C  s         
   384     -0.196423  13 O  px              415      0.160834  14 O  px        
   199      0.153095   7 C  py              411     -0.132217  14 O  pz        
 
 Vector   57  Occ=2.000000D+00  E=-2.674190D-01
              MO Center=  1.3D+00, -2.2D-01, -6.0D-01, r^2= 8.2D+00
   Bfn.  Coefficient  Atom+Function         Bfn.  Coefficient  Atom+Function  
  ----- ------------  ---------------      ----- ------------  ---------------
   521     -0.205796  24 C  pz                8      0.196850   1 O  pz        
   524     -0.168950  24 C  pz              163      0.162523   6 C  pz        
    11      0.159096   1 O  pz              287     -0.150027  10 C  pz        
   132      0.134165   5 C  pz              166      0.133763   6 C  pz        
   256     -0.126277   9 C  pz              290     -0.124437  10 C  pz        
 
 Vector   58  Occ=2.000000D+00  E=-2.476166D-01
              MO Center=  2.5D+00,  5.9D-01, -3.5D-01, r^2= 8.8D+00
   Bfn.  Coefficient  Atom+Function         Bfn.  Coefficient  Atom+Function  
  ----- ------------  ---------------      ----- ------------  ---------------
   101      0.189718   4 C  pz              225     -0.169430   8 C  pz        
   194     -0.161656   7 C  pz              104      0.157003   4 C  pz        
    70      0.153339   3 C  pz              410      0.143640  14 O  py        
   228     -0.138131   8 C  pz              197     -0.135023   7 C  pz        
     8     -0.131453   1 O  pz              132      0.129025   5 C  pz        
 
 Vector   59  Occ=2.000000D+00  E=-2.279691D-01
              MO Center=  5.4D+00,  9.5D-01,  6.8D-01, r^2= 8.6D+00
   Bfn.  Coefficient  Atom+Function         Bfn.  Coefficient  Atom+Function  
  ----- ------------  ---------------      ----- ------------  ---------------
   410      0.310249  14 O  py              413      0.246065  14 O  py        
   315     -0.236517  11 C  s               411     -0.188676  14 O  pz        
   416      0.189302  14 O  py              379      0.151817  13 O  py        
   414     -0.148408  14 O  pz              409     -0.131515  14 O  px        
   382      0.126790  13 O  py              318     -0.122184  11 C  pz        
 
 Vector   60  Occ=2.000000D+00  E=-2.096187D-01
              MO Center=  1.6D+00,  2.2D-02, -6.0D-01, r^2= 6.7D+00
   Bfn.  Coefficient  Atom+Function         Bfn.  Coefficient  Atom+Function  
  ----- ------------  ---------------      ----- ------------  ---------------
   287      0.224471  10 C  pz              163      0.201734   6 C  pz        
   290      0.185682  10 C  pz              256     -0.172835   9 C  pz        
   166      0.167125   6 C  pz              293      0.157752  10 C  pz        
   259     -0.143789   9 C  pz                8     -0.133618   1 O  pz        
   169      0.134074   6 C  pz              101     -0.127129   4 C  pz        
 
 Vector   61  Occ=2.000000D+00  E=-1.797309D-01
              MO Center=  1.2D+00,  1.9D-01, -5.4D-01, r^2= 7.5D+00
   Bfn.  Coefficient  Atom+Function         Bfn.  Coefficient  Atom+Function  
  ----- ------------  ---------------      ----- ------------  ---------------
    70     -0.207588   3 C  pz                8      0.199066   1 O  pz        
    73     -0.174555   3 C  pz              132      0.163342   5 C  pz        
    11      0.160716   1 O  pz              194     -0.158973   7 C  pz        
    39     -0.154624   2 C  pz              521      0.150507  24 C  pz        
    14      0.139045   1 O  pz               76     -0.139642   3 C  pz        
 
 Vector   62  Occ=0.000000D+00  E=-7.069250D-02
              MO Center=  1.9D+00,  1.2D-01, -6.1D-01, r^2= 6.8D+00
   Bfn.  Coefficient  Atom+Function         Bfn.  Coefficient  Atom+Function  
  ----- ------------  ---------------      ----- ------------  ---------------
   527      0.264121  24 C  pz              138     -0.230634   5 C  pz        
   231     -0.221223   8 C  pz              293     -0.219389  10 C  pz        
   439      0.212463  15 C  s                76      0.208899   3 C  pz        
   521      0.205082  24 C  pz              225     -0.201578   8 C  pz        
   132     -0.184249   5 C  pz              169      0.181909   6 C  pz        
 
 Vector   63  Occ=0.000000D+00  E=-4.564580D-02
              MO Center=  3.9D+00,  6.9D-01, -1.2D-01, r^2= 9.9D+00
   Bfn.  Coefficient  Atom+Function         Bfn.  Coefficient  Atom+Function  
  ----- ------------  ---------------      ----- ------------  ---------------
   222     -0.371498   8 C  s               160      0.344458   6 C  s         
   169     -0.290285   6 C  pz              439      0.289899  15 C  s         
   199     -0.274344   7 C  py              315     -0.242599  11 C  s         
   350     -0.241548  12 C  px              200      0.230677   7 C  pz        
   347     -0.221685  12 C  px              129     -0.209383   5 C  s         
 
 Vector   64  Occ=0.000000D+00  E=-2.304493D-02
              MO Center=  4.0D+00,  5.2D-01,  1.7D-02, r^2= 1.0D+01
   Bfn.  Coefficient  Atom+Function         Bfn.  Coefficient  Atom+Function  
  ----- ------------  ---------------      ----- ------------  ---------------
   222     -0.373159   8 C  s               160      0.344012   6 C  s         
   350     -0.296157  12 C  px              347     -0.292347  12 C  px        
   200     -0.259628   7 C  pz              199     -0.253576   7 C  py        
    45      0.231998   2 C  pz              315     -0.233077  11 C  s         
   129     -0.231197   5 C  s               262      0.223007   9 C  pz        
 
 Vector   65  Occ=0.000000D+00  E=-1.329632D-02
              MO Center=  1.9D+00,  1.8D-01, -5.5D-01, r^2= 6.5D+00
   Bfn.  Coefficient  Atom+Function         Bfn.  Coefficient  Atom+Function  
  ----- ------------  ---------------      ----- ------------  ---------------
   315      0.534232  11 C  s               527     -0.407869  24 C  pz        
   138     -0.390640   5 C  pz               76     -0.385198   3 C  pz        
   231     -0.381345   8 C  pz              262      0.340656   9 C  pz        
   346     -0.330531  12 C  s               107      0.303545   4 C  pz        
   492     -0.258611  20 H  s               169      0.194038   6 C  pz        
 
 Vector   66  Occ=0.000000D+00  E= 4.565258D-03
              MO Center=  6.5D+00, -2.4D-01,  6.3D-01, r^2= 8.0D+00
   Bfn.  Coefficient  Atom+Function         Bfn.  Coefficient  Atom+Function  
  ----- ------------  ---------------      ----- ------------  ---------------
   315      3.090155  11 C  s               492     -1.300150  20 H  s         
   346     -1.284446  12 C  s               439      1.280654  15 C  s         
   198     -1.158852   7 C  px              468     -0.799072  16 H  s         
    98      0.732176   4 C  s               324      0.732673  11 C  pz        
   105      0.687644   4 C  px              480     -0.600854  18 H  s         
 
 Vector   67  Occ=0.000000D+00  E= 1.684150D-02
              MO Center= -1.7D+00, -2.8D+00, -7.1D-01, r^2= 7.3D+00
   Bfn.  Coefficient  Atom+Function         Bfn.  Coefficient  Atom+Function  
  ----- ------------  ---------------      ----- ------------  ---------------
   567      3.797042  28 C  s               547     -1.742655  25 H  s         
   596     -1.550800  29 H  s               602     -1.557834  30 H  s         
   260     -1.534083   9 C  px               43      1.471284   2 C  px        
   292     -1.250301  10 C  py              106      1.082688   4 C  py        
   608     -0.920915  31 H  s               553     -0.814325  26 H  s         
 
 Vector   68  Occ=0.000000D+00  E= 3.239439D-02
              MO Center=  3.6D+00,  8.3D-01, -6.2D-01, r^2= 2.2D+01
   Bfn.  Coefficient  Atom+Function         Bfn.  Coefficient  Atom+Function  
  ----- ------------  ---------------      ----- ------------  ---------------
   439      2.367489  15 C  s               315      1.621090  11 C  s         
   198     -1.253428   7 C  px              468     -1.231649  16 H  s         
   504     -1.111786  22 H  s               498     -1.030249  21 H  s         
   284      1.020325  10 C  s                98      0.985499   4 C  s         
   474     -0.860201  17 H  s               105      0.837085   4 C  px        
 
 Vector   69  Occ=0.000000D+00  E= 3.719033D-02
              MO Center=  1.0D+00, -7.9D-01, -8.2D-01, r^2= 2.2D+01
   Bfn.  Coefficient  Atom+Function         Bfn.  Coefficient  Atom+Function  
  ----- ------------  ---------------      ----- ------------  ---------------
   284      1.622773  10 C  s               439     -1.541403  15 C  s         
   553     -1.241697  26 H  s               315     -1.205254  11 C  s         
   567     -1.148966  28 C  s               468      1.043108  16 H  s         
     5     -0.815935   1 O  s               547     -0.801450  25 H  s         
   474      0.723354  17 H  s               602      0.726963  30 H  s         
 
 Vector   70  Occ=0.000000D+00  E= 4.164247D-02
              MO Center=  3.4D+00,  7.4D-01, -1.0D+00, r^2= 1.7D+01
   Bfn.  Coefficient  Atom+Function         Bfn.  Coefficient  Atom+Function  
  ----- ------------  ---------------      ----- ------------  ---------------
   439      3.189940  15 C  s               315     -1.326560  11 C  s         
   480     -1.309261  18 H  s               498      1.290847  21 H  s         
   106     -1.060326   4 C  py              504      1.044290  22 H  s         
   229      1.022299   8 C  px              260      0.929341   9 C  px        
   486     -0.919282  19 H  s               261     -0.899813   9 C  py        
 
 Vector   71  Occ=0.000000D+00  E= 5.143258D-02
              MO Center=  6.0D-01, -4.4D-01, -7.0D-01, r^2= 1.9D+01
   Bfn.  Coefficient  Atom+Function         Bfn.  Coefficient  Atom+Function  
  ----- ------------  ---------------      ----- ------------  ---------------
   553      1.494819  26 H  s               526      1.287393  24 C  py        
   498      1.238472  21 H  s               559      1.220004  27 H  s         
   510      1.105970  23 H  s                75     -1.049718   3 C  py        
     5     -0.978443   1 O  s               439      0.934547  15 C  s         
   198      0.914913   7 C  px              315     -0.839741  11 C  s         
 
 Vector   72  Occ=0.000000D+00  E= 5.554522D-02
              MO Center=  2.1D+00,  2.4D-01, -6.6D-01, r^2= 1.1D+01
   Bfn.  Coefficient  Atom+Function         Bfn.  Coefficient  Atom+Function  
  ----- ------------  ---------------      ----- ------------  ---------------
   315      1.447270  11 C  s               439     -1.292570  15 C  s         
   486      0.692508  19 H  s               198     -0.519228   7 C  px        
   169      0.507456   6 C  pz              293      0.488093  10 C  pz        
    45     -0.463081   2 C  pz              200     -0.459476   7 C  pz        
   553     -0.386210  26 H  s                76      0.343071   3 C  pz        
 
 Vector   73  Occ=0.000000D+00  E= 6.234295D-02
              MO Center=  2.8D+00,  1.0D+00, -8.4D-01, r^2= 2.0D+01
   Bfn.  Coefficient  Atom+Function         Bfn.  Coefficient  Atom+Function  
  ----- ------------  ---------------      ----- ------------  ---------------
   315      3.681375  11 C  s               439     -2.940152  15 C  s         
   253     -2.003083   9 C  s               468     -1.545804  16 H  s         
   168      1.462505   6 C  py              504     -1.404282  22 H  s         
   559      1.356341  27 H  s               498      1.330943  21 H  s         
   137     -1.280343   5 C  py              480      1.124077  18 H  s         
 
 Vector   74  Occ=0.000000D+00  E= 6.818561D-02
              MO Center=  1.7D+00,  1.3D-01, -7.6D-01, r^2= 2.0D+01
   Bfn.  Coefficient  Atom+Function         Bfn.  Coefficient  Atom+Function  
  ----- ------------  ---------------      ----- ------------  ---------------
   260      1.928070   9 C  px              160      1.813037   6 C  s         
   284     -1.808865  10 C  s               559      1.600922  27 H  s         
   105      1.516796   4 C  px              525     -1.439029  24 C  px        
   504     -1.350703  22 H  s               547      1.345548  25 H  s         
   229      1.326727   8 C  px              510     -1.304883  23 H  s         
 
 Vector   75  Occ=0.000000D+00  E= 7.501576D-02
              MO Center= -2.9D+00, -1.4D+00, -5.0D-01, r^2= 1.1D+01
   Bfn.  Coefficient  Atom+Function         Bfn.  Coefficient  Atom+Function  
  ----- ------------  ---------------      ----- ------------  ---------------
   608      2.777881  31 H  s               574      1.613542  28 C  px        
   602     -0.953924  30 H  s               596     -0.913592  29 H  s         
    67     -0.759405   3 C  s               498     -0.737247  21 H  s         
   518     -0.550901  24 C  s               559      0.551121  27 H  s         
   526      0.544770  24 C  py              291      0.532117  10 C  px        
 
 Vector   76  Occ=0.000000D+00  E= 8.354490D-02
              MO Center=  5.8D+00,  9.6D-01, -1.5D+00, r^2= 1.1D+01
   Bfn.  Coefficient  Atom+Function         Bfn.  Coefficient  Atom+Function  
  ----- ------------  ---------------      ----- ------------  ---------------
   315      4.628153  11 C  s               346     -2.256733  12 C  s         
   439     -2.033438  15 C  s               474      1.925949  17 H  s         
   446      1.443468  15 C  px              191     -1.359707   7 C  s         
   486     -1.322576  19 H  s               198     -1.311177   7 C  px        
   222     -1.115507   8 C  s               408      0.960452  14 O  s         
 
 Vector   77  Occ=0.000000D+00  E= 8.583575D-02
              MO Center= -1.9D+00, -2.6D+00, -6.9D-01, r^2= 6.5D+00
   Bfn.  Coefficient  Atom+Function         Bfn.  Coefficient  Atom+Function  
  ----- ------------  ---------------      ----- ------------  ---------------
   596      2.130010  29 H  s               602     -2.083402  30 H  s         
   576     -1.352353  28 C  pz              315     -0.507597  11 C  s         
   486     -0.298414  19 H  s               474      0.294184  17 H  s         
   570     -0.281095  28 C  pz              198      0.256494   7 C  px        
    14      0.227646   1 O  pz              439      0.212477  15 C  s         
 
 Vector   78  Occ=0.000000D+00  E= 8.744468D-02
              MO Center=  4.4D+00,  7.2D-01, -1.3D+00, r^2= 1.3D+01
   Bfn.  Coefficient  Atom+Function         Bfn.  Coefficient  Atom+Function  
  ----- ------------  ---------------      ----- ------------  ---------------
   315      5.110028  11 C  s               198     -2.218209   7 C  px        
   439     -1.780550  15 C  s               346     -1.724687  12 C  s         
   323     -1.471426  11 C  py              105      1.458467   4 C  px        
   474     -1.349755  17 H  s               486      1.291163  19 H  s         
   448     -1.201577  15 C  pz              261     -1.072939   9 C  py        
 
 Vector   79  Occ=0.000000D+00  E= 9.441797D-02
              MO Center=  2.0D+00,  6.7D-01, -7.7D-01, r^2= 2.1D+01
   Bfn.  Coefficient  Atom+Function         Bfn.  Coefficient  Atom+Function  
  ----- ------------  ---------------      ----- ------------  ---------------
   315      3.237736  11 C  s               253      2.741523   9 C  s         
    98      2.507078   4 C  s                67     -2.266564   3 C  s         
   518     -2.094490  24 C  s               129     -1.980405   5 C  s         
   559     -1.968107  27 H  s                74     -1.811568   3 C  px        
   468     -1.812947  16 H  s               547      1.701022  25 H  s         
 
 Vector   80  Occ=0.000000D+00  E= 1.061628D-01
              MO Center=  3.5D+00, -1.1D+00, -1.3D+00, r^2= 1.9D+01
   Bfn.  Coefficient  Atom+Function         Bfn.  Coefficient  Atom+Function  
  ----- ------------  ---------------      ----- ------------  ---------------
   315      3.863873  11 C  s               547     -2.185279  25 H  s         
   526      2.078034  24 C  py              553      1.992272  26 H  s         
    67      1.918455   3 C  s               292     -1.895077  10 C  py        
   439     -1.588588  15 C  s               346     -1.329414  12 C  s         
   480     -1.334860  18 H  s               486      1.295513  19 H  s         
 
 Vector   81  Occ=0.000000D+00  E= 1.175918D-01
              MO Center=  2.2D+00,  1.1D+00, -5.0D-01, r^2= 1.5D+01
   Bfn.  Coefficient  Atom+Function         Bfn.  Coefficient  Atom+Function  
  ----- ------------  ---------------      ----- ------------  ---------------
   199      2.485426   7 C  py              315     -2.366797  11 C  s         
    67      1.853864   3 C  s               222      1.792241   8 C  s         
   498      1.746098  21 H  s               137     -1.714370   5 C  py        
   168      1.714254   6 C  py              230      1.712861   8 C  py        
   504     -1.605879  22 H  s               261     -1.572971   9 C  py        
 
 Vector   82  Occ=0.000000D+00  E= 1.201908D-01
[...]
   Bfn.  Coefficient  Atom+Function         Bfn.  Coefficient  Atom+Function  
  ----- ------------  ---------------      ----- ------------  ---------------
   258      1.909064   9 C  py              260      1.815148   9 C  px        
   315      1.777098  11 C  s               106     -1.752863   4 C  py        
   113      1.719036   4 C  d -2            517      1.703389  24 C  s         
   103      1.651666   4 C  py              261     -1.617683   9 C  py        
   268     -1.584958   9 C  d -2            190      1.477094   7 C  s         
 
 Vector  604  Occ=0.000000D+00  E= 2.277160D+01
              MO Center=  1.8D+00,  2.5D-01, -4.8D-01, r^2= 7.4D+00
   Bfn.  Coefficient  Atom+Function         Bfn.  Coefficient  Atom+Function  
  ----- ------------  ---------------      ----- ------------  ---------------
   190      2.993470   7 C  s               191     -2.144391   7 C  s         
   314     -1.956717  11 C  s               105     -1.882394   4 C  px        
   159     -1.789998   6 C  s               283     -1.646023  10 C  s         
   189     -1.621693   7 C  s                35      1.612889   2 C  s         
   128      1.449641   5 C  s               222      1.384020   8 C  s         
 
 Vector  605  Occ=0.000000D+00  E= 2.286602D+01
              MO Center=  5.6D+00,  6.9D-01,  2.0D-01, r^2= 3.0D+00
   Bfn.  Coefficient  Atom+Function         Bfn.  Coefficient  Atom+Function  
  ----- ------------  ---------------      ----- ------------  ---------------
   315      1.920947  11 C  s               344      1.845288  12 C  s         
   352      1.660564  12 C  pz              343     -1.649150  12 C  s         
   407     -1.529488  14 O  s               191     -1.282206   7 C  s         
   342      1.234121  12 C  s               226      1.041137   8 C  px        
   319      1.037537  11 C  px              414      0.881651  14 O  pz        
 
 Vector  606  Occ=0.000000D+00  E= 2.326153D+01
              MO Center=  1.8D+00,  2.8D-01, -6.0D-01, r^2= 2.1D+00
   Bfn.  Coefficient  Atom+Function         Bfn.  Coefficient  Atom+Function  
  ----- ------------  ---------------      ----- ------------  ---------------
   252     -7.280003   9 C  s                97      7.208105   4 C  s         
   221      4.152752   8 C  s                66     -3.736827   3 C  s         
   128     -3.375354   5 C  s               517      3.073785  24 C  s         
   190     -2.978507   7 C  s                96     -2.668303   4 C  s         
   251      2.637986   9 C  s               226     -2.269616   8 C  px        
 
 Vector  607  Occ=0.000000D+00  E= 4.335880D+01
              MO Center=  6.5D+00, -3.4D-01,  5.5D-01, r^2= 5.9D-01
   Bfn.  Coefficient  Atom+Function         Bfn.  Coefficient  Atom+Function  
  ----- ------------  ---------------      ----- ------------  ---------------
   376      2.445579  13 O  s               315      1.885749  11 C  s         
   375     -1.771690  13 O  s               374      1.642122  13 O  s         
   373     -1.324508  13 O  s               377     -1.140847  13 O  s         
   222     -1.115523   8 C  s               314     -1.029179  11 C  s         
   191     -0.996956   7 C  s               198     -0.965801   7 C  px        
 
 Vector  608  Occ=0.000000D+00  E= 4.345009D+01
              MO Center=  6.6D+00,  1.3D+00,  1.3D+00, r^2= 5.9D-01
   Bfn.  Coefficient  Atom+Function         Bfn.  Coefficient  Atom+Function  
  ----- ------------  ---------------      ----- ------------  ---------------
   407      2.678879  14 O  s               406     -1.778058  14 O  s         
   405      1.643654  14 O  s               404     -1.324797  14 O  s         
   408     -1.261509  14 O  s               376     -1.018030  13 O  s         
   191     -0.921856   7 C  s               315      0.922522  11 C  s         
   222      0.814881   8 C  s               352     -0.815614  12 C  pz        
 
 Vector  609  Occ=0.000000D+00  E= 4.376519D+01
              MO Center= -2.0D+00, -7.2D-01, -4.5D-01, r^2= 1.5D-01
   Bfn.  Coefficient  Atom+Function         Bfn.  Coefficient  Atom+Function  
  ----- ------------  ---------------      ----- ------------  ---------------
     4      3.186290   1 O  s                 3     -2.084066   1 O  s         
     2      1.752733   1 O  s                 1     -1.399104   1 O  s         
    43     -1.145278   2 C  px               71      1.112347   3 C  px        
    40      1.047403   2 C  px              102      1.050019   4 C  px        
    97     -0.975446   4 C  s               284      0.882949  10 C  s         
 

 center of mass
 --------------
 x =   4.96602778 y =   0.34320332 z =  -0.79188835

 moments of inertia (a.u.)
 ------------------
        1937.981479977853       -1785.785431754414        -505.655788642825
       -1785.785431754414        8335.740535109950        -135.418198446256
        -505.655788642825        -135.418198446256        9296.347737809243
 
     Multipole analysis of the density
     ---------------------------------
 
     L   x y z        total         alpha         beta         nuclear
     -   - - -        -----         -----         ----         -------
     0   0 0 0     -0.000000    -61.000000    -61.000000    122.000000
 
     1   1 0 0     -0.555760   -301.756865   -301.756865    602.957970
     1   0 1 0     -1.014055    -19.356362    -19.356362     37.698669
     1   0 0 1     -0.541900     50.889620     50.889620   -102.321139
 
     2   2 0 0    -74.172349  -3657.794617  -3657.794617   7241.416885
     2   1 1 0     -3.755116   -587.761438   -587.761438   1171.767759
     2   1 0 1     -5.625014    135.166178    135.166178   -275.957371
     2   0 2 0    -68.713175   -458.603968   -458.603968    848.494762
     2   0 1 1     -2.820374    -18.847343    -18.847343     34.874311
     2   0 0 2    -77.779943   -219.603670   -219.603670    361.427397
 
 *** CALLING NEW AORESP DRIVER FOR CLOSED AND OPEN SHELLS ***
 Entering AOResponse driver routine


--------------------------------------------------------------------------------

          ****************
          *** RESPONSE ***
          ****************

 Response module for NWChem and dynamic CPKS solver
 developed by J. Autschbach and coworkers, SUNY Buffalo
 The methodology used in this program is described in 
 ChemPhysChem 12 (2011), 3224-3235 (main reference)
 J. Chem. Phys. 123 (2005), 114103
 J. Chem. Phys. 122 (2005), 224115
 J. Chem. Phys. 122 (2005), 074105
 Comp. Lett. 3 (2007), 131-150 (contact JA for a copy)
 Please cite this work in publications based on results
 obtained with this code. Thank you!

 For extension of response module to open shell
 calculations please acknowledge:
 F. Aquino, Northwestern University, Schatz Rsrch Group
 The update to the methodology is described in
 J. Phys. Chem. A 118 (2014) 517-525



          -----------------------------------------------
          Solving response equations for perturbing field
          -----------------------------------------------

 number of frequencies:     1
 frequency in a.u.:  0.1280230E+00
 Perturbing field: electric
 Using GIAO formalism for OptRot
 Adding quadrupole terms to OptRot
 to create an origin in dependent tensor.
 Using El. Dipole Length Gauge
 
 Applying DAMPING constant of  0.003700 a.u.
 
 Setting up CPKS
 with frequency omega =      0.12802300 a.u.
 and a damping of            0.00370000 a.u.

 
                            NWChem Dynamic CPHF Module
                            --------------------------
 
 
    scftype = RHF 
    nclosed =   61
      nopen =    0
  variables =   133712
  num. vecs =        3
  tolerance =   1.0D-07
  max. iter =  100

 Grid integrated density:     122.000001880862
 Requested integration accuracy:   0.10E-07
 SCF residual:   1.763508423333951E-004


Iterative solution of linear equations
  No. of variables    66856
  No. of equations        3
  Maximum subspace       99
       Convergence  1.0D-07
        Start time   2287.3


   iter   nsub   residual    time 
   ----  ------  --------  --------- 
 dft_CPHF2_read: failed to open./naproxen_355.9_001.inp.aoresp_fiao_f1
     1      3    9.14D+01    2898.2
     2      6    2.91D+01    3509.8
     3      9    7.27D+00    4121.5
     4     12    2.11D+00    4732.7
     5     15    4.47D-01    5344.0
     6     18    2.68D-01    5955.3
     7     21    1.36D-01    6566.3
     8     24    1.65D-02    7178.1
     9     27    2.76D-03    7789.7
    10     30    9.90D-04    8401.2
    11     33    6.33D-04    9012.8
    12     36    7.14D-05    9629.3
    13     39    7.28D-06   10247.5
    14     42    2.57D-06   10865.9
    15     45    7.41D-07   11483.3
    16     48    2.75D-07   12100.2
    17     51    2.29D-07   12718.1
    18     54    1.05D-07   13336.1
    19     57    9.50D-08   13954.4

 Calculating some arrays needed for GIAO optical rotation

    0 giaofock schwarz done =      51.10%
    0 giaofock schwarz done =      51.10%
 Grid integrated density:     122.000001881097
 Requested integration accuracy:   0.10E-07
 aor_r1_tensor_giao: roadata output requested
 dip-quad polarizability Re:

              1        2        3        4        5        6      
    1 3331.4314 236.7013-346.4908 -44.6830 -91.0045 140.6208
    2  426.8997 899.3621 -52.6307 132.9061-211.2160   4.0245
    3  117.4043  34.3894 735.7157  16.3918  33.8223-269.8713
 traceless dip-quad polarizability:

              1        2        3      
    1 3283.4625 355.0520-519.7362
    2  355.0520*********-136.5068
    3 -519.7362-136.5068*********

              1        2        3      
    1  358.43451349.0432 -78.9461
    2 1349.0432 -82.5560-316.8240
    3  -78.9461-316.8240-275.8784

              1        2        3      
    1  244.1440  51.58411103.5735
    2   51.5841  92.6253  50.7334
    3 1103.5735  50.7334-336.7693

 roa begin

 alpha real:
 XX       0.4090862171180E+03
 XY       0.7696129313169E+02
 XZ       0.3352076054066E+01
 YX       0.7696129373111E+02
 YY       0.2179907186427E+03
 YZ       0.8281792981317E+01
 ZX       0.3352075886250E+01
 ZY       0.8281792856193E+01
 ZZ       0.1251111654325E+03

 alpha im:
 XX       0.4328831159720E+02
 XY       0.5873502149002E+02
 XZ       0.7761414469784E+01
 YX       0.5873501933744E+02
 YY       0.1398273578822E+03
 YZ       0.1806029863718E+02
 ZX       0.7761414275511E+01
 ZY       0.1806029869363E+02
 ZZ       0.2911523567438E+01

 beta real:
 XX      -0.5213979892828E+01
 XY       0.3920070216742E+02
 XZ       0.1310855387545E+02
 YX      -0.1431420660830E+02
 YY       0.7698243618493E+01
 YZ      -0.5257975723986E+02
 ZX      -0.3546632103516E+01
 ZY       0.4470542971045E+02
 ZZ      -0.6374598173303E+00

 G-prime = -omega beta(real):
 XX      -0.5213979892828E+01
 XY       0.3920070216742E+02
 XZ       0.1310855387545E+02
 YX      -0.1431420660830E+02
 YY       0.7698243618493E+01
 YZ      -0.5257975723986E+02
 ZX      -0.3546632103516E+01
 ZY       0.4470542971045E+02
 ZZ      -0.6374598173303E+00

 beta im:
 XX      -0.4892099631026E+01
 XY       0.9241357258285E+01
 XZ      -0.1222231076829E+02
 YX      -0.1210203210584E+02
 YY       0.1520550333360E+02
 YZ      -0.3855082996013E+02
 ZX      -0.1590856985237E+01
 ZY       0.2616810873541E+01
 ZZ      -0.4825475028715E+01

 G-prime = -omega beta(imag):
 XX      -0.4892099631026E+01
 XY       0.9241357258285E+01
 XZ      -0.1222231076829E+02
 YX      -0.1210203210584E+02
 YY       0.1520550333360E+02
 YZ      -0.3855082996013E+02
 ZX      -0.1590856985237E+01
 ZY       0.2616810873541E+01
 ZZ      -0.4825475028715E+01

 dipole-quadrupole real (Cartesian):
 XXX      0.3331431372995E+04
 XXY      0.2367013236380E+03
 XXZ     -0.3464907749778E+03
 XYY     -0.4468300571122E+02
 XYZ     -0.9100450131179E+02
 XZZ      0.1406207969475E+03
 YXX      0.4268997271977E+03
 YXY      0.8993621478393E+03
 YXZ     -0.5263074895950E+02
 YYY      0.1329060589218E+03
 YYZ     -0.2112160067188E+03
 YZZ      0.4024470789331E+01
 ZXX      0.1174043008136E+03
 ZXY      0.3438941439193E+02
 ZXZ      0.7357156972082E+03
 ZYY      0.1639182816002E+02
 ZYZ      0.3382225128922E+02
 ZZZ     -0.2698712830683E+03

 dipole-quadrupole imag (Cartesian):
 XXX      0.3712447831189E+03
 XXY      0.1216625766139E+03
 XXZ     -0.3121265284257E+01
 XYY     -0.1249813409300E+01
 XYZ     -0.6578898386318E+02
 XZZ      0.1694336443455E+02
 YXX      0.4844364578834E+03
 YXY      0.2669141938645E+03
 YXZ      0.1511549220809E+02
 YYY      0.2589192605151E+01
 YYZ     -0.1561261945245E+03
 YZZ      0.1502166187418E+02
 ZXX      0.6689266339850E+02
 ZXY      0.3455263264704E+02
 ZXZ      0.5963969689683E+01
 ZYY      0.3000146226230E+00
 ZYZ     -0.2019983801925E+02
 ZZZ      0.1080182962791E+01

 dipole-quadrupole (traceless):
 XXX      0.3283462477377E+04
 XXY      0.3550519854569E+03
 XXZ     -0.5197361624667E+03
 XYY     -0.1780709090683E+04
 XYZ     -0.1365067519677E+03
 XZZ     -0.1502753386695E+04
 YXX      0.3584344623422E+03
 YXY      0.1349043221759E+04
 YXZ     -0.7894612343925E+02
 YYY     -0.8255604007175E+02
 YYZ     -0.3168240100782E+03
 YZZ     -0.2758784222704E+03
 ZXX      0.2441440282677E+03
 ZXY      0.5158412158790E+02
 ZXZ      0.1103573545812E+04
 ZYY      0.9262531928739E+02
 ZYZ      0.5073337693384E+02
 ZZZ     -0.3367693475551E+03

 roa end


 Electric Dipole Response Matrix (nonzero elements):

              1        2        3      
    1  409.0862  76.9613   3.3521
    2   76.9613 217.9907   8.2818
    3    3.3521   8.2818 125.1112
 
 Imaginary part:

              1        2        3      
    1   43.2883  58.7350   7.7614
    2   58.7350 139.8274  18.0603
    3    7.7614  18.0603   2.9115

 ------------------------------------------
 average:       250.72937 + I      62.00906


 DFT Linear Response polarizability / au 
 Frequency  =       0.1280230 / au
 Wavelength =     355.8997446 / nm
              X              Y              Z
 -----------------------------------------------
 X     409.0862171     76.9612931      3.3520761
 Y      76.9612937    217.9907186      8.2817930
 Z       3.3520759      8.2817929    125.1111654
 -----------------------------------------------
 Eigenvalues =     436.3392492    191.5237671    124.3250849
 Isotropic   =     250.7293671
 Anisotropic =     232.2377530
 -----------------------------------------------
 *************************

 DFT Linear Response IMAG polarizability / au 
 Frequency  =       0.1280230 / au
 Wavelength =     355.8997446 / nm
              X              Y              Z
 -----------------------------------------------
 X      43.2883116     58.7350215      7.7614145
 Y      58.7350193    139.8273579     18.0602986
 Z       7.7614143     18.0602987      2.9115236
 -----------------------------------------------
 Eigenvalues =      15.5653173    169.8937208      0.5681549
 Isotropic   =      62.0090643
 Anisotropic =     132.5560489
 -----------------------------------------------
 *************************

 Magnetic Dipole Response Matrix (nonzero elements):
 Optical rotation tensor Beta
 (Buckingham-Dunn version including dipole-quadrupole terms)

              1        2        3      
    1   -2.7832 -38.1236 -92.3436
    2  -38.1236   2.5652 -56.4840
    3  -92.3436 -56.4840 -14.2076
 
 Imaginary part:

              1        2        3      
    1   38.2127 -72.1851  95.4696
    2   94.5301-118.7717 301.1243
    3   12.4263 -20.4402  37.6923

 ------------------------------------------
 average:        -4.80852 + I     -14.28891

 Principal components and PAS (Real part)
               -134.22612
                 86.03286
                 33.76770
 ------------------------
 average:        -4.80852

              1        2        3      
    1    0.5979   0.6706  -0.4392
    2    0.4426   0.1806   0.8783
    3    0.6683  -0.7195  -0.1888

 Chiral response tensor (Real part):

              1        2        3      
    1   -5.8212  19.0618  46.1718
    2   19.0618  -8.4954  28.2420
    3   46.1718  28.2420  -0.1090
 
 Principal components and PAS (Real part)
                 59.90028
                -50.22921
                -24.09663
 ------------------------
 average:        -4.80852

              1        2        3      
    1    0.5979   0.6706  -0.4392
    2    0.4426   0.1806   0.8783
    3    0.6683  -0.7195  -0.1888
 Exiting AOResponse driver routine

 Task  times  cpu:    13790.7s     wall:    14090.7s
 
 
                                NWChem Input Module
                                -------------------
 
 
 Summary of allocated global arrays
-----------------------------------
  No active global arrays



                         GA Statistics for process    0
                         ------------------------------

       create   destroy   get      put      acc     scatter   gather  read&inc
calls: 9023     9023     2.98e+08 5.02e+07 8.34e+06 8226        0     2969     
number of processes/call 1.00e+00 1.01e+00 1.20e+00 0.00e+00 0.00e+00
bytes total:             4.38e+10 1.90e+09 4.32e+10 0.00e+00 0.00e+00 2.38e+04
bytes remote:            1.66e+10 5.97e+08 1.91e+10 -4.48e+02 0.00e+00 0.00e+00
Max memory consumed for GA by this process: 128676136 bytes
 
MA_summarize_allocated_blocks: starting scan ...
MA_summarize_allocated_blocks: scan completed: 0 heap blocks, 0 stack blocks
MA usage statistics:

	allocation statistics:
					      heap	     stack
					      ----	     -----
	current number of blocks	         0	         0
	maximum number of blocks	        24	        52
	current total bytes		         0	         0
	maximum total bytes		  15665040	 107774616
	maximum total K-bytes		     15666	    107775
	maximum total M-bytes		        16	       108
 
 
                                     CITATION
                                     --------
                Please cite the following reference when publishing
                           results obtained with NWChem:
 
                 M. Valiev, E.J. Bylaska, N. Govind, K. Kowalski,
              T.P. Straatsma, H.J.J. van Dam, D. Wang, J. Nieplocha,
                        E. Apra, T.L. Windus, W.A. de Jong
                 "NWChem: a comprehensive and scalable open-source
                  solution for large scale molecular simulations"
                      Comput. Phys. Commun. 181, 1477 (2010)
                           doi:10.1016/j.cpc.2010.04.018
 
                                      AUTHORS
                                      -------
          E. Apra, E. J. Bylaska, W. A. de Jong, N. Govind, K. Kowalski,
       T. P. Straatsma, M. Valiev, H. J. J. van Dam, D. Wang, T. L. Windus,
        J. Hammond, J. Autschbach, K. Bhaskaran-Nair, J. Brabec, K. Lopata,
    S. A. Fischer, S. Krishnamoorthy, M. Jacquelin, W. Ma, M. Klemm, O. Villa,
      Y. Chen, V. Anisimov, F. Aquino, S. Hirata, M. T. Hackler, V. Konjkov,
            D. Mejia-Rodriguez, T. Risthaus, M. Malagoli, A. Marenich,
   A. Otero-de-la-Roza, J. Mullin, P. Nichols, R. Peverati, J. Pittner, Y. Zhao,
        P.-D. Fan, A. Fonari, M. J. Williamson, R. J. Harrison, J. R. Rehr,
      M. Dupuis, D. Silverstein, D. M. A. Smith, J. Nieplocha, V. Tipparaju,
    M. Krishnan, B. E. Van Kuiken, A. Vazquez-Mayagoitia, L. Jensen, M. Swart,
      Q. Wu, T. Van Voorhis, A. A. Auer, M. Nooijen, L. D. Crosby, E. Brown,
      G. Cisneros, G. I. Fann, H. Fruchtl, J. Garza, K. Hirao, R. A. Kendall,
      J. A. Nichols, K. Tsemekhman, K. Wolinski, J. Anchell, D. E. Bernholdt,
      P. Borowski, T. Clark, D. Clerc, H. Dachsel, M. J. O. Deegan, K. Dyall,
    D. Elwood, E. Glendening, M. Gutowski, A. C. Hess, J. Jaffe, B. G. Johnson,
     J. Ju, R. Kobayashi, R. Kutteh, Z. Lin, R. Littlefield, X. Long, B. Meng,
      T. Nakajima, S. Niu, L. Pollack, M. Rosing, K. Glaesemann, G. Sandrone,
      M. Stave, H. Taylor, G. Thomas, J. H. van Lenthe, A. T. Wong, Z. Zhang.

 Total times  cpu:    15641.4s     wall:    15961.7s
