HOSTNAME=node03
PBS_VERSION=TORQUE-4.2.10
SHELL=/bin/bash
HISTSIZE=1000
PBS_JOBNAME=kr
PBS_ENVIRONMENT=PBS_BATCH
PBS_O_WORKDIR=/home/duignan/utkis/kr
PBS_TASKNUM=1
USER=duignan
PBS_O_HOME=/home/duignan
PBS_GPUFILE=/var/lib/torque/aux//80490.mesogpu
PBS_MOMPORT=15003
PBS_O_QUEUE=default
MAIL=/var/spool/mail/duignan
PBS_O_LOGNAME=duignan
PATH=/home/duignan/codes/nwchem-6.6/bin/LINUX64:/home/duignan/codes/nbo6/bin:/home/duignan/codes/nbo6:/home/duignan/bin:/bin:/usr/bin:/usr/local/sbin:/usr/sbin
PBS_O_LANG=en_US.UTF-8
PBS_JOBCOOKIE=D3F922FA1DA754F51447DAECF46A50C0
PWD=/home/duignan
PBS_NODENUM=0
LANG=C
MODULEPATH=/usr/share/Modules/modulefiles:/etc/modulefiles:/usr/share/modulefiles:/usr/local/share/modulefiles
LOADEDMODULES=
PBS_NUM_NODES=1
PBS_O_SHELL=/bin/bash
PBS_JOBID=80490.meso
HISTCONTROL=ignoredups
ENVIRONMENT=BATCH
SHLVL=2
HOME=/home/duignan
PBS_O_HOST=meso
PBS_VNODENUM=0
LOGNAME=duignan
PBS_QUEUE=default
MODULESHOME=/usr/share/Modules
LESSOPEN=||/usr/bin/lesspipe.sh %s
PBS_MICFILE=/var/lib/torque/aux//80490.mesomic
PBS_O_MAIL=/var/spool/mail/duignan
PBS_NP=16
PBS_NUM_PPN=16
PBS_O_SERVER=meso
PBS_NODEFILE=/var/lib/torque/aux//80490.meso
PBS_O_PATH=/home/duignan/codes/nwchem-6.6/bin/LINUX64:/home/duignan/codes/nbo6/bin:/home/duignan/codes/nbo6:/home/duignan/bin:/usr/local/bin:/usr/bin:/usr/local/sbin:/usr/sbin
BASH_FUNC_module()=() {  eval `/usr/bin/modulecmd bash $*`
}
_=/var/lib/torque/mom_priv/jobs/80490.meso.SC
HOSTTYPE=x86_64-linux
VENDOR=unknown
OSTYPE=linux
MACHTYPE=x86_64
GROUP=Mesa
HOST=node03
ADFHOME=/home/erb/bin/adf/adf2016.102
ADFBIN=/home/erb/bin/adf/adf2016.102/bin
ADFRESOURCES=/home/erb/bin/adf/adf2016.102/atomicdata
SCMLICENSE=/home/erb/bin/adf/adf2016.102/license.txt
SCM_TMPDIR=/scratch/duignan

Create Kr   file=/home/erb/bin/adf/adf2016.102/atomicdata/DZ/Kr
XC
 GGA PBE
End
exactdensity
End Input

 *******************************************************************************
 *                                                                             *
 *  -------------------------------------                                      *
 *   Amsterdam Density Functional  (ADF)         2016                          *
 *  -------------------------------------                                      *
 *                                               r52212 2016-04-25             *
 *                                                                             *
 *                                                                             *
 *                              =================                              *
 *                              |               |                              *
 *                              |     A D F     |                              *
 *                              |               |                              *
 *                              =================                              *
 *                                                                             *
 *                                                                             *
 *   Online information and documentation:  http://www.scm.com                 *
 *   E-mail:  support@scm.com   info@scm.com                                   *
 *                                                                             *
 *   Scientific publications using ADF results must be properly referenced     *
 *   See the User Manuals (or the web site) for recommended citations          *
 *   The terms and conditions of the End User License Agreement apply to       *
 *   the use of ADF, http://www.scm.com/Sales/LicAgreement.html                *
 *                                                                             *
 **********************  x86_64_linux_intel / intelmpi  ************************
 
 Licensed to: Dr. Enrique Batista / Los Alamos National Lab (LANL) / Los Alamos / NM / USA
 SCM User ID: u11537
  
 ADF 2016  RunTime: Feb14-2017 18:20:27  Nodes: 1  Procs: 1

 Temporary files are created in /scratch/duignan/kid_0.WB5Cmb

 Krypton (DZ)



 ===========================
 A T T A C H E D   F I L E S
 ===========================
  
 CREATE - Data File:    /home/erb/bin/adf/adf2016.102/atomicdata/DZ/Kr
                        Krypton (DZ)



 ===============================
 M O D E L   P A R A M E T E R S
 ===============================
  
 DENSITY FUNCTIONAL POTENTIAL (scf)
    LDA:                               PW92                                    == Not Default ==
    Gradient Corrections:              PBEc PBEx                               == Not Default ==

 SPIN  (restricted / unrestr.)
    Molecule:                          Restricted                               

 OTHER ASPECTS
    Relativistic Corrections:          ---                                      

    Nuclear Charge Density Model:      Point Charge Nuclei                                                                                                                                                                                     
    Core Treatment:                    Frozen Orbital(s)                        

    Hyperfine or Zeeman Interaction:   ---                                      



 =====================================
 S Y M M E T R Y ,   E L E C T R O N S
 =====================================
  
 Symmetry: ATOM

 Irreducible Representations, including subspecies
 -------------------------------------------------
 S
 P:x  P:y  P:z
 D:z2  D:x2-y2  D:xy  D:xz  D:yz
 F:z3  F:z  F:xyz  F:z2x  F:z2y  F:x  F:y


 Configuration of Valence Electrons
 ==================================

          Occupation Numbers
          -------------------------------------------------
 S        4*2
 P        3*6
 D        10
 F        0
          -------------------------------------------------

 Total:   36

 Net Charge: 0 (Nuclei minus Electrons)

 Preset values for MO occupations will be applied through SCF cycle no. 1000000
 Thereafter, the program will assign electrons to MOs that are spatially
 similar to the occupied MOs in a "reference" cycle ("KeepOrbitals").
 The reference cycle is always the PREVIOUS cycle: it will evolve with
 the SCF procedure.



 ================================
 (Slater-type)  F U N C T I O N S  ***  (Basis and Fit)  ***
 ================================
  

 Atom Type    1  (Kr)
 ==============

 Valence Basis Sets:  15
 -----------------------
   1 S   43.600000
   1 S   33.950000
   2 S   14.350000
   2 P   19.850000
   2 P   13.500000
   3 S    7.350000
   3 S    5.000000
   3 P    8.150000
   3 P    5.300000
   3 D    9.050000
   3 D    4.450000
   4 S    3.400000
   4 S    2.050000
   4 P    2.900000
   4 P    1.550000


 BAS: List of all Elementary Cartesian Basis Functions
 =====================================================

 The numbering in the list below (to the right of the function characteristics) is referred
 to in print-outs of MO eigenvectors and Mulliken populations in the BAS representation
 (as contrasted to the SFO representation).

 Notes:
 1. The functions are characterized by a polynomial prefactor (powers of x,y,z and r) and
    an exponential decay factor alpha.
 2. Since the basis sets are specific for an atom TYPE, the individual functions occur on
    all atoms of that type.
 3. The word 'Core' in the left margin signals that it is a Core Function (CF) : not a
    degree of freedom in the valence set, but only used to ensure orthogonalization of
    the other valence basis functions on the frozen Core Orbitals.


 (power of) X  Y  Z  R     Alpha  on Atom
            ==========     =====     ==========

 Kr                                   1
                                  ---------------------------------------------------------------------------
            0  0  0  0    43.600      1
            0  0  0  0    33.950      2
            0  0  0  1    14.350      3
            1  0  0  0    19.850      4
            0  1  0  0    19.850      5
            0  0  1  0    19.850      6
            1  0  0  0    13.500      7
            0  1  0  0    13.500      8
            0  0  1  0    13.500      9
            0  0  0  2     7.350     10
            0  0  0  2     5.000     11
            1  0  0  1     8.150     12
            0  1  0  1     8.150     13
            0  0  1  1     8.150     14
            1  0  0  1     5.300     15
            0  1  0  1     5.300     16
            0  0  1  1     5.300     17
            2  0  0  0     9.050     18
            1  1  0  0     9.050     19
            1  0  1  0     9.050     20
            0  2  0  0     9.050     21
            0  1  1  0     9.050     22
            0  0  2  0     9.050     23
            2  0  0  0     4.450     24
            1  1  0  0     4.450     25
            1  0  1  0     4.450     26
            0  2  0  0     4.450     27
            0  1  1  0     4.450     28
            0  0  2  0     4.450     29
            0  0  0  3     3.400     30
            0  0  0  3     2.050     31
            1  0  0  2     2.900     32
            0  1  0  2     2.900     33
            0  0  1  2     2.900     34
            1  0  0  2     1.550     35
            0  1  0  2     1.550     36
            0  0  1  2     1.550     37

 Total number of charge fitting functions (nprimf)       170
 Total number of Cartesian basis functions (naos)         37
 Total number of Cartesian core functions  (ncos)          0



 BAS: List of all Elementary Cartesian Basis Functions
 =====================================================

 The numbering in the list below (to the right of the function characteristics) is referred
 to in print-outs of MO eigenvectors and Mulliken populations in the BAS representation
 (as contrasted to the SFO representation).

 Notes:
 1. The functions are characterized by a polynomial prefactor (powers of x,y,z and r) and
    an exponential decay factor alpha.
 2. Since the basis sets are specific for an atom TYPE, the individual functions occur on
    all atoms of that type.
 3. The word 'Core' in the left margin signals that it is a Core Function (CF) : not a
    degree of freedom in the valence set, but only used to ensure orthogonalization of
    the other valence basis functions on the frozen Core Orbitals.


 (power of) X  Y  Z  R     Alpha  on Atom
            ==========     =====     ==========

 Kr                                   1
                                  ---------------------------------------------------------------------------
            0  0  0  0    43.600      1
            0  0  0  0    33.950      2
            0  0  0  1    14.350      3
            1  0  0  0    19.850      4
            0  1  0  0    19.850      5
            0  0  1  0    19.850      6
            1  0  0  0    13.500      7
            0  1  0  0    13.500      8
            0  0  1  0    13.500      9
            0  0  0  2     7.350     10
            0  0  0  2     5.000     11
            1  0  0  1     8.150     12
            0  1  0  1     8.150     13
            0  0  1  1     8.150     14
            1  0  0  1     5.300     15
            0  1  0  1     5.300     16
            0  0  1  1     5.300     17
            2  0  0  0     9.050     18
            1  1  0  0     9.050     19
            1  0  1  0     9.050     20
            0  2  0  0     9.050     21
            0  1  1  0     9.050     22
            0  0  2  0     9.050     23
            2  0  0  0     4.450     24
            1  1  0  0     4.450     25
            1  0  1  0     4.450     26
            0  2  0  0     4.450     27
            0  1  1  0     4.450     28
            0  0  2  0     4.450     29
            0  0  0  3     3.400     30
            0  0  0  3     2.050     31
            1  0  0  2     2.900     32
            0  1  0  2     2.900     33
            0  0  1  2     2.900     34
            1  0  0  2     1.550     35
            0  1  0  2     1.550     36
            0  0  1  2     1.550     37
1
 ***************************************************************************************************



                                              ***********************
                                              *  T E C H N I C A L  *
                                              ***********************
  



 =============================================================
 P A R A L L E L I Z A T I O N  and  V E C T O R I Z A T I O N
 =============================================================
  
 Nr of parallel processes:                                1
 Maximum vector length in NumInt loops:                 128

 IO buffersize (Mb):                                     64.000000



 =====================
 S C F   U P D A T E S
 =====================
  
 Max. nr. of cycles:                               300
 Convergence criterion:                              0.0000000100
   secondary criterion:                              0.0000000100

 Mix parameter (when DIIS does not apply):           0.2000000000
 Special mix parameter for the first cycle:          1.0000000000
 Mixed ADIIS+DIIS will be used
    Max number of expansion vectors:                10
    Pure ADIIS when Max([F,P]) is above              0.1000000000
    Pure DIIS when Max([F,P]) is below               0.0010000000
 Automatic ElectronSmearing (in case of problematic SCF convergence) disabled



 =================
 P R E C I S I O N  ***  (General: NumInt, NeglectFunctionTails, ...)  ***
 =================
  

 NumInt:           Target precision:                12.0000000000
 -------           Initial precision:               10.0000000000
                   Min. precision (optimization):   10.0000000000

 Neglect Functions:          Basis functions:        0.1000000000E-13
 ------------------          Fit functions:          0.1000000000E-13



 ===========================
 L I N E A R   S C A L I N G
 ===========================
  

 Cut-off radii density fit:                        0.1000000000E-97
 Overlap cut-off criterion AO matrix elements:     0.1000000000E-97
 Cut-offs for Coulomb potential and fitted density:0.1000000000E-97
 Cut-off criterion for Coulomb multipole terms:    0.1000000000E-97
 Progressive Convergence parameter:                 0.000000000    
1
 ***************************************************************************************************



                                            ***************************
                                            *  C O M P U T A T I O N  *
                                            ***************************
  

 Number of elements of the density matrix on this node (used, total):       703       703



 ===========================================
 Numerical Integration : Fuzzy Cells (Becke)
 ===========================================
  
 Becke grid quality: VERYGOOD       
  
 Lebedev angular grid order:             min:  13 max:  41
 Nr. of radial points:                   min: 111 max: 111

 Total nr. of points:        111
 Nr. of blocks:                1
 Block length:               111
 Nr. of dummy points:          0


 Test of Precision of the Numerical Integration Grid
 ===================================================

 Integral of the Total Core Density:                   0.00000000000000



 ========================
 Density Fitting (zlmFit)
 ========================
  
 ZlmFit Fit Quality: VERYGOOD       
  
 Max L-expansion:                        min:   0 max:   0
 Nr. of radial interpolation points:     min: 240 max: 240



 =====
 S C F  ***  ScaSCF  ***
 =====
  

 CYCLE    1
 SCF Error: norm([F,P])=      0.000000000000, max([F,P])=      0.000000000000
 orbitals (Q,E):
 ---------------
 S :1...7            ( 2.00  -647.9725)  ( 2.00  -161.3056)  ( 2.00   -69.8656)  ( 2.00   -37.7898)
                     ( 0.00   -22.1393)  ( 0.00   -12.8337)  ( 0.00   663.6762)
 P :1...6            ( 6.00  -161.9482)  ( 6.00   -70.9774)  ( 6.00   -38.4472)  ( 0.00   -21.0776)
                     ( 0.00   -10.9390)  ( 0.00    12.2558)
 D :1...2            (10.00   -68.6690)  ( 0.00   -34.7696)

 CYCLE    2
  SDIIS (wt  0.000):  1.0000 -0.0000
 A-DIIS (wt  1.000):  0.0000  1.0000
  DIIS coefficients:  0.0000  1.0000
 SCF Error: norm([F,P])=    123.741925639300, max([F,P])=     45.747394652634
 orbitals (Q,E):
 ---------------
 S :1...5            ( 2.00  -477.7009)  ( 2.00   -43.9830)  ( 2.00    -1.0432)  ( 2.00     0.4958)
                     ( 0.00     2.8050)
 P :1...4            ( 6.00   -36.2190)  ( 6.00     0.1966)  ( 6.00     0.6380)  ( 0.00     3.1102)
 D :1...2            (10.00     4.4967)  ( 0.00    17.2174)

 CYCLE    3
  SDIIS (wt  0.000):  0.1824  0.8176
 A-DIIS (wt  1.000):  0.3198  0.6802
  DIIS coefficients:  0.3198  0.6802
 SCF Error: norm([F,P])=     50.149875617536, max([F,P])=     14.978146025451
 orbitals (Q,E):
 ---------------
 S :1...5            ( 2.00  -516.2915)  ( 2.00   -72.0621)  ( 2.00   -13.0731)  ( 2.00    -1.9377)
                     ( 0.00     0.0045)
 P :1...4            ( 6.00   -65.8105)  ( 6.00   -10.8879)  ( 6.00    -1.2811)  ( 0.00     0.0559)
 D :1...2            (10.00    -6.9691)  ( 0.00     2.2709)

 CYCLE    4
  SDIIS (wt  0.000): -0.0107  0.1645  0.8462
 A-DIIS (wt  1.000):  0.0000  0.0000  1.0000
  DIIS coefficients:  0.0000  0.0000  1.0000
 SCF Error: norm([F,P])=     14.418534136210, max([F,P])=      4.705537954762
 orbitals (Q,E):
 ---------------
 S :1...5            ( 2.00  -504.4564)  ( 2.00   -61.0656)  ( 2.00    -6.6211)  ( 2.00    -0.2035)
                     ( 0.00     1.0163)
 P :1...4            ( 6.00   -54.5633)  ( 6.00    -4.4156)  ( 6.00     0.0700)  ( 0.00     0.9212)
 D :1...2            (10.00    -0.3893)  ( 0.00     7.9702)

 CYCLE    5
  SDIIS (wt  0.000): -0.0052 -0.0748  0.4629  0.6171
 A-DIIS (wt  1.000):  0.0000  0.0000  0.4996  0.5004
  DIIS coefficients:  0.0000  0.0000  0.4996  0.5004
 SCF Error: norm([F,P])=     14.799223396859, max([F,P])=      4.874476704532
 orbitals (Q,E):
 ---------------
 S :1...5            ( 2.00  -510.9535)  ( 2.00   -66.5080)  ( 2.00    -9.4494)  ( 2.00    -0.8960)
                     ( 0.00     0.4102)
 P :1...4            ( 6.00   -60.2100)  ( 6.00    -7.2337)  ( 6.00    -0.4144)  ( 0.00     0.3491)
 D :1...2            (10.00    -3.1712)  ( 0.00     5.1110)

 CYCLE    6
  SDIIS (wt  0.344): -0.0000 -0.0008 -0.0012  0.0060  0.9961
 A-DIIS (wt  0.656):  0.0000  0.0000  0.0000  0.0000  1.0000
  DIIS coefficients: -0.0000 -0.0003 -0.0004  0.0021  0.9986
 SCF Error: norm([F,P])=      0.188467763016, max([F,P])=      0.065966026878
 orbitals (Q,E):
 ---------------
 S :1...5            ( 2.00  -510.7333)  ( 2.00   -66.3240)  ( 2.00    -9.2598)  ( 2.00    -0.7632)
                     ( 0.00     0.4994)
 P :1...4            ( 6.00   -60.0243)  ( 6.00    -7.0441)  ( 6.00    -0.3026)  ( 0.00     0.4130)
 D :1...2            (10.00    -2.9836)  ( 0.00     5.2922)

 CYCLE    7
  SDIIS (wt  0.000): -0.0000 -0.0000  0.0026 -0.0023  0.4166  0.5831
 A-DIIS (wt  1.000):  0.0000  0.0000  0.0000  0.0000  0.3855  0.6145
  DIIS coefficients:  0.0000  0.0000  0.0000  0.0000  0.3855  0.6145
 SCF Error: norm([F,P])=      0.211083936769, max([F,P])=      0.065842456183
 orbitals (Q,E):
 ---------------
 S :1...5            ( 2.00  -510.8808)  ( 2.00   -66.4570)  ( 2.00    -9.3708)  ( 2.00    -0.8184)
                     ( 0.00     0.4638)
 P :1...4            ( 6.00   -60.1595)  ( 6.00    -7.1550)  ( 6.00    -0.3470)  ( 0.00     0.3832)
 D :1...2            (10.00    -3.0936)  ( 0.00     5.1908)

 CYCLE    8
  SDIIS (wt  0.738): -0.0000 -0.0001 -0.0014  0.0025  0.0442  0.1173  0.8374
 A-DIIS (wt  0.262):  0.0000  0.0000  0.0000  0.0000  0.0000  0.0000  1.0000
  DIIS coefficients: -0.0000 -0.0001 -0.0010  0.0019  0.0326  0.0865  0.8801
 SCF Error: norm([F,P])=      0.083000280329, max([F,P])=      0.026979400730
 orbitals (Q,E):
 ---------------
 S :1...5            ( 2.00  -510.8349)  ( 2.00   -66.4178)  ( 2.00    -9.3482)  ( 2.00    -0.8111)
                     ( 0.00     0.4684)
 P :1...4            ( 6.00   -60.1190)  ( 6.00    -7.1324)  ( 6.00    -0.3413)  ( 0.00     0.3870)
 D :1...2            (10.00    -3.0707)  ( 0.00     5.2115)

 CYCLE    9
  SDIIS (wt  0.941):  0.0000 -0.0000 -0.0001  0.0001  0.0055  0.0138  0.2415  0.7392
 A-DIIS (wt  0.059):  0.0000  0.0000  0.0000  0.0000  0.0000  0.0000  0.0000  1.0000
  DIIS coefficients:  0.0000 -0.0000 -0.0001  0.0001  0.0051  0.0130  0.2273  0.7546
 SCF Error: norm([F,P])=      0.021140796234, max([F,P])=      0.006852197346
 orbitals (Q,E):
 ---------------
 S :1...5            ( 2.00  -510.8450)  ( 2.00   -66.4261)  ( 2.00    -9.3528)  ( 2.00    -0.8126)
                     ( 0.00     0.4675)
 P :1...4            ( 6.00   -60.1276)  ( 6.00    -7.1370)  ( 6.00    -0.3424)  ( 0.00     0.3863)
 D :1...2            (10.00    -3.0754)  ( 0.00     5.2073)

 CYCLE   10
  SDIIS (wt  1.000):  0.0000 -0.0000 -0.0000 -0.0000  0.0000  0.0002 -0.0047  0.0371  0.9673
  DIIS coefficients:  0.0000 -0.0000 -0.0000 -0.0000  0.0000  0.0002 -0.0047  0.0371  0.9673
 SCF Error: norm([F,P])=      0.001246541642, max([F,P])=      0.000402534218
 orbitals (Q,E):
 ---------------
 S :1...5            ( 2.00  -510.8444)  ( 2.00   -66.4256)  ( 2.00    -9.3526)  ( 2.00    -0.8125)
                     ( 0.00     0.4676)
 P :1...4            ( 6.00   -60.1271)  ( 6.00    -7.1367)  ( 6.00    -0.3423)  ( 0.00     0.3863)
 D :1...2            (10.00    -3.0751)  ( 0.00     5.2075)

 CYCLE   11
  SDIIS (wt  1.000): -0.0000 -0.0000 -0.0001 -0.0003  0.0001  1.0003
  DIIS coefficients: -0.0000 -0.0000 -0.0001 -0.0003  0.0001  1.0003
 SCF Error: norm([F,P])=      0.000000216902, max([F,P])=      0.000000062680
 orbitals (Q,E):
 ---------------
 S :1...5            ( 2.00  -510.8444)  ( 2.00   -66.4256)  ( 2.00    -9.3526)  ( 2.00    -0.8125)
                     ( 0.00     0.4676)
 P :1...4            ( 6.00   -60.1271)  ( 6.00    -7.1367)  ( 6.00    -0.3423)  ( 0.00     0.3863)
 D :1...2            (10.00    -3.0751)  ( 0.00     5.2075)

 CYCLE   12
  SDIIS (wt  1.000): -0.0000  0.0000  0.0006  0.0086  0.9908
  DIIS coefficients: -0.0000  0.0000  0.0006  0.0086  0.9908
 SCF Error: norm([F,P])=      0.000000014506, max([F,P])=      0.000000004770
 orbitals (Q,E):
 ---------------
 S :1...5            ( 2.00  -510.8444)  ( 2.00   -66.4256)  ( 2.00    -9.3526)  ( 2.00    -0.8125)
                     ( 0.00     0.4676)
 P :1...4            ( 6.00   -60.1271)  ( 6.00    -7.1367)  ( 6.00    -0.3423)  ( 0.00     0.3863)
 D :1...2            (10.00    -3.0751)  ( 0.00     5.2075)

 SCF CONVERGED

 CYCLE   13
1
 ***************************************************************************************************



                                                *******************
                                                *  R E S U L T S  *
                                                *******************
  
 *** Setting up for NEW gradients in Focky
 *** Using EXACT density in Focky

 Orbital Energies, per Irrep and Spin:
 ======================================
                        Occup              E (au)              E (eV)       Diff (eV) with prev. cycle
                        -----      --------------------        ------       --------------------------
 S
               1        2.000     -0.51084439714103E+03    -13900.783               4.94E-09
               2        2.000     -0.66425633180743E+02     -1807.533               5.42E-09
               3        2.000     -0.93525613908029E+01      -254.496               4.63E-09
               4        2.000     -0.81246854727328E+00       -22.108               2.86E-09
               5        0.000      0.46757186377477E+00        12.723
               6        0.000      0.71365990465166E+01       194.197
               7        0.000      0.78849198855865E+03     21455.959
 P
               1        6.000     -0.60127148652693E+02     -1636.143               5.39E-09
               2        6.000     -0.71367204280875E+01      -194.200               4.62E-09
               3        6.000     -0.34229822459272E+00        -9.314               2.40E-09
               4        0.000      0.38632478102295E+00        10.512
               5        0.000      0.69263664806191E+01       188.476
               6        0.000      0.10001530813627E+03      2721.555
 D
               1       10.000     -0.30750997633814E+01       -83.678               4.66E-09
               2        0.000      0.52075286316375E+01       141.704
  
 HOMO :        3 P                -0.34229822459272E+00
 LUMO :        4 P                 0.38632478102295E+00
  


 Orbital Energies, all Irreps
 ========================================

 Irrep        no.  (spin)   Occup              E (au)                E (eV)
 ---------------------------------------------------------------------------
 S             1             2.00       -0.51084439714103E+03    -13900.7833
 S             2             2.00       -0.66425633180743E+02     -1807.5334
 P             1             6.00       -0.60127148652693E+02     -1636.1430
 S             3             2.00       -0.93525613908029E+01      -254.4961
 P             2             6.00       -0.71367204280875E+01      -194.2000
 D             1            10.00       -0.30750997633814E+01       -83.6777
 S             4             2.00       -0.81246854727328E+00       -22.1084
 P             3             6.00       -0.34229822459272E+00        -9.3144
 P             4             0.00        0.38632478102295E+00        10.5124
 S             5             0.00        0.46757186377477E+00        12.7233
 D             2             0.00        0.52075286316375E+01       141.7041
 P             5             0.00        0.69263664806191E+01       188.4760
 S             6             0.00        0.71365990465166E+01       194.1967
 P             6             0.00        0.10001530813627E+03      2721.5550
 S             7             0.00        0.78849198855865E+03     21455.9587


 All Electron Calculation, thus no Orbital Energies of the Core Orbitals are calculated



 =======================================
 M U L L I K E N   P O P U L A T I O N S
 =======================================
  
 The survey below gives for each atom:
 a) the total charge (Z minus electrons)
 b) the net spin polarization (nr of electrons spin-A minus spin-B)
 c) for each spin the atomic electron valence density (integrated) per L-value.

 Atom              Charge    Spin density          S         P         D         F
 ----              ------    ------------       ------    ------    ------    ------
 1 Kr              0.0000                       8.0000   18.0000   10.0000    0.0000

 Populations of individual BAS functions
 ----------------------------------------
 1 Kr           0.2781  1.6539  2.0681  0.7448  0.7448  0.7448  1.2303  1.2303  1.2303  1.6656
                0.3578  1.1812  1.1812  1.1812  0.8720  0.8720  0.8720  0.6725  1.0087  1.0087
                0.6725  1.0087  0.6725  0.6609  0.9913  0.9913  0.6609  0.9913  0.6609  1.3412
                0.6352  1.3002  1.3002  1.3002  0.6716  0.6716  0.6716

 Gross Charges per Atom (Z minus electrons)
 ==========================================
             0.0000
 Net Total:  0.00000000



 =======================================================================
 Electrostatic potential at the Nuclei due to electrons and other nuclei
 =======================================================================
  
         Atom                  Potential
         ----                  ---------
     1)   Kr                182.82523263
 
 
 ========================
 No memory problems found
 ========================
 
 Maximum number of active allocate calls:         362
 
 *******************************************************************************

                             A D F   E X I T
 NORMAL TERMINATION



 =================
 Timing Statistics
 =================
  
 Total Used :                     CPU=        1.00      System=        0.06     Elapsed=        1.08

 Calls  Section                     ( Mean, Percentage )
 ---------------------------------------------------------------------------------------------------
     3  ><      ................      0.00    0.10             0.00    0.01             0.00    0.10
     1  INIT    ................      0.02    1.79             0.04   66.08             0.08    7.50
     1  GEOMET  ................      0.01    0.87             0.00    1.62             0.01    0.88
     1  INPUTA  ................      0.00    0.03             0.00    2.76             0.00    0.18
     1  MAINSY  ................      0.00    0.37             0.00    2.03             0.01    0.47
     1  SYMFIT  ................      0.00    0.03             0.00    0.00             0.00    0.04
     1  CORORT  ................      0.00    0.05             0.00    0.00             0.00    0.02
     1  SYMORB  ................      0.00    0.06             0.00    0.00             0.00    0.08
     1  CLSMAT  ................      0.00    0.35             0.00    0.00             0.00    0.32
     1  ORTHON  ................      0.00    0.14             0.00    0.00             0.00    0.13
     1  GENPT   ................      0.02    1.86             0.00    1.42             0.02    1.77
     1  PTBAS   ................      0.00    0.12             0.00    1.53             0.00    0.21
    13  FOCKY   ................      0.06   84.13             0.00   15.11             0.07   78.44
    13  FOCKTR  ................      0.00    0.74             0.00    2.97             0.00    0.79
    13  SDIIS   ................      0.00    1.41             0.00    0.20             0.00    1.40
     1  COREPS  ................      0.04    4.48             0.00    3.17             0.05    4.31
     1  POPAN   ................      0.00    0.27             0.00    0.00             0.00    0.25
     1  DEBYE   ................      0.00    0.07             0.00    0.00             0.00    0.06
     1  EXIT PROCEDURE .........      0.03    3.14             0.00    3.10             0.03    3.03


 Currently Open Files (EXIT00)
 ====================

 Unit    Access Format  Status   Type       Ident (file)
 -------------------------------------------------------
   3      SEQ    FORM   TRANSP  NORMAL      LOGFILE
                                          ( logfile )


 Buffered I/O statistics
 =======================
 Memory available:                     67108864
 Number of records fitting in memory:     16131
 Input :   0.4% of                         3725  *4k bytes
 Output:   7.7% of                         2040  *4k bytes
 Records from serial files evicted:           0
                    others evicted:           0
 Hash table lookups:      16135 with          0 conflicts (  0.00%)

 ***************************************************************************************************
 (LOGFILE)
 <Feb14-2017> <18:20:27>  ADF 2016  RunTime: Feb14-2017 18:20:27  Nodes: 1  Procs: 1
 <Feb14-2017> <18:20:27>  Krypton (DZ)
 <Feb14-2017> <18:20:27>  RunType   : CREATE
 <Feb14-2017> <18:20:27>  Net Charge: 0 (Nuclei minus Electrons)
 <Feb14-2017> <18:20:27>  Symmetry  : ATOM
  Coordinates
    Atom         X           Y           Z   (Angstrom)
    1.Kr        0.000000    0.000000    0.000000
 <Feb14-2017> <18:20:27>  >>>> CORORT
 <Feb14-2017> <18:20:27>  >>>> CLSMAT
 <Feb14-2017> <18:20:27>  >>>> ORTHON
 <Feb14-2017> <18:20:27>  >>>> GENPT
 <Feb14-2017> <18:20:27>  Block Length= 111
 <Feb14-2017> <18:20:27>  >>>> PTBAS
 <Feb14-2017> <18:20:27>  >>>> CYCLE
 <Feb14-2017> <18:20:27>              |Error|         MaxErr       Wt(A-DIIS)
 <Feb14-2017> <18:20:27>      1      0.00000000      0.00000000
 <Feb14-2017> <18:20:27>      2    123.74192564     45.74739465    100.0
 <Feb14-2017> <18:20:27>      3     50.14987562     14.97814603    100.0
 <Feb14-2017> <18:20:27>      4     14.41853414      4.70553795    100.0
 <Feb14-2017> <18:20:27>      5     14.79922340      4.87447670    100.0
 <Feb14-2017> <18:20:28>      6      0.18846776      0.06596603     65.6
 <Feb14-2017> <18:20:28>      7      0.21108394      0.06584246    100.0
 <Feb14-2017> <18:20:28>      8      0.08300028      0.02697940     26.2
 <Feb14-2017> <18:20:28>      9      0.02114080      0.00685220      5.9
 <Feb14-2017> <18:20:28>     10      0.00124654      0.00040253      0.0
 <Feb14-2017> <18:20:28>     11      0.00000022      0.00000006      0.0
 <Feb14-2017> <18:20:28>     12      0.00000001      0.00000000      0.0
 <Feb14-2017> <18:20:28>  SCF converged
 <Feb14-2017> <18:20:28>     13      0.00000000      0.00000000      0.0
 <Feb14-2017> <18:20:28>  >>>> POPAN
 <Feb14-2017> <18:20:28>  >>>> DEBYE
 <Feb14-2017> <18:20:28>  NORMAL TERMINATION
 <Feb14-2017> <18:20:28>  END


 Parallel Execution: Process Information
 ==============================================================================
 Rank   Node Name                              NodeID   MyNodeRank  NodeMaster
    0   node03                                    0          0          0
    1   node03                                    0          1         -1
    2   node03                                    0          2         -1
    3   node03                                    0          3         -1
    4   node03                                    0          4         -1
    5   node03                                    0          5         -1
    6   node03                                    0          6         -1
    7   node03                                    0          7         -1
    8   node03                                    0          8         -1
    9   node03                                    0          9         -1
   10   node03                                    0         10         -1
   11   node03                                    0         11         -1
   12   node03                                    0         12         -1
   13   node03                                    0         13         -1
   14   node03                                    0         14         -1
   15   node03                                    0         15         -1
 ==============================================================================



title kr    Calculation: kr

ATOMS cartesian
Kr      0.00000000       0.00000000       0.000000
END

CHARGE  0 0
symmetry nosym

XC
 GGA PBE
END

SAVE  TAPE21

SCf
  iterations 400
  ADIIS
end

exactdensity

beckegrid
   quality verygood
end

eprint
 scf eigvec eigval occ ovl
end

Fragments
Kr t21.Kr
End
end input

 *******************************************************************************
 *                                                                             *
 *  -------------------------------------                                      *
 *   Amsterdam Density Functional  (ADF)         2016                          *
 *  -------------------------------------                                      *
 *                                               r52212 2016-04-25             *
 *                                                                             *
 *                                                                             *
 *                              =================                              *
 *                              |               |                              *
 *                              |     A D F     |                              *
 *                              |               |                              *
 *                              =================                              *
 *                                                                             *
 *                                                                             *
 *   Online information and documentation:  http://www.scm.com                 *
 *   E-mail:  support@scm.com   info@scm.com                                   *
 *                                                                             *
 *   Scientific publications using ADF results must be properly referenced     *
 *   See the User Manuals (or the web site) for recommended citations          *
 *   The terms and conditions of the End User License Agreement apply to       *
 *   the use of ADF, http://www.scm.com/Sales/LicAgreement.html                *
 *                                                                             *
 **********************  x86_64_linux_intel / intelmpi  ************************
 
 Licensed to: Dr. Enrique Batista / Los Alamos National Lab (LANL) / Los Alamos / NM / USA
 SCM User ID: u11537
  
 ADF 2016  RunTime: Feb14-2017 18:20:28  Nodes: 1  Procs: 16

 Temporary files are created in /scratch/duignan/kid_0.Lljv9e


Communication costs MPI_COMM_WORLD:      5.110 usec per message,   0.0314 usec per 8-byte item
Communication costs for intra-node:      5.114 usec per message,   0.0308 usec per 8-byte item

 kr    Calculation: kr



 ===========================
 A T T A C H E D   F I L E S
 ===========================
  



 ===============================
 M O D E L   P A R A M E T E R S
 ===============================
  
 DENSITY FUNCTIONAL POTENTIAL (scf)
    LDA:                               PW92                                    == Not Default ==
    Gradient Corrections:              PBEc PBEx                               == Not Default ==

 SPIN  (restricted / unrestr.)
    Molecule:                          Restricted                               
    Fragments:                         Restricted                               

 OTHER ASPECTS
    Relativistic Corrections:          ---                                      

    Nuclear Charge Density Model:      Point Charge Nuclei                                                                                                                                                                                     
    Core Treatment:                    Frozen Orbital(s)                        

    Hyperfine or Zeeman Interaction:   ---                                      


 Fragment File(s)
 ----------------
 Kr:
         file : t21.Kr
         jobid: ADF 2016  RunTime: Feb14-2017 18:20:27  Nodes: 1  Procs: 1
         title: Krypton (DZ)



                                        ************************************
                                        *  R U N   T Y P E : SINGLE POINT  *
                                        ************************************
  



 ===============
 G E O M E T R Y  ***  Single Atom  ***
 ===============
  

 ATOMS
 =====                            X Y Z                    CHARGE
                                (Angstrom)             Nucl     +Core       At.Mass
                       --------------------------    ----------------       -------
    1  Kr              0.0000    0.0000    0.0000     36.00     36.00       83.9115


 FRAGMENTS
 =========                                     Atoms in this Fragment     Cart. coord.s (Angstrom)
                                               -------------------------------------------------------
    1  Kr                                                1  Kr           0.0000    0.0000    0.0000



 =====================================
 S Y M M E T R Y ,   E L E C T R O N S
 =====================================
  
 Symmetry: NOSYM

 Irreducible Representations, including subspecies
 -------------------------------------------------
 A


 Configuration of Valence Electrons
 ==================================
 ( determined in the SCF procedure )

 Total:   36

 Net Charge: 0 (Nuclei minus Electrons)

 Aufbau principle for MO occupations will be applied through SCF cycle no.     200
 Thereafter, the program will assign electrons to MOs that are spatially
 similar to the occupied MOs in a "reference" cycle ("KeepOrbitals").
 The reference cycle is always the PREVIOUS cycle: it will evolve with
 the SCF procedure.
1
 ***************************************************************************************************



                                      ****************************************
                                      *  B U I L D : (Fragments, Functions)  *
                                      ****************************************
  



 =======
 S F O s  ***  (Symmetrized Fragment Orbitals)  ***
 =======
  
 SFOs are linear combinations of (valence) Fragment Orbitals (FOs), such that the SFOs transform as the
 irreducible representations of the (molecular) symmetry group. Each SFO is therefore characterized by
 an irrep of the molecule and by a few (or only one) generating FOs.
 The SFOs constitute a symmetry-adapted basis for the Fock matrix. The MO eigenvector coefficients in
 this basis provide a direct interpretation of the MOs in terms of Frontier Orbital Theory.

 The SFOs are combined with auxiliary Core Functions (CFs) to ensure orthogonalization on the (frozen)
 Core Orbitals (COs). The Core-orthogonalized SFOs (CSFOs) constitute the true Fock basis.

 The FOs, and hence also the (C)SFOs are combinations of the elementary basis functions (BAS). The basis
 functions that participate in the description of the SFOs depend on the irrep. The indices of the
 involved functions are printed below for each irrep.
 (The complete list of primitive basis functions is printed in another section)

 Total nr. of (C)SFOs (summation over all irreps) :    35

 NOTE: a (C)SFO that is defined as a combination of more than one FO is usually NOT normalized.



                                       === A ===
 Nr. of SFOs :   35
 Cartesian basis functions that participate in this irrep (total number =    37) :
      1     2     3    10    11    30    31     4     7    12
     15    32    35     5     8    13    16    33    36     6
      9    14    17    34    37    18    24    19    25    20
     26    21    27    22    28    23    29

    SFO  (index         Fragment          Generating    Expansion in Fragment Orbitals
  indx  incl.CFs)   Occup   Orb.Energy   FragmentType  Coeff.   Orbital     on Fragment
 --------------------------------------------------------------------------------------
     1       1      2.000    -510.844 au  Kr            1.00      1 S               1
                        (  -13900.783 eV)
     2       2      2.000     -66.426 au  Kr            1.00      2 S               1
                        (   -1807.533 eV)
     3       3      2.000      -9.353 au  Kr            1.00      3 S               1
                        (    -254.496 eV)
     4       4      2.000      -0.812 au  Kr            1.00      4 S               1
                        (     -22.108 eV)
     5       5       --         0.468 au  Kr            1.00      5 S               1
                        (      12.723 eV)
     6       6       --         7.137 au  Kr            1.00      6 S               1
                        (     194.197 eV)
     7       7       --       788.492 au  Kr            1.00      7 S               1
                        (   21455.959 eV)
     8       8      2.000     -60.127 au  Kr            1.00      1 P:x             1
                        (   -1636.143 eV)
     9       9      2.000      -7.137 au  Kr            1.00      2 P:x             1
                        (    -194.200 eV)
    10      10      2.000      -0.342 au  Kr            1.00      3 P:x             1
                        (      -9.314 eV)
    11      11       --         0.386 au  Kr            1.00      4 P:x             1
                        (      10.512 eV)
    12      12       --         6.926 au  Kr            1.00      5 P:x             1
                        (     188.476 eV)
    13      13       --       100.015 au  Kr            1.00      6 P:x             1
                        (    2721.555 eV)
    14      14      2.000     -60.127 au  Kr            1.00      1 P:y             1
                        (   -1636.143 eV)
    15      15      2.000      -7.137 au  Kr            1.00      2 P:y             1
                        (    -194.200 eV)
    16      16      2.000      -0.342 au  Kr            1.00      3 P:y             1
                        (      -9.314 eV)
    17      17       --         0.386 au  Kr            1.00      4 P:y             1
                        (      10.512 eV)
    18      18       --         6.926 au  Kr            1.00      5 P:y             1
                        (     188.476 eV)
    19      19       --       100.015 au  Kr            1.00      6 P:y             1
                        (    2721.555 eV)
    20      20      2.000     -60.127 au  Kr            1.00      1 P:z             1
                        (   -1636.143 eV)
    21      21      2.000      -7.137 au  Kr            1.00      2 P:z             1
                        (    -194.200 eV)
    22      22      2.000      -0.342 au  Kr            1.00      3 P:z             1
                        (      -9.314 eV)
    23      23       --         0.386 au  Kr            1.00      4 P:z             1
                        (      10.512 eV)
    24      24       --         6.926 au  Kr            1.00      5 P:z             1
                        (     188.476 eV)
    25      25       --       100.015 au  Kr            1.00      6 P:z             1
                        (    2721.555 eV)
    26      26      2.000      -3.075 au  Kr            1.00      1 D:z2            1
                        (     -83.678 eV)
    27      27       --         5.208 au  Kr            1.00      2 D:z2            1
                        (     141.704 eV)
    28      28      2.000      -3.075 au  Kr            1.00      1 D:x2-y2         1
                        (     -83.678 eV)
    29      29       --         5.208 au  Kr            1.00      2 D:x2-y2         1
                        (     141.704 eV)
    30      30      2.000      -3.075 au  Kr            1.00      1 D:xy            1
                        (     -83.678 eV)
    31      31       --         5.208 au  Kr            1.00      2 D:xy            1
                        (     141.704 eV)
    32      32      2.000      -3.075 au  Kr            1.00      1 D:xz            1
                        (     -83.678 eV)
    33      33       --         5.208 au  Kr            1.00      2 D:xz            1
                        (     141.704 eV)
    34      34      2.000      -3.075 au  Kr            1.00      1 D:yz            1
                        (     -83.678 eV)
    35      35       --         5.208 au  Kr            1.00      2 D:yz            1
                        (     141.704 eV)



 ================================
 (Slater-type)  F U N C T I O N S  ***  (Basis and Fit)  ***
 ================================
  

 Atom Type    1  (Kr)
 ==============

 Valence Basis Sets:  15
 -----------------------
   1 S   43.600000
   1 S   33.950000
   2 S   14.350000
   2 P   19.850000
   2 P   13.500000
   3 S    7.350000
   3 S    5.000000
   3 P    8.150000
   3 P    5.300000
   3 D    9.050000
   3 D    4.450000
   4 S    3.400000
   4 S    2.050000
   4 P    2.900000
   4 P    1.550000


 BAS: List of all Elementary Cartesian Basis Functions
 =====================================================

 The numbering in the list below (to the right of the function characteristics) is referred
 to in print-outs of MO eigenvectors and Mulliken populations in the BAS representation
 (as contrasted to the SFO representation).

 Notes:
 1. The functions are characterized by a polynomial prefactor (powers of x,y,z and r) and
    an exponential decay factor alpha.
 2. Since the basis sets are specific for an atom TYPE, the individual functions occur on
    all atoms of that type.
 3. The word 'Core' in the left margin signals that it is a Core Function (CF) : not a
    degree of freedom in the valence set, but only used to ensure orthogonalization of
    the other valence basis functions on the frozen Core Orbitals.


 (power of) X  Y  Z  R     Alpha  on Atom
            ==========     =====     ==========

 Kr                                   1
                                  ---------------------------------------------------------------------------
            0  0  0  0    43.600      1
            0  0  0  0    33.950      2
            0  0  0  1    14.350      3
            1  0  0  0    19.850      4
            0  1  0  0    19.850      5
            0  0  1  0    19.850      6
            1  0  0  0    13.500      7
            0  1  0  0    13.500      8
            0  0  1  0    13.500      9
            0  0  0  2     7.350     10
            0  0  0  2     5.000     11
            1  0  0  1     8.150     12
            0  1  0  1     8.150     13
            0  0  1  1     8.150     14
            1  0  0  1     5.300     15
            0  1  0  1     5.300     16
            0  0  1  1     5.300     17
            2  0  0  0     9.050     18
            1  1  0  0     9.050     19
            1  0  1  0     9.050     20
            0  2  0  0     9.050     21
            0  1  1  0     9.050     22
            0  0  2  0     9.050     23
            2  0  0  0     4.450     24
            1  1  0  0     4.450     25
            1  0  1  0     4.450     26
            0  2  0  0     4.450     27
            0  1  1  0     4.450     28
            0  0  2  0     4.450     29
            0  0  0  3     3.400     30
            0  0  0  3     2.050     31
            1  0  0  2     2.900     32
            0  1  0  2     2.900     33
            0  0  1  2     2.900     34
            1  0  0  2     1.550     35
            0  1  0  2     1.550     36
            0  0  1  2     1.550     37

 Total number of charge fitting functions (nprimf)       170
 Total number of Cartesian basis functions (naos)         37
 Total number of Cartesian core functions  (ncos)          0

1
 ***************************************************************************************************



                                              ***********************
                                              *  T E C H N I C A L  *
                                              ***********************
  



 =============================================================
 P A R A L L E L I Z A T I O N  and  V E C T O R I Z A T I O N
 =============================================================
  
 Nr of parallel processes:                               16
 Maximum vector length in NumInt loops:                 128

 IO buffersize (Mb):                                     64.000000



 =====================
 S C F   U P D A T E S
 =====================
  
 Max. nr. of cycles:                               400
 Convergence criterion:                              0.0000010000
   secondary criterion:                              0.0010000000

 Mix parameter (when DIIS does not apply):           0.2000000000
 Mixed ADIIS+DIIS will be used
    Max number of expansion vectors:                10
    Pure ADIIS when Max([F,P]) is above              0.1000000000
    Pure DIIS when Max([F,P]) is below               0.0010000000
 Automatic ElectronSmearing (in case of problematic SCF convergence) disabled



 =================
 P R E C I S I O N  ***  (General: NumInt, NeglectFunctionTails, ...)  ***
 =================
  

 NumInt:           Target precision:                 8.0000000000
 -------           Initial precision:                8.0000000000
                   Min. precision (optimization):    8.0000000000

 Neglect Functions:          Basis functions:        0.1000000000E-09
 ------------------          Fit functions:          0.1000000000E-09



 ===========================
 L I N E A R   S C A L I N G
 ===========================
  

 Cut-off radii density fit:                        0.1000000000E-11
 Overlap cut-off criterion AO matrix elements:     0.1000000000E-09
 Cut-offs for Coulomb potential and fitted density:0.1000000000E-11
 Cut-off criterion for Coulomb multipole terms:    0.1000000000E-11
 Progressive Convergence parameter:                 0.000000000    
1
 ***************************************************************************************************



                                            ***************************
                                            *  C O M P U T A T I O N  *
                                            ***************************
  

 Number of elements of the density matrix on this node (used, total):       703       703



 ===========================================
 Numerical Integration : Fuzzy Cells (Becke)
 ===========================================
  
 Becke grid quality: VERYGOOD       
  
 Lebedev angular grid order:             min:  13 max:  41
 Nr. of radial points:                   min: 111 max: 111

 Total nr. of points:       5550
 Nr. of blocks:               56
 Block length:               100
 Nr. of dummy points:         50


 Test of Precision of the Numerical Integration Grid
 ===================================================

 Integral of the Total Core Density:                   0.00000000000000



 ========================
 Density Fitting (zlmFit)
 ========================
  
 ZlmFit Fit Quality: NORMAL         
  
 Max L-expansion:                        min:   6 max:   6
 Nr. of radial interpolation points:     min:  72 max:  72



 =====
 S C F  ***  ScaSCF  ***
 =====
  
 Initial density matrix is calculated as sum of fragments

 CYCLE    1
 SCF Error: norm([F,P])=      0.022540590087, max([F,P])=      0.006921101878
 orbitals (Q,E):
 ---------------
 A :9...28           ( 2.00    -7.1437)  ( 2.00    -3.0820)  ( 2.00    -3.0820)  ( 2.00    -3.0820)
                     ( 2.00    -3.0820)  ( 2.00    -3.0820)  ( 2.00    -0.8153)  ( 2.00    -0.3447)
                     ( 2.00    -0.3447)  ( 2.00    -0.3447)  ( 0.00     0.3845)  ( 0.00     0.3845)
                     ( 0.00     0.3845)  ( 0.00     0.4655)  ( 0.00     5.2009)  ( 0.00     5.2009)
                     ( 0.00     5.2009)  ( 0.00     5.2009)  ( 0.00     5.2009)  ( 0.00     6.9206)

 CYCLE    2
  SDIIS (wt  0.000):  0.4367  0.5633
 A-DIIS (wt  1.000):  0.5238  0.4762
  DIIS coefficients:  0.5238  0.4762
 SCF Error: norm([F,P])=      0.017814184542, max([F,P])=      0.005799083499
 orbitals (Q,E):
 ---------------
 A :9...19           ( 2.00    -7.1403)  ( 2.00    -3.0786)  ( 2.00    -3.0786)  ( 2.00    -3.0786)
                     ( 2.00    -3.0786)  ( 2.00    -3.0786)  ( 2.00    -0.8142)  ( 2.00    -0.3439)
                     ( 2.00    -0.3439)  ( 2.00    -0.3439)  ( 0.00     0.3850)

 CYCLE    3
  SDIIS (wt  0.000):  0.0399  0.0006  0.9595
 A-DIIS (wt  1.000):  0.0000  0.0000  1.0000
  DIIS coefficients:  0.0000  0.0000  1.0000
 SCF Error: norm([F,P])=      0.002641772101, max([F,P])=      0.002215441347
 orbitals (Q,E):
 ---------------
 A :9...19           ( 2.00    -7.1403)  ( 2.00    -3.0785)  ( 2.00    -3.0785)  ( 2.00    -3.0785)
                     ( 2.00    -3.0785)  ( 2.00    -3.0785)  ( 2.00    -0.8142)  ( 2.00    -0.3439)
                     ( 2.00    -0.3439)  ( 2.00    -0.3439)  ( 0.00     0.3850)

 CYCLE    4
  SDIIS (wt  1.000):  0.0318 -0.0483  1.0165
  DIIS coefficients:  0.0318 -0.0483  1.0165
 SCF Error: norm([F,P])=      0.000527448472, max([F,P])=      0.000183827150
 orbitals (Q,E):
 ---------------
 A :9...19           ( 2.00    -7.1403)  ( 2.00    -3.0785)  ( 2.00    -3.0785)  ( 2.00    -3.0785)
                     ( 2.00    -3.0785)  ( 2.00    -3.0785)  ( 2.00    -0.8142)  ( 2.00    -0.3438)
                     ( 2.00    -0.3438)  ( 2.00    -0.3438)  ( 0.00     0.3850)

 CYCLE    5
  SDIIS (wt  1.000):  0.0117 -0.0194  0.3263  0.6814
  DIIS coefficients:  0.0117 -0.0194  0.3263  0.6814
 SCF Error: norm([F,P])=      0.000066927097, max([F,P])=      0.000031639316
 orbitals (Q,E):
 ---------------
 A :9...19           ( 2.00    -7.1404)  ( 2.00    -3.0786)  ( 2.00    -3.0786)  ( 2.00    -3.0786)
                     ( 2.00    -3.0786)  ( 2.00    -3.0786)  ( 2.00    -0.8142)  ( 2.00    -0.3439)
                     ( 2.00    -0.3439)  ( 2.00    -0.3439)  ( 0.00     0.3850)

 CYCLE    6
  SDIIS (wt  1.000):  0.0010 -0.0016  0.0446  0.1682  0.7878
  DIIS coefficients:  0.0010 -0.0016  0.0446  0.1682  0.7878
 SCF Error: norm([F,P])=      0.000017782753, max([F,P])=      0.000005306693
 orbitals (Q,E):
 ---------------
 A :9...19           ( 2.00    -7.1404)  ( 2.00    -3.0786)  ( 2.00    -3.0786)  ( 2.00    -3.0786)
                     ( 2.00    -3.0786)  ( 2.00    -3.0786)  ( 2.00    -0.8142)  ( 2.00    -0.3439)
                     ( 2.00    -0.3439)  ( 2.00    -0.3439)  ( 0.00     0.3850)

 CYCLE    7
  SDIIS (wt  1.000): -0.0001  0.0001 -0.0033 -0.0055 -0.1274  1.1362
  DIIS coefficients: -0.0001  0.0001 -0.0033 -0.0055 -0.1274  1.1362
 SCF Error: norm([F,P])=      0.000001460509, max([F,P])=      0.000000521400
 orbitals (Q,E):
 ---------------
 A :9...19           ( 2.00    -7.1404)  ( 2.00    -3.0786)  ( 2.00    -3.0786)  ( 2.00    -3.0786)
                     ( 2.00    -3.0786)  ( 2.00    -3.0786)  ( 2.00    -0.8142)  ( 2.00    -0.3439)
                     ( 2.00    -0.3439)  ( 2.00    -0.3439)  ( 0.00     0.3850)

 SCF CONVERGED

 CYCLE    8
1
 ***************************************************************************************************



                                                *******************
                                                *  R E S U L T S  *
                                                *******************
  
 *** Setting up for NEW gradients in Focky
 *** Using EXACT density in Focky

 Orbital Energies, per Irrep and Spin:
 ======================================
                        Occup              E (au)              E (eV)       Diff (eV) with prev. cycle
                        -----      --------------------        ------       --------------------------
 A
               9        2.000     -0.71403801269602E+01      -194.300              -1.91E-07
              10        2.000     -0.30785589468942E+01       -83.772              -1.60E-07
              11        2.000     -0.30785589468937E+01       -83.772              -1.60E-07
              12        2.000     -0.30785589468933E+01       -83.772              -1.60E-07
              13        2.000     -0.30785589468932E+01       -83.772              -1.61E-07
              14        2.000     -0.30785589468925E+01       -83.772              -1.61E-07
              15        2.000     -0.81422996381897E+00       -22.156               4.86E-07
              16        2.000     -0.34386559853224E+00        -9.357               4.90E-07
              17        2.000     -0.34386559853111E+00        -9.357               4.90E-07
              18        2.000     -0.34386559852999E+00        -9.357               4.90E-07
              19        0.000      0.38502254750787E+00        10.477
              20        0.000      0.38502254750795E+00        10.477
              21        0.000      0.38502254750848E+00        10.477
              22        0.000      0.46616570242172E+00        12.685
              23        0.000      0.52040693804163E+01       141.610
              24        0.000      0.52040693804171E+01       141.610
              25        0.000      0.52040693804172E+01       141.610
              26        0.000      0.52040693804174E+01       141.610
              27        0.000      0.52040693804181E+01       141.610
              28        0.000      0.69230820873477E+01       188.387
  
 HOMO :       18 A                -0.34386559852999E+00
 LUMO :       19 A                 0.38502254750787E+00
  


                                   ***** SPIN 1 *****

                                       === A ===


 ======  Eigenvectors (columns) in BAS representation

  column           1                   2                   3                   4
  row   
    1   -1.62724338168796E-01 -1.76172495639805E-01  3.29082806972524E-17 -1.61969303060301E-17
    2   -8.40428820106987E-01  5.90063631978608E-01 -4.84106508919716E-17 -3.18028152040712E-17
    3   -1.42087380607443E-05 -1.11035226631156E+00  9.27523707336397E-18  7.05819719566412E-17
    4   -2.87196104332105E-05  4.22972379384186E-03 -5.08563880047075E-18 -1.36721584732965E-16
    5    2.96357206937741E-05 -4.18614431418177E-03 -1.73400834626063E-17  9.20780906148336E-17
    6   -1.34235103570492E-05  1.32546390512220E-03  3.12795452417708E-17  1.26975719317070E-16
    7    4.92332126496077E-06 -3.79455163489509E-04 -2.29282927202908E-17 -1.92440099102264E-16
    8   -1.41628159901616E-15 -8.36274793322050E-15  6.34307582155180E-03 -3.32670567352748E-01
    9    1.82823587002585E-15 -1.19792365569390E-14  1.13100699922713E-02 -5.93170806557984E-01
   10   -1.13522301710786E-15 -2.76050604814381E-15  9.07805734841273E-07 -4.76110103067368E-05
   11    6.95412781457743E-16  1.40848567556419E-15  2.87998469633845E-07 -1.51044409552571E-05
   12   -1.89555918938475E-16 -3.27970756199496E-16  2.06885856043866E-06 -1.08503882301775E-04
   13    7.29950265175275E-17  8.94392525931931E-17 -1.06674552613969E-06  5.59468071699516E-05
   14   -2.12764513987457E-15 -5.33569789440591E-16  3.66568592111522E-01  5.73186730574117E-04
   15    2.64655873243921E-15  3.77647990875148E-15  6.53612939587340E-01  1.02202499604663E-03
   16   -1.63670097739953E-15 -4.15174381482351E-15  5.24624139590850E-05  8.20331038785867E-08
   17    9.96377300774492E-16  2.95260177379947E-15  1.66435332713125E-05  2.60247405145805E-08
   18   -2.76360191376852E-16  8.30860823289697E-16  1.19560067156291E-04  1.86950670274528E-07
   19    1.08868105457859E-16 -5.69288028610608E-16 -6.16476008085369E-05 -9.63955656093167E-08
   20    1.42792792378780E-15  1.75773736164618E-14 -1.22919406779414E-02 -1.54576273125291E-01
   21   -1.84311137974128E-15  2.98788852825112E-14 -2.19172390996830E-02 -2.75618409329351E-01
   22    1.13701251717253E-15 -3.15681876169034E-15 -1.75919294346506E-06 -2.21225838851576E-05
   23   -6.88683197282568E-16  1.74531775666173E-15 -5.58098342333160E-07 -7.01831908208255E-06
   24    1.75074423536126E-16  1.02380040999847E-15 -4.00914121942596E-06 -5.04166204997717E-05
   25   -5.85023109945559E-17 -6.50455209333992E-16  2.06719470183362E-06  2.59958343002414E-05
   26    4.56909224665307E-19 -3.20628524238860E-15 -1.35902394737293E-16  3.33200374014681E-16
   27   -6.39765447221246E-18  2.99942335119447E-15 -7.07374436259274E-17  1.39101441119294E-16
   28   -5.78343619392177E-16 -5.44944321491427E-17  3.54113281204724E-16 -1.20415657625996E-16
   29    4.86882589646010E-16  8.26418655236982E-16  4.05269871215720E-16  1.70277495471860E-16
   30   -1.22402023623017E-16  3.11189898828132E-15  2.56164493080425E-16 -3.14613234894495E-17
   31   -1.20658175763661E-16 -3.15097191160986E-15  3.82122001555822E-16 -3.02778441987727E-16
   32   -4.46234277412274E-18  1.68107760023327E-15  1.38171820806959E-15 -4.74355747250917E-16
   33    6.56207412630428E-18 -1.53963750740210E-15  1.24916067693774E-15 -1.40031528467524E-17
   34    3.29589030303548E-19  8.46662272380337E-18  1.68457313702499E-18  1.13016363361494E-18
   35   -1.89324368514301E-19  8.34599970241976E-18  1.65905924767734E-18  1.06896229008106E-18
   36    4.00543354945744E-18  1.52520764215533E-15 -1.24581581333230E-15  1.41155373236237E-16
   37   -1.64419654091817E-19 -1.45978584379237E-15 -1.17842323331181E-15 -1.25098288272542E-16

  column           5                   6                   7                   8
  row   
    1    1.28055350700730E-14 -1.13945111113168E-01 -3.52055026353996E-17  9.11359318357143E-16
    2   -4.32451239631995E-14  3.00359985516065E-01  1.08941883388845E-16 -2.66713721234883E-15
    3    8.19107285576389E-14 -5.91586335773480E-01 -2.10492944070636E-16  5.37260083989819E-15
    4   -3.86437591108150E-15  9.47038117592270E-01  9.64878311319890E-17 -3.43985867779575E-15
    5    5.15838998092664E-15  2.13277813798996E-01  5.15428715617908E-16 -1.19730315452718E-14
    6   -2.83493211150861E-15 -1.42436617974195E-02  2.49854929650966E-16  7.58893030896104E-15
    7    1.29647423625334E-15  5.19997589816141E-03 -7.13272546597530E-17 -9.88374344299475E-15
    8   -1.54447137058138E-01  7.76160795041023E-15  1.08086239707066E-02 -7.26007848654948E-02
    9   -2.75388152274390E-01  2.52901732094931E-14  3.11508051045619E-02 -2.09237818422765E-01
   10   -2.21041022471864E-05 -5.13769847720889E-14 -6.03740150371786E-02  4.05528112464493E-01
   11   -7.01245583508710E-06 -2.54302221762540E-14 -4.29851030944291E-02  2.88727985230840E-01
   12   -5.03745014625904E-05 -6.61438850440809E-15  1.11021803829307E-04 -7.45725831270087E-04
   13    2.59741168684959E-05  7.10245095370400E-15 -7.43744014559661E-05  4.99567746489459E-04
   14    1.38201980260731E-02 -3.07074246747346E-16 -1.20143830946962E-01 -5.32104818367749E-03
   15    2.46422100853458E-02  5.33329788846639E-15 -3.46258420358331E-01 -1.53354335732766E-02
   16    1.97791344767052E-06 -1.53721303274060E-14  6.71090554715767E-01  2.97219187127467E-02
   17    6.27486731377445E-07  1.28511490245403E-14  4.77803185068849E-01  2.11614175278793E-02
   18    4.50759786546328E-06 -2.77459612564317E-14 -1.23406872762340E-03 -5.46556499157540E-05
   19   -2.32420908141346E-06  3.52108235483426E-14  8.26712589834215E-04  3.66142605159395E-05
   20    3.32443894695324E-01  6.16880633678359E-15  1.51167651427630E-03  9.62001253417932E-02
   21    5.92766636137692E-01  2.49672815422147E-14  4.35670077939582E-03  2.77251883651279E-01
   22    4.75785694530504E-05 -5.27750009393428E-14 -8.44381124291373E-03 -5.37347568913887E-01
   23    1.50941492094067E-05 -1.48280612808172E-14 -6.01182638860532E-03 -3.82580827746654E-01
   24    1.08429950710782E-04 -2.75332040871425E-14  1.55273283516201E-05  9.88128689959771E-04
   25   -5.59086865392908E-05  3.48263802985659E-14 -1.04018824457946E-05 -6.61955375799791E-04
   26   -3.66905917277729E-15 -9.49144754426126E-16  1.39914861723095E-15  3.80104417550018E-14
   27    3.79663355223553E-15  6.40870276879951E-16 -1.08059153127379E-15 -3.75656303921208E-14
   28   -8.91379803594369E-16 -6.58947649975568E-16  3.85583211901145E-15 -3.23799431991786E-14
   29    1.25174396235942E-15  5.58893200587537E-16 -4.27613010982867E-15  3.24124894342815E-14
   30    3.47672338121237E-15  1.06265039916089E-15  3.24958966556794E-15  2.29608347028320E-14
   31   -3.58100049902828E-15 -9.52332409544392E-16 -3.92289291961680E-15 -2.29940740722440E-14
   32    2.12660387459949E-15  5.35819290672385E-16 -5.26412328582742E-16  6.14361393226459E-16
   33   -2.24948763368336E-15  2.13712816468835E-17 -1.93404253549771E-16 -8.47502546381393E-17
   34    1.19373557658141E-17 -1.94667947307638E-16  1.36593087920504E-16  9.04426766933011E-17
   35   -6.80975377855627E-18 -1.91894534964039E-16  1.34633594060616E-16  6.66905301085434E-17
   36    1.54245529817780E-15  4.13325463753741E-16 -8.72736288648208E-16 -3.86248031482283E-14
   37   -1.54714591855217E-15 -6.62241558526834E-16  1.27399578482356E-15  3.76503806467590E-14

  column           9                  10                  11                  12
  row   
    1   -8.72908795456091E-15 -5.23793179138612E-16 -5.18210555959665E-16 -2.92184383266161E-16
    2    2.50206579252254E-14  1.58431899823181E-15  3.72436172829098E-16  1.91038731897127E-16
    3   -4.97559347681845E-14 -3.47335861354315E-15  2.45065003658517E-17  1.93141255816150E-16
    4    2.84703456736154E-14  6.47589691967210E-15  6.61147173056736E-16 -1.04142889561646E-15
    5    1.18277320942193E-13  2.27898185183370E-15 -1.28344377746973E-15  9.67371429370438E-16
    6   -7.29236267224906E-14 -2.21800466079298E-14  1.37472023055816E-15  6.83992138586022E-16
    7    9.44914384406785E-14  1.72742419277251E-14 -5.23470093443946E-16 -4.67041275766982E-16
    8   -9.57389749131051E-02  9.21056264764451E-16 -1.88127987796475E-15 -4.81170278015816E-16
    9   -2.75922833147957E-01 -1.30078881253525E-15 -1.69520174895695E-15  8.67112694060487E-16
   10    5.34771708842142E-01  1.92436996938840E-15  4.21834465032034E-15 -1.72077860296080E-15
   11    3.80746866386377E-01 -1.36203701181671E-15  7.84888530449993E-15  1.41335169407702E-15
   12   -9.83391939685762E-04 -7.77977068941044E-16 -3.88540605002935E-14  4.90312177763630E-16
   13    6.58782188604697E-04  2.56766215541269E-15  3.70302744599662E-14 -6.45964366950369E-16
   14   -9.52879657937193E-03 -1.25180272842401E-15  1.62944091661753E-16 -5.58077151959837E-18
   15   -2.74623010227072E-02  7.39088331735082E-16  6.31773807076970E-16 -3.39132166020617E-16
   16    5.32252495347896E-02 -3.29901092033061E-16  1.35414602973800E-16  6.09516963533302E-16
   17    3.78953236268194E-02  3.39436805016927E-15 -4.80625035727242E-15 -5.43116247218689E-17
   18   -9.78759356867500E-05 -1.30883747060253E-14  2.17872546599962E-14 -5.92058803513064E-17
   19    6.55678783846959E-05  1.62009440490687E-14 -3.95984663546692E-14  1.85435124167104E-16
   20   -7.27798210424699E-02 -9.92366682218619E-16 -9.03245784795822E-17 -8.61999285496834E-16
   21   -2.09753806495902E-01 -2.34977652971510E-16 -6.57994511439513E-16  1.08357016488834E-15
   22    4.06528159544544E-01  1.62967556668185E-15  4.26269649287702E-16 -2.12037806822017E-16
   23    2.89439998947489E-01  2.20230309498019E-15  2.71382188807159E-15 -2.76713622723289E-16
   24   -7.47564818290017E-04 -1.20371517508132E-14 -1.44772015660399E-14 -5.06263555255307E-17
   25    5.00799698705860E-04  1.62477199284642E-14  3.31761381624758E-14  6.32736660329046E-17
   26    1.92494358231264E-14  5.20605124235338E-01  1.73199760278961E-01 -7.08628321339536E-02
   27   -1.98530770159678E-14  5.12880321483246E-01  1.70629800970878E-01 -6.98113607303762E-02
   28    4.36402888634149E-15  1.71020783961541E-01 -3.17253901591912E-01  3.93077122299951E-01
   29   -4.47869107479174E-15  1.68483156571584E-01 -3.12546449248386E-01  3.87244595698178E-01
   30   -1.24375110448044E-14 -8.56095414757022E-02  4.20679080011746E-01  3.30236874329048E-01
   31    1.23094825363525E-14 -8.43392565883458E-02  4.14436992172535E-01  3.25336779042042E-01
   32   -9.11957364497987E-15 -2.51277650253988E-01 -7.80841779887920E-02 -1.35875796462336E-01
   33    8.88004340952572E-15 -2.47549161628230E-01 -7.69255553687990E-02 -1.33859654711912E-01
   34   -1.36929599142913E-16  6.13793325708657E-04  1.85647386464142E-07 -6.03687196723865E-08
   35    8.29611901243191E-17  6.04685784981925E-04  1.82892727192804E-07 -5.94729613261466E-08
   36   -1.01298621781466E-14 -2.69327473981349E-01 -9.51155822901694E-02  2.06738628596290E-01
   37    1.09730336064421E-14 -2.65331159855015E-01 -9.37042456020785E-02  2.03671015442288E-01

  column          13                  14                  15                  16
  row   
    1    5.29912641596976E-17 -3.92428852938127E-17 -4.25344130174815E-02  3.26253519359346E-14
    2   -4.78193737541563E-17  1.23545025661342E-16  1.08001076514990E-01 -8.13403840506477E-14
    3   -2.86035927940865E-16 -2.59080327399311E-16 -2.13385692181388E-01  1.59519482207598E-13
    4    3.16174590996474E-15 -3.80284381305676E-17  4.12873798914163E-01 -3.41243063409760E-13
    5   -5.75140475850939E-15  1.25740164485431E-15  5.48733984621141E-02  4.19272963590494E-14
    6    4.92593732960656E-15 -1.80419010041160E-15 -7.78275018169505E-01  2.45619640926558E-13
    7   -1.40553296668023E-15  4.41764473420523E-16 -3.57575267312167E-01  1.03998475880561E-12
    8   -4.67893733896850E-15  8.08656457016825E-18 -8.92628628732307E-15 -3.77614487581264E-03
    9   -1.04751930793936E-14  9.90070763385361E-17 -3.03590213210217E-14 -1.52750786691215E-02
   10    2.48458592596017E-14 -3.00170050551448E-16  6.70216289129927E-14  3.54026425171238E-02
   11    1.60677736674605E-14  1.88753978105654E-16  2.69941252666539E-14  1.08634152437416E-02
   12   -1.06770038502100E-13  1.34315206151223E-16 -1.10499545714923E-13 -9.74392092440154E-02
   13    3.04671809575441E-14 -4.72799917660948E-17 -6.55967462317679E-14 -5.28763050905167E-02
   14   -1.71413435753280E-15  5.61895854333926E-17 -2.34204209296718E-14 -2.00423960408576E-02
   15   -1.70188775271952E-15  6.80991034835393E-17 -9.52464150606388E-14 -8.10745313832402E-02
   16   -2.23582799814976E-15 -7.71932056443889E-17  2.22520645513881E-13  1.87904279511594E-01
   17    7.92756851146900E-15 -3.79324525416510E-16  6.20856980654545E-14  5.76590352944238E-02
   18   -2.20294920682460E-14  5.31514011638676E-16 -5.83051950332911E-13 -5.17171688534766E-01
   19    3.78073413998719E-14 -2.11475611132583E-16 -3.43357660420877E-13 -2.80648090222607E-01
   20    1.09722635131537E-15 -8.54667992075350E-17 -2.54538016823489E-14 -1.94955984997606E-02
   21    2.28588601040283E-15  1.79450687642624E-16 -1.03678340678537E-13 -7.88626524085108E-02
   22   -3.41540299263462E-15 -3.04602795817784E-16  2.37021815713339E-13  1.82777866592245E-01
   23   -8.49197382840586E-15  1.77775792586523E-16  7.37939425892109E-14  5.60859789264748E-02
   24    4.13846416232819E-14  6.35775750739302E-16 -5.66660558081871E-13 -5.03062187503102E-01
   25   -4.16262060160818E-14 -2.35759624204809E-16 -3.31980297872712E-13 -2.72991436530375E-01
   26   -4.08172671964693E-02 -5.74763273499399E-04 -3.20866909753466E-15 -1.33505989630562E-15
   27   -4.02116155743561E-02 -5.66234865479020E-04 -1.02007444129065E-15  4.65678766005472E-15
   28    1.52669461884714E-01 -1.94121466651141E-04  2.71124274529509E-15 -3.36434058643559E-15
   29    1.50404133664870E-01 -1.91241068494878E-04 -3.55774430822360E-15  4.88037802532351E-15
   30    1.19831087930714E-01  9.06672191668739E-05 -6.52728612931066E-16  3.01841402126463E-15
   31    1.18053019535417E-01  8.93218878363658E-05  2.40825971346985E-15 -3.53102019516735E-15
   32    4.69058499119597E-01  2.62570147031575E-04  1.56767403990075E-15  1.36455648209489E-15
   33    4.62098551519746E-01  2.58674098952140E-04  1.57786646403013E-15 -1.99655494825546E-15
   34    1.83040317565521E-05  5.54721007260146E-01 -1.56805115446609E-15  8.55247087697003E-16
   35    1.80324342860023E-05  5.46489988847065E-01  6.15880566845102E-16 -3.18165636266239E-16
   36   -4.28241231923127E-01  3.12193126467824E-04  1.64099505763390E-15 -2.94965857892649E-17
   37   -4.21886935945390E-01  3.07560766526880E-04 -5.57792022739480E-16 -2.66023271179926E-15

  column          17                  18                  19                  20
  row   
    1   -8.69813999369306E-17 -7.35004987873651E-17 -1.02399649123849E-16  7.17831907721681E-14
    2    2.20751204199758E-16  2.02615981616037E-16  2.95383502888062E-16 -1.99369746806201E-13
    3   -4.46415615048042E-16 -4.10864812249069E-16 -6.07750804028192E-16  4.05575458005266E-13
    4    8.30488565734865E-16  6.28746230702253E-16  2.98717816910839E-16 -2.72359974780479E-13
    5    2.47202433109456E-16  4.95548351485957E-16  2.45658066471649E-15 -1.43024488071944E-12
    6   -2.52977487780538E-15 -2.24374179889419E-15 -8.20612536349650E-15  4.96337787688793E-12
    7    6.87779536484420E-16  1.68035202237218E-16  8.04206509215703E-15 -4.47436717015124E-12
    8    2.69906885044547E-03  2.78296788925427E-02 -2.64501856486411E-02  5.31930431729577E-03
    9    1.09181428096049E-02  1.12575271447595E-01 -5.19965124562548E-02  1.04568367446287E-02
   10   -2.53046884544480E-02 -2.60912704782608E-01  1.04194089470777E-01 -2.09541088792867E-02
   11   -7.76482541273742E-03 -8.00619064819023E-02  1.49902639505832E-01 -3.01463954956327E-02
   12    6.96464630282478E-02  7.18113842022378E-01 -8.26897800648565E-01  1.66294524332612E-01
   13    3.77943094581807E-02  3.89691243342156E-01  8.60708151958619E-01 -1.73094005821408E-01
   14    1.93194226442900E-02 -4.59320581707211E-03  2.33343077928302E-02  2.81740397738275E-02
   15    7.81499943563629E-02 -1.85802140825172E-02  4.58712328875704E-02  5.53853129616326E-02
   16   -1.81126158028016E-01  4.30628667323796E-02 -9.19198445788790E-02 -1.10984794584954E-01
   17   -5.55791468167568E-02  1.32139797947098E-02 -1.32243847950689E-01 -1.59672335904987E-01
   18    4.98516165936204E-01 -1.18522556053751E-01  7.29487802084253E-01  8.80789716708993E-01
   19    2.70524495089267E-01 -6.43173819102236E-02 -7.59315235226982E-01 -9.16803610722209E-01
   20   -2.03840674566376E-02 -6.68358515017933E-04 -1.86315716281082E-02  2.77338455096532E-02
   21   -8.24566440740279E-02 -2.70361154878889E-03 -3.66264630089908E-02  5.45199668032167E-02
   22    1.91107565240612E-01  6.26608839406516E-03  7.33945563554441E-02 -1.09250756073644E-01
   23    5.86419738702733E-02  1.92276946966384E-03  1.05591764167396E-01 -1.57177597948438E-01
   24   -5.25988138557116E-01 -1.72462464594033E-02 -5.82468713322644E-01  8.67028162300941E-01
   25   -2.85432419907277E-01 -9.35883815734989E-03  6.06284802576898E-01 -9.02479371313974E-01
   26    3.96631289476224E-15 -2.67785644696527E-15 -8.31176301491162E-15  1.80870968251052E-14
   27    3.74900857753658E-15 -3.01696831053126E-15 -7.85145797550867E-15 -2.99447432083610E-15
   28   -6.75667173670650E-15  9.10211031906466E-15  1.60877404723845E-14  9.78591128887305E-15
   29   -6.47380687364333E-15  9.90308097425934E-15  1.38599754900597E-14 -4.54288443199639E-15
   30    8.25459270326717E-15  7.63543104520473E-15 -1.89675375105556E-14 -9.41732678420385E-15
   31    7.87954220385335E-15  8.37335014316753E-15 -1.97321654144841E-14  7.16799431657111E-15
   32   -2.56078309032977E-15  3.05146082337859E-14  4.35640863722258E-15 -9.58687942131597E-15
   33   -2.95159732196993E-15  3.07091070830249E-14  2.72355252657247E-15  2.93851817606661E-15
   34    6.29406371612137E-17 -4.37386824399409E-17  5.53726124708558E-17 -8.67063597114892E-16
   35    6.20372751110980E-17 -4.21428221732431E-17  5.39739206938730E-17  4.50432012318050E-16
   36   -1.40552980443247E-15 -2.78367517868206E-14  3.95535437768904E-15 -8.50021740378928E-15
   37   -7.97411255566646E-16 -2.76921387724937E-14  5.12790544893620E-15  5.59561447694910E-17

  column          21                  22                  23                  24
  row   
    1   -5.96369615969046E-17  2.80688753804901E-02  1.28194855097834E-16  4.78703784544089E-16
    2    2.07868484091318E-16 -7.74921718393773E-02 -3.22566423773010E-16 -6.64520472682863E-16
    3   -4.50108128070435E-16  1.57377706504467E-01  6.47897419471752E-16  1.45639280104823E-16
    4   -1.58639994857301E-16 -1.18034204965835E-01 -1.90241111690978E-15  4.92589095764028E-15
    5    2.68594588157710E-15 -5.22469813707711E-01  1.34661971935965E-15 -1.08164024807909E-14
    6   -7.90966850455260E-15  1.82477998374680E+00  1.04299168585682E-15  1.66204542803812E-14
    7    7.98491180246782E-15 -1.65420515221033E+00 -4.88591761843155E-16 -9.80270189358801E-15
    8    2.93824842905465E-02 -1.57628898804178E-14 -9.13036704513334E-17  2.12778036582881E-14
    9    5.77609068875583E-02 -5.67708144265950E-14  3.35864879192542E-16 -1.21910030053443E-13
   10   -1.15745168586440E-01  1.22814441371153E-13 -9.27742696406651E-16  3.44285624806566E-13
   11   -1.66521022154607E-01  6.81995247387826E-14  9.55106238796201E-16 -3.04152821051796E-13
   12    9.18568661868389E-01 -4.87300488563968E-13 -4.94977491153861E-16  1.26862376393597E-13
   13   -9.56127268428257E-01  4.55147993951708E-13  2.05638877054241E-16 -5.07933645178620E-14
   14    1.59050704180492E-02 -8.37926571305634E-14 -1.64898095580830E-16  3.38935436937719E-14
   15    3.12666309074520E-02 -2.03356293324020E-13  5.13030471593805E-16 -1.80206708745933E-13
   16   -6.26541662955061E-02  4.38118478662034E-13 -1.50888684700220E-15  5.53190138753149E-13
   17   -9.01397089934678E-02  4.12248490583277E-13  1.74349399740424E-15 -5.50548210283015E-13
[...]
1



 =======================================================
 S F O   P O P U L A T I O N S ,   M O   A N A L Y S I S
 =======================================================
  
 A Mulliken population analysis is performed on (input-)selected MOs. All populations refer to SFOs.
 BAS populations may have been printed directly after the SCF part.


                                       === A ===


 SFO contributions (%) per orbital
 (multiplication by the orbital occupation yields the SFO Gross Populations)

 Orb.:        9     10     11     12     13     14     15     16     17     18     19     20     21     22
 occup:     2.00   2.00   2.00   2.00   2.00   2.00   2.00   2.00   2.00   2.00   0.00   0.00   0.00   0.00
 CF+SFO     ----   ----   ----   ----   ----   ----   ----   ----   ----   ----   ----   ----   ----   ----
 ------
      4:    0.00   0.00   0.00   0.00   0.00   0.00 100.00   0.00   0.00   0.00   0.00   0.00   0.00   0.00
      5:    0.00   0.00   0.00   0.00   0.00   0.00   0.00   0.00   0.00   0.00   0.00   0.00   0.00 100.00
      9:   62.98   0.00   0.00   0.00   0.00   0.00   0.00   0.00   0.00   0.00   0.00   0.00   0.00   0.00
     10:    0.00   0.00   0.00   0.00   0.00   0.00   0.00   1.79   0.92  97.29   0.00   0.00   0.00   0.00
     11:    0.00   0.00   0.00   0.00   0.00   0.00   0.00   0.00   0.00   0.00  43.97   1.78  54.26   0.00
     16:    0.00   0.00   0.00   0.00   0.00   0.00   0.00  50.46  46.89   2.65   0.00   0.00   0.00   0.00
     17:    0.00   0.00   0.00   0.00   0.00   0.00   0.00   0.00   0.00   0.00  34.22  49.88  15.90   0.00
     21:   36.40   0.00   0.00   0.00   0.00   0.00   0.00   0.00   0.00   0.00   0.00   0.00   0.00   0.00
     22:    0.00   0.00   0.00   0.00   0.00   0.00   0.00  47.75  52.20   0.06   0.00   0.00   0.00   0.00
     23:    0.00   0.00   0.00   0.00   0.00   0.00   0.00   0.00   0.00   0.00  21.82  48.34  29.85   0.00
     26:    0.00  23.57   2.94  13.89  59.60   0.00   0.00   0.00   0.00   0.00   0.00   0.00   0.00   0.00
     28:    0.00  64.54   6.84   0.46  28.16   0.00   0.00   0.00   0.00   0.00   0.00   0.00   0.00   0.00
     30:    0.00   9.50  32.71  50.21   7.57   0.00   0.00   0.00   0.00   0.00   0.00   0.00   0.00   0.00
     32:    0.00   2.38  57.51  35.44   4.67   0.00   0.00   0.00   0.00   0.00   0.00   0.00   0.00   0.00
     34:    0.00   0.00   0.00   0.00   0.00 100.00   0.00   0.00   0.00   0.00   0.00   0.00   0.00   0.00


 Summation over all MOs, multiplied by occupation: Total SFO Gross Populations in this Irrep
 ===========================================================================================

     2.00    2.00    2.00    2.00    0.00    0.00    0.00    2.00    2.00    2.00    0.00    0.00
     0.00    2.00    2.00    2.00    0.00    0.00    0.00    2.00    2.00    2.00    0.00    0.00
     0.00    2.00    0.00    2.00    0.00    2.00    0.00    2.00    0.00    2.00    0.00



 List of all MOs, ordered by energy, with the most significant SFO gross populations
 ===================================================================================

 Each percentage contribution in the table below corresponds to the indicated SFO.
 In general, a SFO may be a linear combination of several Fragment Orbitals on the same,
 or on symmetry-related Fragments. Only the first 'member' of such a combination is
 specified here. A full definition of all SFOs is given in an earlier part of the output.
 The numbering of the SFOs in this table does NOT include the Core Orbitals, and starts
 from one for each symmetry representation, as in the SFO definition list earlier.

       E(eV)  Occ       MO           %     SFO (first member)   E(eV)  Occ   Fragment
 -------------------------------------------------------------------------------------

     -22.156  2.00    15 A        100.00%     4 S             -22.108  2.00     1 Kr
      -9.357  2.00    16 A         50.46%     3 P:y            -9.314  2.00     1 Kr
                                   47.75%     3 P:z            -9.314  2.00     1 Kr
                                    1.79%     3 P:x            -9.314  2.00     1 Kr
      -9.357  2.00    17 A         52.20%     3 P:z            -9.314  2.00     1 Kr
                                   46.89%     3 P:y            -9.314  2.00     1 Kr
      -9.357  2.00    18 A         97.29%     3 P:x            -9.314  2.00     1 Kr
                                    2.65%     3 P:y            -9.314  2.00     1 Kr
      10.477  0.00    19 A         43.97%     4 P:x            10.512  0.00     1 Kr
                                   34.22%     4 P:y            10.512  0.00     1 Kr
                                   21.82%     4 P:z            10.512  0.00     1 Kr
      10.477  0.00    20 A         49.88%     4 P:y            10.512  0.00     1 Kr
                                   48.34%     4 P:z            10.512  0.00     1 Kr
                                    1.78%     4 P:x            10.512  0.00     1 Kr
      10.477  0.00    21 A         54.26%     4 P:x            10.512  0.00     1 Kr
                                   29.85%     4 P:z            10.512  0.00     1 Kr
                                   15.90%     4 P:y            10.512  0.00     1 Kr
      12.685  0.00    22 A        100.00%     5 S              12.723  0.00     1 Kr



 =======================================================================
 Electrostatic potential at the Nuclei due to electrons and other nuclei
 =======================================================================
  
         Atom                  Potential
         ----                  ---------
     1)   Kr                182.80555363
 
 
 ========================
 No memory problems found
 ========================
 
 Maximum number of active allocate calls:         515
 
 *******************************************************************************

                             A D F   E X I T
 NORMAL TERMINATION



 =================
 Timing Statistics
 =================
  
 Total Used :                     CPU=        0.94      System=        0.18     Elapsed=        1.18

 Calls  Section                     ( Mean, Percentage )
 ---------------------------------------------------------------------------------------------------
     3  ><      ................      0.00    0.13             0.00    0.00             0.00    0.20
     1  INIT    ................      0.53   56.39             0.12   67.29             0.65   55.35
     1  GEOMET  ................      0.02    1.80             0.01    3.84             0.03    2.26
     1  FRAGM   ................      0.02    1.75             0.01    5.56             0.04    3.23
     1  INPUTA  ................      0.00    0.03             0.00    0.04             0.00    0.03
     1  ATDEN   ................      0.01    0.84             0.00    0.02             0.01    0.67
     1  MAINSY  ................      0.01    0.91             0.00    1.59             0.01    1.06
     1  SYMFIT  ................      0.00    0.10             0.00    0.01             0.00    0.08
     1  CORORT  ................      0.00    0.03             0.00    0.03             0.00    0.03
     1  SYMORB  ................      0.00    0.13             0.00    0.04             0.00    0.11
     1  CLSMAT  ................      0.01    0.84             0.00    0.01             0.01    0.67
     1  ORTHON  ................      0.00    0.33             0.00    0.00             0.00    0.26
     1  GENPT   ................      0.02    2.56             0.00    0.65             0.03    2.21
     1  PTBAS   ................      0.01    0.69             0.00    0.52             0.01    0.65
     8  FOCKY   ................      0.02   19.59             0.00    8.67             0.03   17.32
     8  FOCKTR  ................      0.00    0.49             0.00    0.13             0.00    0.41
     8  SDIIS   ................      0.00    1.75             0.00    1.56             0.00    1.71
     1  COREPS  ................      0.01    1.31             0.00    1.84             0.03    2.81
     1  TOTEN   ................      0.05    5.08             0.00    2.33             0.05    4.47
     1  POPAN   ................      0.00    0.02             0.00    1.53             0.01    0.80
     1  DEBYE   ................      0.00    0.00             0.00    0.52             0.00    0.11
     1  INPUTE  ................      0.00    0.00             0.00    0.48             0.00    0.14
     1  SYMORE  ................      0.00    0.04             0.00    0.01             0.00    0.05
     1  METS    ................      0.00    0.07             0.00    0.06             0.00    0.06
     1  CETS    ................      0.00    0.28             0.00    0.00             0.00    0.22
     1  ELNRGY  ................      0.00    0.19             0.00    0.00             0.00    0.15
     1  POPUL   ................      0.00    0.53             0.00    0.49             0.01    1.14
     1  EXIT PROCEDURE .........      0.04    4.14             0.00    2.79             0.04    3.79


 Currently Open Files (EXIT00)
 ====================

 Unit    Access Format  Status   Type       Ident (file)
 -------------------------------------------------------
   3      SEQ    FORM   TRANSP  NORMAL      LOGFILE
                                          ( logfile )


 Buffered I/O statistics
 =======================
 Memory available:                     67108864
 Number of records fitting in memory:     16131
 Input :   2.5% of                         2492  *4k bytes
 Output:  11.4% of                         1750  *4k bytes
 Records from serial files evicted:           0
                    others evicted:           0
 Hash table lookups:      11398 with          0 conflicts (  0.00%)

 ***************************************************************************************************
 (LOGFILE)
 <Feb14-2017> <18:20:27>  ADF 2016  RunTime: Feb14-2017 18:20:27  Nodes: 1  Procs: 1
 <Feb14-2017> <18:20:27>  Krypton (DZ)
 <Feb14-2017> <18:20:27>  RunType   : CREATE
 <Feb14-2017> <18:20:27>  Net Charge: 0 (Nuclei minus Electrons)
 <Feb14-2017> <18:20:27>  Symmetry  : ATOM
  Coordinates
    Atom         X           Y           Z   (Angstrom)
    1.Kr        0.000000    0.000000    0.000000
 <Feb14-2017> <18:20:27>  >>>> CORORT
 <Feb14-2017> <18:20:27>  >>>> CLSMAT
 <Feb14-2017> <18:20:27>  >>>> ORTHON
 <Feb14-2017> <18:20:27>  >>>> GENPT
 <Feb14-2017> <18:20:27>  Block Length= 111
 <Feb14-2017> <18:20:27>  >>>> PTBAS
 <Feb14-2017> <18:20:27>  >>>> CYCLE
 <Feb14-2017> <18:20:27>              |Error|         MaxErr       Wt(A-DIIS)
 <Feb14-2017> <18:20:27>      1      0.00000000      0.00000000
 <Feb14-2017> <18:20:27>      2    123.74192564     45.74739465    100.0
 <Feb14-2017> <18:20:27>      3     50.14987562     14.97814603    100.0
 <Feb14-2017> <18:20:27>      4     14.41853414      4.70553795    100.0
 <Feb14-2017> <18:20:27>      5     14.79922340      4.87447670    100.0
 <Feb14-2017> <18:20:28>      6      0.18846776      0.06596603     65.6
 <Feb14-2017> <18:20:28>      7      0.21108394      0.06584246    100.0
 <Feb14-2017> <18:20:28>      8      0.08300028      0.02697940     26.2
 <Feb14-2017> <18:20:28>      9      0.02114080      0.00685220      5.9
 <Feb14-2017> <18:20:28>     10      0.00124654      0.00040253      0.0
 <Feb14-2017> <18:20:28>     11      0.00000022      0.00000006      0.0
 <Feb14-2017> <18:20:28>     12      0.00000001      0.00000000      0.0
 <Feb14-2017> <18:20:28>  SCF converged
 <Feb14-2017> <18:20:28>     13      0.00000000      0.00000000      0.0
 <Feb14-2017> <18:20:28>  >>>> POPAN
 <Feb14-2017> <18:20:28>  >>>> DEBYE
 <Feb14-2017> <18:20:28>  NORMAL TERMINATION
 <Feb14-2017> <18:20:28>  END
 <Feb14-2017> <18:20:28>  ADF 2016  RunTime: Feb14-2017 18:20:28  Nodes: 1  Procs: 16
 <Feb14-2017> <18:20:29>  kr    Calculation: kr
 <Feb14-2017> <18:20:29>  RunType   : SINGLE POINT
 <Feb14-2017> <18:20:29>  Net Charge: 0 (Nuclei minus Electrons)
 <Feb14-2017> <18:20:29>  Symmetry  : NOSYM
 <Feb14-2017> <18:20:29>  >>>> FRAGM
  Coordinates
    Atom         X           Y           Z   (Angstrom)
    1.Kr        0.000000    0.000000    0.000000
 <Feb14-2017> <18:20:29>  >>>> CORORT
 <Feb14-2017> <18:20:29>  >>>> CLSMAT
 <Feb14-2017> <18:20:29>  >>>> ORTHON
 <Feb14-2017> <18:20:29>  >>>> GENPT
 <Feb14-2017> <18:20:29>  Block Length= 100
 <Feb14-2017> <18:20:29>  >>>> PTBAS
 <Feb14-2017> <18:20:29>  >>>> CYCLE
 <Feb14-2017> <18:20:29>              |Error|         MaxErr       Wt(A-DIIS)
 <Feb14-2017> <18:20:29>      1      0.02254059      0.00692110
 <Feb14-2017> <18:20:29>      2      0.01781418      0.00579908    100.0
 <Feb14-2017> <18:20:29>      3      0.00264177      0.00221544    100.0
 <Feb14-2017> <18:20:29>      4      0.00052745      0.00018383      0.0
 <Feb14-2017> <18:20:29>      5      0.00006693      0.00003164      0.0
 <Feb14-2017> <18:20:29>      6      0.00001778      0.00000531      0.0
 <Feb14-2017> <18:20:29>      7      0.00000146      0.00000052      0.0
 <Feb14-2017> <18:20:29>  SCF converged
 <Feb14-2017> <18:20:29>      8      0.00000004      0.00000002      0.0
 <Feb14-2017> <18:20:29>  >>>> TOTEN
 <Feb14-2017> <18:20:29>  >>>> POPAN
 <Feb14-2017> <18:20:29>  >>>> DEBYE
 <Feb14-2017> <18:20:29>  >>>> AMETS
 <Feb14-2017> <18:20:29>   Bond Energy          -0.00001544 a.u.
 <Feb14-2017> <18:20:29>   Bond Energy          -0.00042001 eV
 <Feb14-2017> <18:20:29>   Bond Energy          -0.01       kcal/mol
 <Feb14-2017> <18:20:29>  >>>> POPUL
 <Feb14-2017> <18:20:29>  NORMAL TERMINATION
 <Feb14-2017> <18:20:29>  END

 *******************************************************************************
 *                                                                             *
 *  -------------------------------------                                      *
 *   Amsterdam Density Functional  (ADF)         2016                          *
 *  -------------------------------------                                      *
 *                                               r52212 2016-04-25             *
 *                                                                             *
 *                                                                             *
 *                            =====================                            *
 *                            |                   |                            *
 *                            |     D E N S F     |                            *
 *                            |                   |                            *
 *                            =====================                            *
 *                                                                             *
 *                                                                             *
 *   Online information and documentation:  http://www.scm.com                 *
 *   E-mail:  support@scm.com   info@scm.com                                   *
 *                                                                             *
 *   Scientific publications using ADF results must be properly referenced     *
 *   See the User Manuals (or the web site) for recommended citations          *
 *   The terms and conditions of the End User License Agreement apply to       *
 *   the use of ADF, http://www.scm.com/Sales/LicAgreement.html                *
 *                                                                             *
 **********************  x86_64_linux_intel / intelmpi  ************************
 
 Licensed to: Dr. Enrique Batista / Los Alamos National Lab (LANL) / Los Alamos / NM / USA
 SCM User ID: u11537
  
 DENSF 2016  RunTime: Feb14-2017 18:20:30  Nodes: 1  Procs: 1

 Temporary files are created in /scratch/duignan/kid_0.xxrlOX

 read unit definitions from tape21
 
 Automatic Grid generation
 =========================
 
 Grid type: 
 Coarse                                                                         
                                                                                
   
 Grid extends around the atom bounding box by: 4.00 bohr
 Grid spacing: 0.50 bohr
 Number of points:      17 x       17 x       17 =     4913
 
 Summary of selected items
 =========================
 
 Exact Density (SumFrag, Orth, SCF)        :      F F F
 Exact Density Gradient (SCF)              :      F
 Exact Density Hessian (SCF)               :      F
 Exact Density Laplacian (SCF)             :      F
 Fit   Density (SumFrag, Orth, SCF, Trans) :      F F F F
 Fit   Density Gradient (SCF)              :      F
 Fit   Density Hessian (SCF)               :      F
 Fit   Density Laplacian (SCF)             :      F
 
 Kinetic Energy Density (SumFrag, Orth, SCF) :    F F F
 Single Exponential Decay Detector, SEDD (SCF) :  F
 Exact RDG and Lambda2 for NCI (SCF)       :      F
 Fit   RDG and Lambda2 for NCI (SCF)       :      F
 Ridge function value (SCF)                :      F
 Fractional Orbital Density, FOD (SCF)     :      F
 Spin Magnetization Density                :      F
 Steric Interaction                        :      F
 
 Coulomb Potential (SumFrag, Orth, SCF, Trans) :  F F F F
 XC Potential from fit density (Orth, SCF)     :  F F
 XC Potential from exact density (SCF)         :  F
 
 COSMO surface                                 :  F
 
 Selected Orbitals (per spin and subspecies):
 --------------------------------------------
 
 Spin 1
 A          : 1 2 3 4 5 6 7 8 9 10 11 12 13 14 15 16 17 18 19 20 21 22 23 24 25
  1% done
  2% done
  3% done
  4% done
  5% done
  6% done
  7% done
  8% done
  9% done
 10% done
 11% done
 12% done
 13% done
 14% done
 15% done
 16% done
 17% done
 18% done
 19% done
 20% done
 21% done
 22% done
 23% done
 24% done
 25% done
 26% done
 27% done
 28% done
 29% done
 30% done
 31% done
 32% done
 33% done
 34% done
 35% done
 36% done
 37% done
 38% done
 39% done
 40% done
 41% done
 42% done
 43% done
 44% done
 45% done
 46% done
 47% done
 48% done
 49% done
 50% done
 51% done
 52% done
 53% done
 54% done
 55% done
 56% done
 57% done
 58% done
 59% done
 60% done
 61% done
 62% done
 63% done
 64% done
 65% done
 66% done
 67% done
 68% done
 69% done
 70% done
 71% done
 72% done
 73% done
 74% done
 75% done
 76% done
 77% done
 78% done
 79% done
 80% done
 81% done
 82% done
 83% done
 84% done
 85% done
 86% done
 87% done
 88% done
 89% done
 90% done
 91% done
 92% done
 93% done
 94% done
 95% done
 96% done
 97% done
 98% done
 99% done
100% done
 *******************************************************************************

                             D E N S F   E X I T
 NORMAL TERMINATION



 =================
 Timing Statistics
 =================
  
 Total Used :                     CPU=        0.16      System=        0.22     Elapsed=        0.38

 Calls  Section                     ( Mean, Percentage )
 ---------------------------------------------------------------------------------------------------
     2  ><      ................      0.00    0.01             0.00    0.00             0.00    0.01
     1  EXIT PROCEDURE .........      0.16   99.99             0.22  100.00             0.38   99.99


 Currently Open Files (EXIT00)
 ====================

 Unit    Access Format  Status   Type       Ident (file)
 -------------------------------------------------------
   3      SEQ    FORM   TRANSP  NORMAL      LOGFILE
                                          ( logfile )


 Buffered I/O statistics
 =======================
 Memory available:                     67108864
 Number of records fitting in memory:     16131
 Input :  68.6% of                          153  *4k bytes
 Output: 100.0% of                            0  *4k bytes
 Records from serial files evicted:           0
                    others evicted:           0
 Hash table lookups:        459 with          0 conflicts (  0.00%)
